 Gaussian 16, Revision A.03,
 Gaussian 16:  ES64L-G16RevA.03 25-Dec-2016

 -----------------------------------
 #p cam-b3lyp/Def2SVP td=(nstates=5)
 -----------------------------------

 --------------------------------
 TDDFT excited states in gaussian
 --------------------------------
 Symbolic Z-matrix:
 Charge =  0 Multiplicity = 1

                         Standard orientation:
 ---------------------------------------------------------------------
 Center     Atomic      Atomic             Coordinates (Angstroms)
 Number     Number       Type             X           Y           Z
 ---------------------------------------------------------------------
      1         12           0        4.134811    0.315730    1.013401
      2          6           0        4.611949   -2.717791   -0.825703
      3          6           0        5.658344    1.945599   -1.568350
      4          6           0        4.134971    2.930692    2.807446
      5          6           0        3.703769   -1.650397    3.858433
      6          7           0        4.982534   -0.404275   -0.900654
      7          6           0        5.048413   -1.582647   -1.512430
      8          6           0        5.555483   -1.488022   -2.982566
      9          6           0        6.362729   -0.116757   -2.882646
     10          6           0        5.601509    0.530456   -1.739150
     11          6           0        7.818572   -0.295878   -2.464387
     12          6           0        4.379704   -1.386968   -4.011673
     13          6           0        4.769860   -1.618750   -5.474346
     14          1           0        3.829130   -2.300514   -6.350459
     15          7           0        4.344178    2.214636    0.510238
     16          6           0        4.979615    2.696988   -0.584678
     17          6           0        4.861907    4.169082   -0.508766
     18          6           0        4.271982    4.510703    0.815386
     19          6           0        4.250776    3.217220    1.449286
     20          6           0        5.240463    5.083852   -1.632884
     21          6           0        3.811661    5.800192    1.418255
     22          8           0        3.547487    5.912530    2.664115
     23          6           0        3.762326    6.965936    0.517340
     24          7           0        4.165088    0.621237    3.078197
     25          6           0        4.099901    1.853384    3.594481
     26          6           0        3.851571    1.813349    5.073220
     27          6           0        3.516783    0.292012    5.424222
     28          6           0        3.723065   -0.325288    4.018997
     29          6           0        5.006957    2.299166    5.959265
     30          6           0        2.182055    0.017792    6.161598
     31          6           0        1.017691    0.331879    5.249073
     32          7           0        3.972950   -1.805953    1.441542
     33          6           0        3.819216   -2.402538    2.701354
     34          6           0        3.867548   -3.861981    2.497007
     35          6           0        4.063915   -4.013764    1.125786
     36          6           0        4.160071   -2.730255    0.516154
     37          6           0        3.794570   -4.849413    3.518813
     38          6           0        4.239502   -4.961568    0.037350
     39          8           0        4.159862   -6.186398   -0.067254
     40          6           0        4.723001   -4.160722   -1.251332
     41          6           0        3.882709   -4.618007   -2.412413
     42          8           0        2.661551   -4.364779   -2.457289
     43          8           0        4.683378   -5.068196   -3.390575
     44          6           0        3.913888   -5.510140   -4.584193
     45          1           0        6.327328    2.527669   -2.205214
     46          1           0        4.020642    3.806408    3.449698
     47          1           0        3.491929   -2.327652    4.687832
     48          1           0        6.225330   -2.293166   -3.285009
     49          1           0        6.264561    0.480242   -3.789110
     50          1           0        8.026950   -1.326728   -2.178296
     51          1           0        7.961367    0.371442   -1.614218
     52          1           0        8.492240    0.062592   -3.243134
     53          1           0        4.042265   -0.352256   -4.071396
     54          1           0        3.571372   -2.067543   -3.741963
     55          1           0        5.761036   -2.065670   -5.556452
     56          1           0        4.869581   -0.647600   -5.959240
     57          1           0        5.796294    4.557407   -2.407773
     58          1           0        5.951764    5.805008   -1.230771
     59          1           0        4.377549    5.608372   -2.043481
     60          1           0        4.756164    7.145882    0.106908
     61          1           0        3.325816    7.777161    1.098909
     62          1           0        3.118616    6.729929   -0.330532
     63          1           0        3.001230    2.437869    5.343998
     64          1           0        4.273611   -0.155016    6.069243
     65          1           0        4.732727    3.115689    6.627691
     66          1           0        5.832547    2.586697    5.308867
     67          1           0        5.471432    1.525238    6.569769
     68          1           0        2.090341    0.665205    7.033028
     69          1           0        2.082412   -1.012892    6.502206
     70          1           0        0.896800    1.407771    5.370214
     71          1           0        0.123908   -0.200662    5.575817
     72          1           0        1.269646    0.147861    4.204495
     73          1           0        3.127329   -5.626114    3.145325
     74          1           0        3.426010   -4.426106    4.452931
     75          1           0        4.839505   -5.152803    3.581435
     76          1           0        5.777287   -4.397865   -1.390497
     77          1           0        4.201194   -6.541840   -4.787378
     78          1           0        4.098898   -4.770558   -5.363419
     79          1           0        2.837048   -5.618945   -4.450346
     80         12           0       -3.621712    0.648875   -0.656168
     81          6           0       -6.398384   -1.476713    0.150686
     82          6           0       -5.895490    3.007391   -1.605879
     83          6           0       -1.211996    2.370250   -1.795270
     84          6           0       -1.633152   -2.212113   -0.734388
     85          7           0       -5.833449    0.647922   -0.677468
     86          6           0       -6.780917   -0.192562   -0.289832
     87          6           0       -8.214210    0.403300   -0.303446
     88          6           0       -7.982237    1.562898   -1.389903
     89          6           0       -6.483849    1.784859   -1.194363
     90          6           0       -8.214419    1.103236   -2.819630
     91          6           0       -8.628565    0.995550    1.089238
     92          6           0      -10.118344    1.313270    1.235418
     93          1           0      -10.749348    1.108336    2.536301
     94          7           0       -3.521716    2.579648   -1.104168
     95          6           0       -4.545697    3.390052   -1.444746
     96          6           0       -3.947267    4.709978   -1.697416
     97          6           0       -2.466583    4.572726   -1.638571
     98          6           0       -2.339434    3.133345   -1.528587
     99          6           0       -4.767672    5.953333   -1.882937
    100          6           0       -1.349471    5.570652   -1.687698
    101          8           0       -0.131618    5.210118   -1.859950
    102          6           0       -1.733425    6.988298   -1.621799
    103          7           0       -1.747814    0.135174   -1.395743
    104          6           0       -0.871680    1.081394   -1.776484
    105          6           0        0.499312    0.493052   -2.010206
    106          6           0        0.419172   -1.010508   -1.471253
    107          6           0       -1.075137   -1.061249   -1.084102
    108          6           0        0.982930    0.488563   -3.460192
    109          6           0        1.472164   -1.435259   -0.411319
    110          6           0        1.232231   -0.690131    0.881968
    111          7           0       -3.883467   -1.440894   -0.174105
    112          6           0       -2.928102   -2.472554   -0.304679
    113          6           0       -3.606265   -3.739744    0.037044
    114          6           0       -4.925564   -3.357195    0.322683
    115          6           0       -5.065194   -1.953540    0.150204
    116          6           0       -3.014510   -5.034005    0.008272
    117          6           0       -6.234506   -3.823068    0.720597
    118          8           0       -6.697790   -4.901726    1.088827
    119          6           0       -7.277946   -2.643714    0.504387
    120          6           0       -8.120202   -2.535294    1.745906
    121          8           0       -7.610984   -2.191272    2.827081
    122          8           0       -9.418266   -2.642960    1.408538
    123          6           0      -10.294139   -2.530558    2.605223
    124          1           0       -6.515336    3.727189   -2.141196
    125          1           0       -0.320576    2.931392   -2.085032
    126          1           0       -1.057280   -3.135219   -0.639973
    127          1           0       -8.985639   -0.276726   -0.644377
    128          1           0       -8.537475    2.461368   -1.133309
    129          1           0       -8.382753    0.038150   -2.878094
    130          1           0       -7.320275    1.375450   -3.365024
    131          1           0       -9.029344    1.675607   -3.271987
    132          1           0       -8.210504    2.005650    1.187482
    133          1           0       -8.317144    0.348682    1.886236
    134          1           0      -10.717895    0.852955    0.440691
    135          1           0      -10.260040    2.386994    1.090299
    136          1           0       -5.827091    5.716395   -2.040708
    137          1           0       -4.448007    6.409587   -2.826084
    138          1           0       -4.626973    6.675171   -1.075596
    139          1           0       -2.404746    7.219277   -2.445478
    140          1           0       -0.794468    7.543735   -1.580338
    141          1           0       -2.299276    7.154937   -0.698407
    142          1           0        1.251737    1.029312   -1.445050
    143          1           0        0.558988   -1.741615   -2.281041
    144          1           0        1.945817    1.015004   -3.600779
    145          1           0        0.213385    0.931946   -4.078058
    146          1           0        1.097084   -0.498121   -3.905888
    147          1           0        2.476470   -1.162686   -0.744837
    148          1           0        1.477633   -2.501498   -0.211063
    149          1           0        1.734965    0.266742    0.712396
    150          1           0        1.674297   -1.225171    1.720026
    151          1           0        0.165485   -0.481435    1.023871
    152          1           0       -3.340006   -5.545154    0.904530
    153          1           0       -1.929433   -4.973985   -0.044267
    154          1           0       -3.449082   -5.426679   -0.914894
    155          1           0       -7.874376   -2.891040   -0.374633
    156          1           0      -10.919875   -3.428097    2.628596
    157          1           0      -10.811885   -1.557993    2.506192
    158          1           0       -9.820756   -2.577338    3.578963
 ---------------------------------------------------------------------

 SCF Done:  E(RCAM-B3LYP) =  -4069.81292764     A.U. after   19 cycles

 Excitation energies and oscillator strengths:

 Excited State   1:      Singlet-A      1.6250 eV  762.96 nm  f=0.0017  <S**2>=0.000
     309 -> 315       -0.11115
     310 -> 316        0.11246
     311 -> 313       -0.47980
     312 -> 314        0.49027
 This state for optimization and/or second-order correction.
 Total Energy, E(TD-HF/TD-DFT) =  -4069.75320862
 Copying the excited state density for this state as the 1-particle RhoCI density.

 Excited State   2:      Singlet-A      1.7093 eV  725.34 nm  f=0.6639  <S**2>=0.000
     309 -> 315        0.13108
     310 -> 316        0.12662
     311 -> 313        0.48804
     312 -> 314        0.47810

 Excited State   3:      Singlet-A      2.1774 eV  569.41 nm  f=0.0855  <S**2>=0.000
     309 -> 313        0.32087
     310 -> 314        0.55525
     311 -> 315       -0.13234
     312 -> 316       -0.22535

 Excited State   4:      Singlet-A      2.1847 eV  567.51 nm  f=0.1107  <S**2>=0.000
     309 -> 313        0.53772
     310 -> 314       -0.32197
     311 -> 315       -0.23290
     312 -> 313        0.14058
     312 -> 316        0.14113

 Excited State   5:      Singlet-A      2.2502 eV  550.98 nm  f=0.0046  <S**2>=0.000
     309 -> 313       -0.13301
     312 -> 313        0.68763

 The electronic state is 1-A.
 Alpha  occ. eigenvalues --  -46.87638 -46.87366 -19.26696 -19.26172 -19.19650
 Alpha  occ. eigenvalues --  -19.18972 -19.18689 -19.18596 -19.18222 -19.17807
 Alpha  occ. eigenvalues --  -14.42465 -14.42214 -14.41354 -14.41023 -14.39322
 Alpha  occ. eigenvalues --  -14.39078 -14.38308 -14.38297 -10.39570 -10.38895
 Alpha  occ. eigenvalues --  -10.35345 -10.35212 -10.34469 -10.33982 -10.31999
 Alpha  occ. eigenvalues --  -10.31604 -10.31543 -10.31009 -10.30882 -10.30797
 Alpha  occ. eigenvalues --  -10.30649 -10.30497 -10.30092 -10.30083 -10.30040
 Alpha  occ. eigenvalues --  -10.29922 -10.29742 -10.29612 -10.29537 -10.29143
 Alpha  occ. eigenvalues --  -10.29115 -10.29105 -10.28860 -10.28724 -10.28513
 Alpha  occ. eigenvalues --  -10.28502 -10.28252 -10.28208 -10.28156 -10.27918
 Alpha  occ. eigenvalues --  -10.27740 -10.27718 -10.27717 -10.27524 -10.27384
 Alpha  occ. eigenvalues --  -10.27370 -10.27368 -10.27351 -10.27317 -10.27284
 Alpha  occ. eigenvalues --  -10.27210 -10.27207 -10.27185 -10.26982 -10.26930
 Alpha  occ. eigenvalues --  -10.26817 -10.26753 -10.26513 -10.26414 -10.26292
 Alpha  occ. eigenvalues --  -10.26018 -10.25998 -10.25929 -10.25824 -10.25812
 Alpha  occ. eigenvalues --  -10.25469 -10.25352 -10.25326 -10.25197 -10.25100
 Alpha  occ. eigenvalues --  -10.25072 -10.24804 -10.24785 -10.24593 -10.24442
 Alpha  occ. eigenvalues --  -10.24400  -3.16340  -3.16117  -1.91221  -1.91000
 Alpha  occ. eigenvalues --   -1.90816  -1.90656  -1.90587  -1.90425  -1.17061
 Alpha  occ. eigenvalues --   -1.16462  -1.08727  -1.08416  -1.07170  -1.06986
 Alpha  occ. eigenvalues --   -1.06931  -1.06755  -1.04628  -1.04222  -1.03727
 Alpha  occ. eigenvalues --   -1.03366  -1.03196  -1.02715  -1.02372  -1.01805
 Alpha  occ. eigenvalues --   -0.92029  -0.91708  -0.89456  -0.89296  -0.89119
 Alpha  occ. eigenvalues --   -0.88914  -0.88209  -0.87982  -0.87744  -0.87691
 Alpha  occ. eigenvalues --   -0.87447  -0.87370  -0.87093  -0.86923  -0.85043
 Alpha  occ. eigenvalues --   -0.84764  -0.83872  -0.83662  -0.82817  -0.82805
 Alpha  occ. eigenvalues --   -0.82562  -0.82453  -0.81709  -0.81354  -0.80606
 Alpha  occ. eigenvalues --   -0.80203  -0.78689  -0.78378  -0.77205  -0.77016
 Alpha  occ. eigenvalues --   -0.76894  -0.76682  -0.75986  -0.75601  -0.74854
 Alpha  occ. eigenvalues --   -0.74557  -0.72742  -0.72386  -0.71689  -0.71295
 Alpha  occ. eigenvalues --   -0.69784  -0.69507  -0.68899  -0.68600  -0.67630
 Alpha  occ. eigenvalues --   -0.67335  -0.67211  -0.67017  -0.65385  -0.65051
 Alpha  occ. eigenvalues --   -0.64933  -0.64644  -0.64464  -0.64384  -0.64203
 Alpha  occ. eigenvalues --   -0.63856  -0.62459  -0.62015  -0.60309  -0.60096
 Alpha  occ. eigenvalues --   -0.59902  -0.59549  -0.58996  -0.58687  -0.58529
 Alpha  occ. eigenvalues --   -0.58148  -0.57782  -0.57304  -0.57263  -0.56947
 Alpha  occ. eigenvalues --   -0.56378  -0.56135  -0.55915  -0.55668  -0.55492
 Alpha  occ. eigenvalues --   -0.55367  -0.55251  -0.55089  -0.54645  -0.54343
 Alpha  occ. eigenvalues --   -0.53997  -0.53689  -0.53302  -0.53187  -0.53051
 Alpha  occ. eigenvalues --   -0.52980  -0.52909  -0.52719  -0.52561  -0.52523
 Alpha  occ. eigenvalues --   -0.52476  -0.52292  -0.51942  -0.51622  -0.51509
 Alpha  occ. eigenvalues --   -0.51440  -0.51220  -0.50993  -0.50362  -0.50283
 Alpha  occ. eigenvalues --   -0.50061  -0.49880  -0.49759  -0.49672  -0.49440
 Alpha  occ. eigenvalues --   -0.49322  -0.49212  -0.49118  -0.48972  -0.48873
 Alpha  occ. eigenvalues --   -0.48596  -0.48438  -0.48335  -0.48317  -0.48203
 Alpha  occ. eigenvalues --   -0.48085  -0.47660  -0.47367  -0.47258  -0.46859
 Alpha  occ. eigenvalues --   -0.46765  -0.46626  -0.46449  -0.46363  -0.46271
 Alpha  occ. eigenvalues --   -0.46143  -0.46009  -0.45794  -0.45748  -0.45492
 Alpha  occ. eigenvalues --   -0.45165  -0.44992  -0.44533  -0.44527  -0.44307
 Alpha  occ. eigenvalues --   -0.44204  -0.44168  -0.44059  -0.43970  -0.43912
 Alpha  occ. eigenvalues --   -0.43885  -0.43728  -0.43576  -0.43456  -0.43270
 Alpha  occ. eigenvalues --   -0.43118  -0.43030  -0.42937  -0.42713  -0.42603
 Alpha  occ. eigenvalues --   -0.42561  -0.42256  -0.41976  -0.41800  -0.41697
 Alpha  occ. eigenvalues --   -0.41537  -0.41397  -0.41226  -0.41121  -0.40859
 Alpha  occ. eigenvalues --   -0.40840  -0.40623  -0.40609  -0.40507  -0.40463
 Alpha  occ. eigenvalues --   -0.40215  -0.40068  -0.40007  -0.39318  -0.39213
 Alpha  occ. eigenvalues --   -0.38395  -0.38079  -0.37808  -0.37442  -0.37300
 Alpha  occ. eigenvalues --   -0.37201  -0.37027  -0.36956  -0.36780  -0.36525
 Alpha  occ. eigenvalues --   -0.36225  -0.35854  -0.34302  -0.34145  -0.33943
 Alpha  occ. eigenvalues --   -0.33654  -0.33120  -0.32866  -0.31232  -0.31146
 Alpha  occ. eigenvalues --   -0.30977  -0.30683  -0.30093  -0.29707  -0.29311
 Alpha  occ. eigenvalues --   -0.29231  -0.29091  -0.28921  -0.24083  -0.23727
 Alpha  occ. eigenvalues --   -0.21131  -0.20813
 Alpha virt. eigenvalues --   -0.08755  -0.08515  -0.01747  -0.01397   0.00032
 Alpha virt. eigenvalues --    0.00150   0.02184   0.02492   0.03335   0.04579
 Alpha virt. eigenvalues --    0.04635   0.05001   0.05145   0.05381   0.06183

 Mulliken charges:
               1
     1  Mg   0.671525
     2  C    0.001539
     3  C   -0.091723
     4  C   -0.042665
     5  C   -0.061349
     6  N   -0.249189
     7  C   -0.058542
     8  C   -0.010900
     9  C   -0.085054
    10  C    0.048103
    11  C    0.105596
    12  C    0.040618
    13  C   -0.070715
    14  H    0.035504
    15  N   -0.423489
    16  C    0.167857
    17  C   -0.170783
    18  C    0.000954
    19  C    0.150632
    20  C    0.108654
    21  C    0.018153
    22  O   -0.250300
    23  C    0.055959
    24  N   -0.322937
    25  C    0.043578
    26  C   -0.027972
    27  C   -0.021941
    28  C    0.073222
    29  C    0.076611
    30  C    0.034923
    31  C   -0.006804
    32  N   -0.313062
    33  C    0.071826
    34  C   -0.173389
    35  C    0.013960
    36  C    0.057182
    37  C    0.128041
    38  C    0.042016
    39  O   -0.188956
    40  C   -0.005577
    41  C    0.216984
    42  O   -0.262955
    43  O   -0.302790
    44  C    0.156520
    45  H   -0.018246
    46  H   -0.017032
    47  H   -0.043055
    48  H   -0.001404
    49  H   -0.003887
    50  H    0.025962
    51  H    0.017793
    52  H    0.016704
    53  H    0.013235
    54  H    0.045068
    55  H    0.018381
    56  H    0.018639
    57  H    0.004493
    58  H    0.025767
    59  H    0.050382
    60  H    0.034638
    61  H    0.033147
    62  H    0.046188
    63  H    0.017235
    64  H    0.008954
    65  H    0.023365
    66  H    0.012301
    67  H    0.004939
    68  H    0.006335
    69  H    0.004789
    70  H    0.008383
    71  H    0.019798
    72  H    0.031727
    73  H    0.045664
    74  H    0.009699
    75  H    0.045856
    76  H    0.035209
    77  H    0.044820
    78  H    0.047663
    79  H    0.052893
    80  Mg   0.837110
    81  C   -0.017837
    82  C   -0.088482
    83  C   -0.045418
    84  C   -0.069583
    85  N   -0.254689
    86  C   -0.049588
    87  C   -0.015101
    88  C   -0.090376
    89  C    0.045374
    90  C    0.114637
    91  C    0.062628
    92  C   -0.077520
    93  H    0.034194
    94  N   -0.423109
    95  C    0.162291
    96  C   -0.175432
    97  C   -0.009533
    98  C    0.152331
    99  C    0.099549
   100  C    0.016817
   101  O   -0.259275
   102  C    0.061808
   103  N   -0.349487
   104  C    0.033964
   105  C   -0.026409
   106  C   -0.016437
   107  C    0.085044
   108  C    0.071850
   109  C    0.002063
   110  C    0.003627
   111  N   -0.324105
   112  C    0.078370
   113  C   -0.161494
   114  C    0.001742
   115  C    0.096734
   116  C    0.130183
   117  C    0.042549
   118  O   -0.187975
   119  C    0.000993
   120  C    0.211177
   121  O   -0.251436
   122  O   -0.305626
   123  C    0.152225
   124  H   -0.020915
   125  H   -0.017614
   126  H   -0.025508
   127  H   -0.001034
   128  H   -0.004988
   129  H    0.022176
   130  H    0.014262
   131  H    0.015406
   132  H    0.013937
   133  H    0.037481
   134  H    0.020581
   135  H    0.019313
   136  H    0.008416
   137  H    0.024476
   138  H    0.038978
   139  H    0.038245
   140  H    0.031830
   141  H    0.035846
   142  H    0.021360
   143  H    0.026478
   144  H    0.028080
   145  H    0.006355
   146  H    0.010455
   147  H    0.055167
   148  H    0.024140
   149  H    0.022885
   150  H    0.076121
   151  H    0.024857
   152  H    0.044830
   153  H    0.017121
   154  H    0.046979
   155  H    0.034583
   156  H    0.043600
   157  H    0.049240
   158  H    0.053247
 Sum of Mulliken charges =  -0.00000

 Dipole moment (field-independent basis, Debye):
    X=              1.1189    Y=              6.4985    Z=             -4.3424  Tot=              7.8955
 Quadrupole moment (field-independent basis, Debye-Ang):
   XX=           -457.9121   YY=           -539.6114   ZZ=           -482.8748
   XY=            -28.8192   XZ=             -2.9135   YZ=             -6.8990

 Normal termination of Gaussian 16 at Wed Sep  8 14:26:20 2021.
