 Gaussian 16, Revision A.03,
 Gaussian 16:  ES64L-G16RevA.03 25-Dec-2016

 -----------------------------------
 #p cam-b3lyp/Def2SVP td=(nstates=5)
 -----------------------------------

 --------------------------------
 TDDFT excited states in gaussian
 --------------------------------
 Symbolic Z-matrix:
 Charge =  0 Multiplicity = 1

                         Standard orientation:
 ---------------------------------------------------------------------
 Center     Atomic      Atomic             Coordinates (Angstroms)
 Number     Number       Type             X           Y           Z
 ---------------------------------------------------------------------
      1         12           0        4.259312    0.702015   -0.293834
      2          6           0        4.683062   -2.725506   -1.234445
      3          6           0        5.010470    1.525083   -3.518951
      4          6           0        4.337384    3.739480    0.614094
      5          6           0        4.662670   -0.310133    3.016532
      6          7           0        4.762875   -0.533151   -2.060592
      7          6           0        4.833023   -1.838384   -2.302702
      8          6           0        5.005941   -2.178111   -3.813350
      9          6           0        5.654115   -0.807637   -4.306978
     10          6           0        5.081090    0.125041   -3.254514
     11          6           0        7.176035   -0.783228   -4.208670
     12          6           0        3.636641   -2.452096   -4.521645
     13          6           0        3.734889   -3.105017   -5.903454
     14          1           0        2.715376   -4.065221   -6.298359
     15          7           0        4.140045    2.361219   -1.359511
     16          6           0        4.472091    2.511293   -2.664314
     17          6           0        4.205559    3.928350   -2.992326
     18          6           0        3.871703    4.633973   -1.723968
     19          6           0        4.131962    3.598899   -0.756361
     20          6           0        4.232639    4.468762   -4.389097
     21          6           0        3.403981    6.024218   -1.429713
     22          8           0        3.396191    6.502577   -0.244097
     23          6           0        3.033760    6.852500   -2.591577
     24          7           0        4.687302    1.629395    1.526723
     25          6           0        4.591634    2.956366    1.664491
     26          6           0        4.665527    3.362329    3.106598
     27          6           0        4.587930    2.009430    3.951227
     28          6           0        4.563736    0.999496    2.777465
     29          6           0        5.917945    4.149083    3.517058
     30          6           0        3.478022    1.915442    5.028115
     31          6           0        2.119945    1.880322    4.363667
     32          7           0        4.434409   -1.189853    0.755558
     33          6           0        4.617774   -1.375929    2.133392
     34          6           0        4.788530   -2.823642    2.354838
     35          6           0        4.708666   -3.381149    1.080220
     36          6           0        4.527419   -2.344692    0.120430
     37          6           0        5.044993   -3.450780    3.605981
     38          6           0        4.758931   -4.609042    0.303297
     39          8           0        4.799562   -5.808872    0.579431
     40          6           0        4.866378   -4.222813   -1.237842
     41          6           0        3.858919   -5.052867   -1.985736
     42          8           0        2.634804   -4.881279   -1.814079
     43          8           0        4.482453   -5.745617   -2.951057
     44          6           0        3.535160   -6.567906   -3.750202
     45          1           0        5.459863    1.912460   -4.435426
     46          1           0        4.261163    4.764273    0.983457
     47          1           0        4.708466   -0.708010    4.031938
     48          1           0        5.684857   -3.006086   -4.018179
     49          1           0        5.300285   -0.523782   -5.297913
     50          1           0        7.556202   -1.665396   -3.693720
     51          1           0        7.416945    0.119158   -3.646392
     52          1           0        7.625734   -0.651819   -5.193190
     53          1           0        3.178238   -1.502407   -4.797358
     54          1           0        2.986111   -3.052425   -3.884666
     55          1           0        4.731156   -3.510181   -6.082910
     56          1           0        3.618976   -2.326848   -6.657918
     57          1           0        4.669817    3.755044   -5.086252
     58          1           0        4.925360    5.310095   -4.391610
     59          1           0        3.248612    4.801791   -4.719421
     60          1           0        3.892069    6.942124   -3.257777
     61          1           0        2.639324    7.782743   -2.184248
     62          1           0        2.257663    6.338057   -3.159002
     63          1           0        3.825335    4.000731    3.376682
     64          1           0        5.509309    1.817416    4.501560
     65          1           0        5.698716    5.118444    3.965368
     66          1           0        6.550212    4.259463    2.636520
     67          1           0        6.585544    3.622543    4.198589
     68          1           0        3.497956    2.794844    5.670922
     69          1           0        3.570520    1.036278    5.665897
     70          1           0        1.905081    2.934625    4.193051
     71          1           0        1.381502    1.434371    5.030781
     72          1           0        2.166317    1.395255    3.388452
     73          1           0        4.407410   -4.334095    3.640795
     74          1           0        4.834869   -2.777586    4.436800
     75          1           0        6.107448   -3.672550    3.506669
     76          1           0        5.887981   -4.443323   -1.545777
     77          1           0        3.889343   -7.597940   -3.707567
     78          1           0        3.466724   -6.096562   -4.730792
     79          1           0        2.530061   -6.678826   -3.341778
     80         12           0       -4.703019    0.076502   -0.103745
     81          6           0       -3.279077   -0.827207    3.064035
     82          6           0       -4.293387    3.336916    0.810842
     83          6           0       -6.358714    0.903914   -2.680846
     84          6           0       -6.024457   -3.143955   -0.271716
     85          7           0       -3.880300    1.007813    1.726019
     86          6           0       -3.312242    0.564548    2.837407
     87          6           0       -2.676107    1.671520    3.720303
     88          6           0       -3.551550    2.917838    3.211206
     89          6           0       -3.906236    2.412950    1.814086
     90          6           0       -4.841217    3.106549    3.992550
     91          6           0       -1.151059    1.877538    3.414074
     92          6           0       -0.396192    2.719749    4.444912
     93          1           0        0.990561    2.374245    4.744942
     94          7           0       -4.815265    1.814787   -1.054696
     95          6           0       -4.595034    3.041376   -0.536755
     96          6           0       -4.824945    3.990055   -1.637346
     97          6           0       -5.358976    3.235211   -2.803427
     98          6           0       -5.555584    1.930112   -2.204968
     99          6           0       -4.466757    5.444956   -1.545732
    100          6           0       -5.656982    3.626875   -4.219051
    101          8           0       -6.339369    2.871006   -4.997401
    102          6           0       -5.206545    4.962024   -4.638544
    103          7           0       -6.176997   -0.892722   -1.203890
    104          6           0       -6.693404   -0.332663   -2.311854
    105          6           0       -7.529209   -1.324276   -3.085516
    106          6           0       -7.268257   -2.740755   -2.390499
    107          6           0       -6.356277   -2.288526   -1.228955
    108          6           0       -9.031388   -1.043887   -3.120505
    109          6           0       -6.779547   -3.895257   -3.307542
    110          6           0       -5.384857   -3.599790   -3.810438
    111          7           0       -4.525629   -1.739792    1.052832
    112          6           0       -5.185867   -2.966393    0.821275
    113          6           0       -4.835632   -3.867078    1.938653
    114          6           0       -4.007811   -3.088227    2.761205
    115          6           0       -3.869380   -1.787106    2.206769
    116          6           0       -5.310196   -5.197433    2.114884
    117          6           0       -3.228196   -3.067555    3.977949
    118          8           0       -2.903186   -3.907864    4.815802
    119          6           0       -2.823988   -1.563115    4.293642
    120          6           0       -1.356714   -1.535841    4.623624
    121          8           0       -0.509121   -1.821104    3.759428
    122          8           0       -1.187456   -0.970676    5.832883
    123          6           0        0.252574   -0.910945    6.199729
    124          1           0       -4.419595    4.383333    1.090079
    125          1           0       -6.864676    1.101995   -3.628604
    126          1           0       -6.317098   -4.195688   -0.301528
    127          1           0       -2.809285    1.534487    4.786729
    128          1           0       -2.952154    3.822387    3.148992
    129          1           0       -5.013807    2.297504    4.686656
    130          1           0       -5.630235    3.145354    3.252970
    131          1           0       -4.843175    4.082271    4.486811
    132          1           0       -1.046893    2.522405    2.532010
    133          1           0       -0.657110    0.933890    3.286908
    134          1           0       -0.969207    2.848542    5.371198
    135          1           0       -0.288989    3.734054    4.052848
    136          1           0       -4.247505    5.740946   -0.512431
    137          1           0       -5.366634    6.012795   -1.805814
    138          1           0       -3.662469    5.724597   -2.229538
    139          1           0       -5.659360    5.714075   -3.996811
    140          1           0       -5.430693    5.024296   -5.705203
    141          1           0       -4.123491    5.029563   -4.486756
    142          1           0       -7.209886   -1.375872   -4.119180
    143          1           0       -8.183173   -3.144722   -1.932715
    144          1           0       -9.435022   -0.955038   -4.146793
    145          1           0       -9.223222   -0.140511   -2.556908
    146          1           0       -9.649823   -1.774995   -2.602608
    147          1           0       -7.417984   -3.973301   -4.190978
    148          1           0       -6.783503   -4.864773   -2.820684
    149          1           0       -5.565407   -2.945424   -4.668517
    150          1           0       -4.884083   -4.517465   -4.112345
    151          1           0       -4.813756   -3.025099   -3.072042
    152          1           0       -4.460140   -5.793455    2.419322
    153          1           0       -5.760763   -5.582940    1.202669
    154          1           0       -6.051049   -5.037461    2.902805
    155          1           0       -3.438046   -1.227571    5.130252
    156          1           0        0.357378   -1.414746    7.165591
    157          1           0        0.527417    0.159777    6.157650
    158          1           0        0.948849   -1.475081    5.590295
 ---------------------------------------------------------------------

 SCF Done:  E(RCAM-B3LYP) =  -4069.70310725     A.U. after   19 cycles

 Excitation energies and oscillator strengths:

 Excited State   1:      Singlet-A      1.6429 eV  754.69 nm  f=0.0262  <S**2>=0.000
     310 -> 316        0.13152
     311 -> 313       -0.39958
     312 -> 314        0.56004
 This state for optimization and/or second-order correction.
 Total Energy, E(TD-HF/TD-DFT) =  -4069.64273359
 Copying the excited state density for this state as the 1-particle RhoCI density.

 Excited State   2:      Singlet-A      1.7053 eV  727.03 nm  f=0.6735  <S**2>=0.000
     309 -> 315        0.14712
     310 -> 316        0.10264
     311 -> 313        0.55689
     312 -> 314        0.39726

 Excited State   3:      Singlet-A      2.1492 eV  576.88 nm  f=0.0001  <S**2>=0.000
     312 -> 313        0.70667

 Excited State   4:      Singlet-A      2.1792 eV  568.94 nm  f=0.0453  <S**2>=0.000
     309 -> 313        0.27252
     310 -> 314        0.58567
     311 -> 315       -0.11233
     312 -> 316       -0.23623

 Excited State   5:      Singlet-A      2.1961 eV  564.56 nm  f=0.1377  <S**2>=0.000
     309 -> 313        0.57797
     310 -> 314       -0.26932
     311 -> 315       -0.25741
     312 -> 316        0.11618

 The electronic state is 1-A.
 Alpha  occ. eigenvalues --  -46.88199 -46.86895 -19.26376 -19.26293 -19.19192
 Alpha  occ. eigenvalues --  -19.19012 -19.18930 -19.18313 -19.18194 -19.17481
 Alpha  occ. eigenvalues --  -14.42823 -14.42035 -14.41531 -14.40654 -14.39798
 Alpha  occ. eigenvalues --  -14.38920 -14.38626 -14.37870 -10.39101 -10.38837
 Alpha  occ. eigenvalues --  -10.35822 -10.34885 -10.34533 -10.33655 -10.32542
 Alpha  occ. eigenvalues --  -10.31740 -10.31658 -10.31230 -10.30937 -10.30931
 Alpha  occ. eigenvalues --  -10.30903 -10.30527 -10.30340 -10.30010 -10.29976
 Alpha  occ. eigenvalues --  -10.29689 -10.29636 -10.29592 -10.29493 -10.29208
 Alpha  occ. eigenvalues --  -10.28954 -10.28936 -10.28765 -10.28695 -10.28661
 Alpha  occ. eigenvalues --  -10.28599 -10.28594 -10.28585 -10.28523 -10.28352
 Alpha  occ. eigenvalues --  -10.28105 -10.28080 -10.27958 -10.27778 -10.27748
 Alpha  occ. eigenvalues --  -10.27698 -10.27352 -10.27320 -10.26981 -10.26884
 Alpha  occ. eigenvalues --  -10.26839 -10.26816 -10.26801 -10.26797 -10.26795
 Alpha  occ. eigenvalues --  -10.26746 -10.26671 -10.26653 -10.26641 -10.26497
 Alpha  occ. eigenvalues --  -10.26459 -10.26274 -10.26046 -10.26032 -10.25668
 Alpha  occ. eigenvalues --  -10.25290 -10.25271 -10.25254 -10.25071 -10.24927
 Alpha  occ. eigenvalues --  -10.24861 -10.24270 -10.24215 -10.24074 -10.24001
 Alpha  occ. eigenvalues --  -10.19488  -3.16939  -3.15647  -1.91819  -1.91410
 Alpha  occ. eigenvalues --   -1.91248  -1.90530  -1.90115  -1.89956  -1.16643
 Alpha  occ. eigenvalues --   -1.16611  -1.08747  -1.08124  -1.07594  -1.06727
 Alpha  occ. eigenvalues --   -1.06641  -1.06459  -1.04953  -1.04298  -1.03650
 Alpha  occ. eigenvalues --   -1.03594  -1.02847  -1.02823  -1.02341  -1.01381
 Alpha  occ. eigenvalues --   -0.92519  -0.92112  -0.91290  -0.89447  -0.89300
 Alpha  occ. eigenvalues --   -0.88884  -0.88133  -0.88081  -0.87792  -0.87656
 Alpha  occ. eigenvalues --   -0.87554  -0.87171  -0.87076  -0.86524  -0.86418
 Alpha  occ. eigenvalues --   -0.85226  -0.83667  -0.83486  -0.83384  -0.83013
 Alpha  occ. eigenvalues --   -0.82439  -0.82025  -0.81788  -0.81205  -0.80856
 Alpha  occ. eigenvalues --   -0.80025  -0.79474  -0.79045  -0.77972  -0.77268
 Alpha  occ. eigenvalues --   -0.76572  -0.76423  -0.75978  -0.75647  -0.74650
 Alpha  occ. eigenvalues --   -0.74234  -0.73539  -0.72616  -0.72053  -0.71835
 Alpha  occ. eigenvalues --   -0.70823  -0.69236  -0.69207  -0.68047  -0.67774
 Alpha  occ. eigenvalues --   -0.67487  -0.66957  -0.66663  -0.65432  -0.65121
 Alpha  occ. eigenvalues --   -0.65038  -0.64854  -0.64542  -0.64050  -0.63554
 Alpha  occ. eigenvalues --   -0.63183  -0.62576  -0.61962  -0.61054  -0.60131
 Alpha  occ. eigenvalues --   -0.60024  -0.59725  -0.59595  -0.59023  -0.58612
 Alpha  occ. eigenvalues --   -0.58139  -0.58060  -0.57782  -0.57659  -0.57119
 Alpha  occ. eigenvalues --   -0.56740  -0.56638  -0.56498  -0.56117  -0.55799
 Alpha  occ. eigenvalues --   -0.55536  -0.55318  -0.55185  -0.54917  -0.54676
 Alpha  occ. eigenvalues --   -0.54163  -0.54079  -0.53815  -0.53491  -0.53296
 Alpha  occ. eigenvalues --   -0.53009  -0.52820  -0.52663  -0.52616  -0.52344
 Alpha  occ. eigenvalues --   -0.52245  -0.52100  -0.51885  -0.51842  -0.51577
 Alpha  occ. eigenvalues --   -0.51462  -0.51286  -0.50939  -0.50742  -0.50587
 Alpha  occ. eigenvalues --   -0.50134  -0.50021  -0.49846  -0.49775  -0.49426
 Alpha  occ. eigenvalues --   -0.49358  -0.49315  -0.49131  -0.48904  -0.48778
 Alpha  occ. eigenvalues --   -0.48765  -0.48620  -0.48337  -0.48205  -0.48067
 Alpha  occ. eigenvalues --   -0.47833  -0.47731  -0.47637  -0.47568  -0.47314
 Alpha  occ. eigenvalues --   -0.46938  -0.46797  -0.46699  -0.46553  -0.46384
 Alpha  occ. eigenvalues --   -0.46099  -0.45965  -0.45826  -0.45752  -0.45545
 Alpha  occ. eigenvalues --   -0.45516  -0.45168  -0.44871  -0.44811  -0.44661
 Alpha  occ. eigenvalues --   -0.44475  -0.44374  -0.44266  -0.43897  -0.43874
 Alpha  occ. eigenvalues --   -0.43791  -0.43698  -0.43664  -0.43547  -0.43294
 Alpha  occ. eigenvalues --   -0.43232  -0.43142  -0.42852  -0.42689  -0.42582
 Alpha  occ. eigenvalues --   -0.42446  -0.42314  -0.42033  -0.41908  -0.41867
 Alpha  occ. eigenvalues --   -0.41733  -0.41635  -0.41449  -0.41208  -0.41167
 Alpha  occ. eigenvalues --   -0.40995  -0.40874  -0.40384  -0.40241  -0.40048
 Alpha  occ. eigenvalues --   -0.40015  -0.39490  -0.38973  -0.38723  -0.38505
 Alpha  occ. eigenvalues --   -0.38078  -0.38021  -0.37538  -0.37462  -0.37281
 Alpha  occ. eigenvalues --   -0.37024  -0.36629  -0.36543  -0.36449  -0.36165
 Alpha  occ. eigenvalues --   -0.35531  -0.34680  -0.33868  -0.33599  -0.33560
 Alpha  occ. eigenvalues --   -0.33401  -0.32465  -0.31734  -0.31466  -0.30754
 Alpha  occ. eigenvalues --   -0.30214  -0.30170  -0.29800  -0.29567  -0.29385
 Alpha  occ. eigenvalues --   -0.28674  -0.28547  -0.26105  -0.24494  -0.23294
 Alpha  occ. eigenvalues --   -0.21564  -0.20336
 Alpha virt. eigenvalues --   -0.09148  -0.08092  -0.02244  -0.00954  -0.00377
 Alpha virt. eigenvalues --    0.00686   0.01840   0.02681   0.02846   0.04038
 Alpha virt. eigenvalues --    0.04311   0.05042   0.05416   0.05859   0.05965

 Mulliken charges:
               1
     1  Mg   0.844140
     2  C   -0.000290
     3  C   -0.091962
     4  C   -0.046198
     5  C   -0.065376
     6  N   -0.256123
     7  C   -0.051557
     8  C   -0.014201
     9  C   -0.087310
    10  C    0.046473
    11  C    0.104586
    12  C    0.053136
    13  C   -0.072458
    14  H    0.038080
    15  N   -0.433184
    16  C    0.168443
    17  C   -0.176059
    18  C   -0.003959
    19  C    0.149371
    20  C    0.109888
    21  C    0.012795
    22  O   -0.250425
    23  C    0.062276
    24  N   -0.337871
    25  C    0.038012
    26  C   -0.033257
    27  C   -0.021397
    28  C    0.061666
    29  C    0.076314
    30  C    0.055968
    31  C    0.092326
    32  N   -0.311999
    33  C    0.085369
    34  C   -0.162849
    35  C    0.010099
    36  C    0.086469
    37  C    0.126982
    38  C    0.049573
    39  O   -0.185195
    40  C   -0.006926
    41  C    0.212912
    42  O   -0.253260
    43  O   -0.305470
    44  C    0.157314
    45  H   -0.016223
    46  H   -0.017694
    47  H   -0.045056
    48  H    0.001858
    49  H   -0.002881
    50  H    0.025981
    51  H    0.015934
    52  H    0.017624
    53  H    0.011774
    54  H    0.045929
    55  H    0.017743
    56  H    0.018284
    57  H    0.006922
    58  H    0.027367
    59  H    0.040549
    60  H    0.038144
    61  H    0.035755
    62  H    0.031688
    63  H    0.017609
    64  H    0.013613
    65  H    0.025027
    66  H    0.016851
    67  H    0.006587
    68  H    0.010117
    69  H    0.010129
    70  H    0.071241
    71  H    0.071676
    72  H    0.078630
    73  H    0.053908
    74  H    0.005314
    75  H    0.046022
    76  H    0.035625
    77  H    0.043261
    78  H    0.046095
    79  H    0.055166
    80  Mg   0.835100
    81  C   -0.018990
    82  C   -0.087571
    83  C   -0.047141
    84  C   -0.066358
    85  N   -0.257276
    86  C   -0.046552
    87  C   -0.001763
    88  C   -0.085937
    89  C    0.047758
    90  C    0.115982
    91  C    0.099786
    92  C   -0.198280
    93  H   -0.050365
    94  N   -0.423028
    95  C    0.162245
    96  C   -0.175928
    97  C   -0.009804
    98  C    0.151726
    99  C    0.099884
   100  C    0.013714
   101  O   -0.255293
   102  C    0.062345
   103  N   -0.350260
   104  C    0.037035
   105  C   -0.019233
   106  C   -0.034577
   107  C    0.088991
   108  C    0.074346
   109  C    0.035202
   110  C   -0.007296
   111  N   -0.324370
   112  C    0.079453
   113  C   -0.162682
   114  C    0.001951
   115  C    0.097675
   116  C    0.131335
   117  C    0.042631
   118  O   -0.190558
   119  C    0.000402
   120  C    0.215184
   121  O   -0.250134
   122  O   -0.302185
   123  C    0.151924
   124  H   -0.020112
   125  H   -0.017874
   126  H   -0.042168
   127  H   -0.007855
   128  H   -0.000110
   129  H    0.018972
   130  H    0.009129
   131  H    0.014356
   132  H   -0.003728
   133  H   -0.000272
   134  H   -0.031351
   135  H   -0.024107
   136  H    0.010423
   137  H    0.024271
   138  H    0.036316
   139  H    0.038170
   140  H    0.033837
   141  H    0.031354
   142  H    0.012659
   143  H    0.011181
   144  H    0.023300
   145  H    0.011477
   146  H    0.004497
   147  H    0.004366
   148  H    0.003122
   149  H    0.009226
   150  H    0.016823
   151  H    0.032066
   152  H    0.046289
   153  H    0.007714
   154  H    0.045436
   155  H    0.035036
   156  H    0.043971
   157  H    0.057029
   158  H    0.052040
 Sum of Mulliken charges =  -0.00000

 Dipole moment (field-independent basis, Debye):
    X=              4.9436    Y=              5.4523    Z=             -3.0437  Tot=              7.9644
 Quadrupole moment (field-independent basis, Debye-Ang):
   XX=           -489.3831   YY=           -526.4159   ZZ=           -476.3114
   XY=             18.2873   XZ=            -10.4541   YZ=             26.1273

 Normal termination of Gaussian 16 at Thu Sep  9 19:25:07 2021.
