 Gaussian 16, Revision A.03,
 Gaussian 16:  ES64L-G16RevA.03 25-Dec-2016

 -----------------------------------
 #p cam-b3lyp/Def2SVP td=(nstates=5)
 -----------------------------------

 --------------------------------
 TDDFT excited states in gaussian
 --------------------------------
 Symbolic Z-matrix:
 Charge =  0 Multiplicity = 1

                         Standard orientation:
 ---------------------------------------------------------------------
 Center     Atomic      Atomic             Coordinates (Angstroms)
 Number     Number       Type             X           Y           Z
 ---------------------------------------------------------------------
      1         12           0        5.034961   -1.341961   -0.024768
      2          6           0        6.120295    2.016507   -0.620552
      3          6           0        6.115221   -0.962785    3.189627
      4          6           0        4.505282   -4.439141    0.403642
      5          6           0        5.099313   -1.818376   -3.476513
      6          7           0        5.978874    0.359278    1.031386
      7          6           0        6.285995    1.610966    0.705618
      8          6           0        6.729997    2.475162    1.923567
      9          6           0        7.222648    1.309344    2.893187
     10          6           0        6.363017    0.174506    2.364886
     11          6           0        8.691024    0.941265    2.706395
     12          6           0        5.539262    3.276269    2.549753
     13          6           0        5.940073    4.385739    3.526370
     14          1           0        5.151621    5.608281    3.559242
     15          7           0        4.817229   -2.386555    1.637840
     16          6           0        5.310214   -2.074789    2.860564
     17          6           0        4.877755   -3.162738    3.763905
     18          6           0        4.255294   -4.227224    2.928737
     19          6           0        4.528120   -3.732272    1.603609
     20          6           0        5.025674   -3.103234    5.253311
     21          6           0        3.538924   -5.495345    3.270521
     22          8           0        3.282485   -6.389333    2.393254
     23          6           0        3.219425   -5.706178    4.694078
     24          7           0        5.040953   -2.976554   -1.323115
     25          6           0        4.720875   -4.201521   -0.891851
     26          6           0        4.517746   -5.148017   -2.037637
     27          6           0        4.528068   -4.251369   -3.358875
     28          6           0        4.834185   -2.878843   -2.710233
     29          6           0        5.558389   -6.268182   -2.172931
     30          6           0        3.300065   -4.366583   -4.296507
     31          6           0        2.076696   -3.799222   -3.611988
     32          7           0        5.345807   -0.093574   -1.772895
     33          6           0        5.351136   -0.505930   -3.113271
     34          6           0        5.710487    0.670799   -3.925826
     35          6           0        5.906708    1.688504   -2.994366
     36          6           0        5.709697    1.173270   -1.681349
     37          6           0        5.874450    0.689091   -5.339054
     38          6           0        6.261066    3.085301   -2.801372
     39          8           0        6.446714    4.044490   -3.551695
     40          6           0        6.532707    3.323654   -1.250493
     41          6           0        5.787725    4.565942   -0.844251
     42          8           0        4.540050    4.591838   -0.842352
     43          8           0        6.646560    5.441106   -0.299246
     44          6           0        5.966682    6.684440    0.152464
     45          1           0        6.628795   -1.040361    4.149921
     46          1           0        4.217118   -5.488166    0.498228
     47          1           0        5.056525   -1.870366   -4.565972
     48          1           0        7.552068    3.161152    1.718530
     49          1           0        6.978674    1.516203    3.935016
     50          1           0        9.123798    1.452982    1.846876
     51          1           0        8.703289   -0.137970    2.552787
     52          1           0        9.254713    1.119967    3.622417
     53          1           0        4.984366    2.625663    3.225669
     54          1           0        4.903452    3.695453    1.769140
     55          1           0        7.002653    4.618429    3.450945
     56          1           0        5.816839    4.008151    4.541476
     57          1           0        5.666280   -2.277136    5.559465
     58          1           0        5.571869   -3.996753    5.554982
     59          1           0        4.061272   -3.073102    5.760609
     60          1           0        4.141915   -5.697823    5.275018
     61          1           0        2.629541   -6.621052    4.737573
     62          1           0        2.624808   -4.864707    5.050878
     63          1           0        3.558017   -5.657083   -1.958909
     64          1           0        5.376975   -4.481886   -4.002996
     65          1           0        5.127536   -7.269665   -2.162823
     66          1           0        6.288385   -6.148426   -1.372897
     67          1           0        6.192118   -6.199034   -3.056686
     68          1           0        3.088205   -5.412246   -4.517075
     69          1           0        3.433301   -3.847772   -5.245893
     70          1           0        1.727961   -4.634215   -3.005355
     71          1           0        1.326571   -3.512585   -4.349797
     72          1           0        2.340909   -2.989807   -2.931161
     73          1           0        5.383891    1.596409   -5.691324
     74          1           0        5.442270   -0.199137   -5.799353
     75          1           0        6.961372    0.712395   -5.415947
     76          1           0        7.610223    3.436178   -1.134654
     77          1           0        6.466562    7.519880   -0.337837
     78          1           0        5.970809    6.661416    1.242353
     79          1           0        4.942043    6.826280   -0.192983
     80         12           0       -5.200904    1.367112    0.204103
     81          6           0       -5.921920   -2.142396   -0.002103
     82          6           0       -4.402042    1.245540   -3.109743
     83          6           0       -4.130382    4.343448    0.454815
     84          6           0       -4.949521    0.971061    3.657461
     85          7           0       -5.202525   -0.292200   -1.258399
     86          6           0       -5.554556   -1.568906   -1.237247
     87          6           0       -5.587620   -2.250168   -2.631643
     88          6           0       -4.562249   -1.280178   -3.397557
     89          6           0       -4.753807   -0.014821   -2.563982
     90          6           0       -3.112504   -1.718684   -3.273876
     91          6           0       -7.014137   -2.208094   -3.283779
     92          6           0       -7.192503   -3.119858   -4.499759
     93          1           0       -8.487069   -3.764438   -4.702482
     94          7           0       -4.855578    2.729970   -1.196579
     95          6           0       -4.569370    2.506521   -2.496360
     96          6           0       -4.381302    3.834407   -3.100956
     97          6           0       -4.417395    4.852939   -2.016512
     98          6           0       -4.449083    3.994403   -0.849464
     99          6           0       -4.270912    4.045428   -4.583084
    100          6           0       -4.410020    6.351619   -2.027536
    101          8           0       -4.206147    7.031822   -0.960491
    102          6           0       -4.555451    6.998296   -3.339843
    103          7           0       -4.415594    2.453914    1.792974
    104          6           0       -4.076826    3.746778    1.645797
    105          6           0       -3.797852    4.393069    2.981793
    106          6           0       -4.256588    3.324823    4.079959
    107          6           0       -4.655946    2.159608    3.148202
    108          6           0       -2.344748    4.792822    3.236902
    109          6           0       -5.281368    3.805018    5.143872
    110          6           0       -6.615002    4.081686    4.487926
    111          7           0       -5.573456   -0.223077    1.618513
    112          6           0       -5.378112   -0.184307    3.016523
    113          6           0       -5.658728   -1.539611    3.533087
    114          6           0       -5.978043   -2.284505    2.387801
    115          6           0       -5.882170   -1.457222    1.236323
    116          6           0       -5.554803   -1.949911    4.892119
    117          6           0       -6.364077   -3.585195    1.889947
    118          8           0       -6.679002   -4.655483    2.408647
    119          6           0       -6.221934   -3.582937    0.306852
    120          6           0       -7.476128   -4.177353   -0.272960
    121          8           0       -8.568794   -3.597811   -0.143219
    122          8           0       -7.146974   -5.213015   -1.066328
    123          6           0       -8.356967   -5.828776   -1.673439
    124          1           0       -3.912356    1.270767   -4.083629
    125          1           0       -3.861750    5.390878    0.610371
    126          1           0       -4.988553    0.790668    4.733845
    127          1           0       -5.218891   -3.268760   -2.648423
    128          1           0       -4.872163   -1.110227   -4.425381
    129          1           0       -2.999040   -2.546972   -2.590360
    130          1           0       -2.573177   -0.853052   -2.912155
    131          1           0       -2.699817   -1.939469   -4.262448
    132          1           0       -7.161811   -1.229859   -3.759164
    133          1           0       -7.772209   -2.423724   -2.556134
    134          1           0       -6.380600   -3.851875   -4.588702
    135          1           0       -7.106367   -2.512842   -5.404254
    136          1           0       -4.111708    3.098458   -5.113464
    137          1           0       -3.350210    4.612612   -4.757617
    138          1           0       -5.114134    4.605634   -4.992735
    139          1           0       -3.752277    6.669920   -3.995247
    140          1           0       -4.616756    8.068500   -3.133057
    141          1           0       -5.492242    6.658465   -3.795431
    142          1           0       -4.382974    5.296253    3.104172
    143          1           0       -3.407525    2.969010    4.681894
    144          1           0       -2.222483    5.866846    3.472687
    145          1           0       -1.759436    4.525412    2.367163
    146          1           0       -1.845878    4.238896    4.030315
    147          1           0       -4.952486    4.747695    5.588097
    148          1           0       -5.424376    3.099232    5.955292
    149          1           0       -6.491527    5.095636    4.095815
    150          1           0       -7.418686    4.036800    5.220117
    151          1           0       -6.778886    3.415361    3.633053
    152          1           0       -6.425835   -2.556440    5.101705
    153          1           0       -5.494299   -1.094763    5.562082
    154          1           0       -4.616555   -2.509924    4.855573
    155          1           0       -5.337196   -4.169594    0.056535
    156          1           0       -8.338892   -6.891796   -1.413938
    157          1           0       -8.315360   -5.571972   -2.748645
    158          1           0       -9.321862   -5.531344   -1.279793
 ---------------------------------------------------------------------

 SCF Done:  E(RCAM-B3LYP) =  -4069.81168991     A.U. after   19 cycles

 Excitation energies and oscillator strengths:

 Excited State   1:      Singlet-A      1.6577 eV  747.92 nm  f=0.0144  <S**2>=0.000
     309 -> 315        0.11312
     310 -> 316        0.12633
     311 -> 313        0.45716
     312 -> 314        0.51293
 This state for optimization and/or second-order correction.
 Total Energy, E(TD-HF/TD-DFT) =  -4069.75076985
 Copying the excited state density for this state as the 1-particle RhoCI density.

 Excited State   2:      Singlet-A      1.6972 eV  730.53 nm  f=0.7045  <S**2>=0.000
     309 -> 315        0.13435
     310 -> 316       -0.11934
     311 -> 313        0.51109
     312 -> 314       -0.45559

 Excited State   3:      Singlet-A      2.1846 eV  567.54 nm  f=0.0213  <S**2>=0.000
     309 -> 313        0.29166
     310 -> 314        0.57411
     311 -> 315       -0.12206
     312 -> 316       -0.24170

 Excited State   4:      Singlet-A      2.1953 eV  564.77 nm  f=0.1607  <S**2>=0.000
     309 -> 313        0.57063
     310 -> 314       -0.28867
     311 -> 315       -0.25006
     312 -> 316        0.12734

 Excited State   5:      Singlet-A      2.4860 eV  498.73 nm  f=0.0000  <S**2>=0.000
     312 -> 313        0.70710

 The electronic state is 1-A.
 Alpha  occ. eigenvalues --  -46.87878 -46.87493 -19.26322 -19.26229 -19.19065
 Alpha  occ. eigenvalues --  -19.19035 -19.18844 -19.18511 -19.18247 -19.17897
 Alpha  occ. eigenvalues --  -14.42528 -14.42332 -14.41537 -14.41196 -14.39479
 Alpha  occ. eigenvalues --  -14.39177 -14.38672 -14.38438 -10.39127 -10.38962
 Alpha  occ. eigenvalues --  -10.35474 -10.35185 -10.34466 -10.34076 -10.31698
 Alpha  occ. eigenvalues --  -10.31653 -10.31488 -10.31155 -10.30974 -10.30846
 Alpha  occ. eigenvalues --  -10.30657 -10.30591 -10.30294 -10.30234 -10.30203
 Alpha  occ. eigenvalues --  -10.30015 -10.29972 -10.29742 -10.29709 -10.29331
 Alpha  occ. eigenvalues --  -10.29257 -10.29235 -10.28809 -10.28585 -10.28571
 Alpha  occ. eigenvalues --  -10.28548 -10.28437 -10.28229 -10.28182 -10.27990
 Alpha  occ. eigenvalues --  -10.27873 -10.27832 -10.27806 -10.27655 -10.27626
 Alpha  occ. eigenvalues --  -10.27556 -10.27531 -10.27497 -10.27478 -10.27395
 Alpha  occ. eigenvalues --  -10.27318 -10.27287 -10.27238 -10.27234 -10.27223
 Alpha  occ. eigenvalues --  -10.26898 -10.26760 -10.26564 -10.26399 -10.26366
 Alpha  occ. eigenvalues --  -10.26294 -10.26187 -10.26116 -10.26050 -10.25969
 Alpha  occ. eigenvalues --  -10.25864 -10.25784 -10.25755 -10.25522 -10.25231
 Alpha  occ. eigenvalues --  -10.24918 -10.24913 -10.24868 -10.24708 -10.24642
 Alpha  occ. eigenvalues --  -10.24517  -3.16621  -3.16243  -1.91503  -1.91125
 Alpha  occ. eigenvalues --   -1.91089  -1.90931  -1.90714  -1.90550  -1.16673
 Alpha  occ. eigenvalues --   -1.16521  -1.08704  -1.08508  -1.07242  -1.06819
 Alpha  occ. eigenvalues --   -1.06759  -1.06688  -1.04657  -1.04329  -1.03844
 Alpha  occ. eigenvalues --   -1.03496  -1.03316  -1.02874  -1.02494  -1.01945
 Alpha  occ. eigenvalues --   -0.92048  -0.91826  -0.89633  -0.89351  -0.89254
 Alpha  occ. eigenvalues --   -0.89002  -0.88395  -0.88077  -0.87965  -0.87751
 Alpha  occ. eigenvalues --   -0.87652  -0.87524  -0.87329  -0.86923  -0.85049
 Alpha  occ. eigenvalues --   -0.84848  -0.84057  -0.83740  -0.83020  -0.82744
 Alpha  occ. eigenvalues --   -0.82708  -0.82488  -0.81650  -0.81458  -0.80663
 Alpha  occ. eigenvalues --   -0.80287  -0.78867  -0.78459  -0.77309  -0.77008
 Alpha  occ. eigenvalues --   -0.76993  -0.76759  -0.75991  -0.75687  -0.74992
 Alpha  occ. eigenvalues --   -0.74651  -0.72863  -0.72543  -0.71750  -0.71422
 Alpha  occ. eigenvalues --   -0.70048  -0.69634  -0.68940  -0.68674  -0.67712
 Alpha  occ. eigenvalues --   -0.67441  -0.67274  -0.67041  -0.65358  -0.65123
 Alpha  occ. eigenvalues --   -0.64933  -0.64700  -0.64618  -0.64506  -0.64373
 Alpha  occ. eigenvalues --   -0.64062  -0.62361  -0.62141  -0.60510  -0.60159
 Alpha  occ. eigenvalues --   -0.59875  -0.59642  -0.59070  -0.58836  -0.58583
 Alpha  occ. eigenvalues --   -0.58270  -0.57653  -0.57410  -0.57390  -0.57079
 Alpha  occ. eigenvalues --   -0.56386  -0.56047  -0.56030  -0.55746  -0.55581
 Alpha  occ. eigenvalues --   -0.55436  -0.55285  -0.55112  -0.54611  -0.54356
 Alpha  occ. eigenvalues --   -0.53959  -0.53764  -0.53377  -0.53276  -0.53072
 Alpha  occ. eigenvalues --   -0.52988  -0.52979  -0.52806  -0.52755  -0.52583
 Alpha  occ. eigenvalues --   -0.52471  -0.52288  -0.52019  -0.51765  -0.51673
 Alpha  occ. eigenvalues --   -0.51498  -0.51284  -0.51057  -0.50615  -0.50275
 Alpha  occ. eigenvalues --   -0.50143  -0.49972  -0.49813  -0.49710  -0.49570
 Alpha  occ. eigenvalues --   -0.49316  -0.49284  -0.49163  -0.49039  -0.48957
 Alpha  occ. eigenvalues --   -0.48666  -0.48548  -0.48491  -0.48411  -0.48231
 Alpha  occ. eigenvalues --   -0.48151  -0.47766  -0.47432  -0.47365  -0.46945
 Alpha  occ. eigenvalues --   -0.46891  -0.46617  -0.46563  -0.46444  -0.46403
 Alpha  occ. eigenvalues --   -0.46249  -0.46110  -0.45942  -0.45903  -0.45691
 Alpha  occ. eigenvalues --   -0.45299  -0.45048  -0.44659  -0.44573  -0.44372
 Alpha  occ. eigenvalues --   -0.44326  -0.44241  -0.44154  -0.44077  -0.43975
 Alpha  occ. eigenvalues --   -0.43925  -0.43763  -0.43566  -0.43464  -0.43421
 Alpha  occ. eigenvalues --   -0.43234  -0.43110  -0.42803  -0.42793  -0.42755
 Alpha  occ. eigenvalues --   -0.42728  -0.42405  -0.42118  -0.41831  -0.41783
 Alpha  occ. eigenvalues --   -0.41604  -0.41515  -0.41314  -0.41216  -0.40958
 Alpha  occ. eigenvalues --   -0.40860  -0.40832  -0.40673  -0.40573  -0.40522
 Alpha  occ. eigenvalues --   -0.40354  -0.40288  -0.40077  -0.39594  -0.39306
 Alpha  occ. eigenvalues --   -0.38572  -0.38209  -0.37812  -0.37515  -0.37420
 Alpha  occ. eigenvalues --   -0.37331  -0.37120  -0.37043  -0.36779  -0.36643
 Alpha  occ. eigenvalues --   -0.36270  -0.36073  -0.34369  -0.34094  -0.33822
 Alpha  occ. eigenvalues --   -0.33728  -0.33266  -0.33012  -0.31376  -0.31111
 Alpha  occ. eigenvalues --   -0.31073  -0.30806  -0.30107  -0.29805  -0.29519
 Alpha  occ. eigenvalues --   -0.29403  -0.29146  -0.29046  -0.24162  -0.23870
 Alpha  occ. eigenvalues --   -0.21211  -0.20950
 Alpha virt. eigenvalues --   -0.08851  -0.08619  -0.01829  -0.01515  -0.00114
 Alpha virt. eigenvalues --    0.00158   0.02119   0.02362   0.03013   0.03381
 Alpha virt. eigenvalues --    0.04644   0.04882   0.05047   0.05297   0.06122

 Mulliken charges:
               1
     1  Mg   0.838564
     2  C   -0.002763
     3  C   -0.094065
     4  C   -0.045834
     5  C   -0.064429
     6  N   -0.256773
     7  C   -0.052505
     8  C   -0.013991
     9  C   -0.087017
    10  C    0.046414
    11  C    0.104764
    12  C    0.053466
    13  C   -0.071994
    14  H    0.036560
    15  N   -0.433251
    16  C    0.168599
    17  C   -0.176929
    18  C   -0.003635
    19  C    0.148863
    20  C    0.110158
    21  C    0.012765
    22  O   -0.249049
    23  C    0.062282
    24  N   -0.341023
    25  C    0.041191
    26  C   -0.028369
    27  C   -0.023709
    28  C    0.074467
    29  C    0.076051
    30  C    0.035287
    31  C   -0.004580
    32  N   -0.310298
    33  C    0.079995
    34  C   -0.170586
    35  C    0.008294
    36  C    0.082728
    37  C    0.127511
    38  C    0.045864
    39  O   -0.188670
    40  C   -0.005201
    41  C    0.212760
    42  O   -0.256921
    43  O   -0.304880
    44  C    0.157458
    45  H   -0.017302
    46  H   -0.016487
    47  H   -0.042218
    48  H    0.001078
    49  H   -0.003934
    50  H    0.025557
    51  H    0.016471
    52  H    0.016878
    53  H    0.010917
    54  H    0.044350
    55  H    0.017995
    56  H    0.017799
    57  H    0.005877
    58  H    0.027237
    59  H    0.039883
    60  H    0.037231
    61  H    0.036872
    62  H    0.031718
    63  H    0.016611
    64  H    0.009562
    65  H    0.023550
    66  H    0.012891
    67  H    0.004744
    68  H    0.006500
    69  H    0.004070
    70  H    0.009380
    71  H    0.015376
    72  H    0.029413
    73  H    0.046739
    74  H    0.008331
    75  H    0.046249
    76  H    0.035256
    77  H    0.043022
    78  H    0.046483
    79  H    0.054312
    80  Mg   0.838027
    81  C   -0.016766
    82  C   -0.087211
    83  C   -0.044177
    84  C   -0.065318
    85  N   -0.254539
    86  C   -0.050046
    87  C   -0.015056
    88  C   -0.090636
    89  C    0.045750
    90  C    0.114024
    91  C    0.062604
    92  C   -0.077643
    93  H    0.034431
    94  N   -0.423901
    95  C    0.163182
    96  C   -0.172921
    97  C   -0.006841
    98  C    0.152481
    99  C    0.098627
   100  C    0.016503
   101  O   -0.253053
   102  C    0.060981
   103  N   -0.349921
   104  C    0.037864
   105  C   -0.020014
   106  C   -0.034359
   107  C    0.088687
   108  C    0.073255
   109  C    0.034936
   110  C   -0.007563
   111  N   -0.323920
   112  C    0.078166
   113  C   -0.163826
   114  C    0.002178
   115  C    0.095862
   116  C    0.131537
   117  C    0.042154
   118  O   -0.188535
   119  C    0.000899
   120  C    0.211130
   121  O   -0.251277
   122  O   -0.305519
   123  C    0.152173
   124  H   -0.018919
   125  H   -0.015139
   126  H   -0.041581
   127  H   -0.000847
   128  H   -0.004650
   129  H    0.022863
   130  H    0.015910
   131  H    0.015275
   132  H    0.013866
   133  H    0.037546
   134  H    0.020502
   135  H    0.019447
   136  H    0.008692
   137  H    0.028672
   138  H    0.039380
   139  H    0.039821
   140  H    0.036160
   141  H    0.033197
   142  H    0.014045
   143  H    0.011284
   144  H    0.024507
   145  H    0.014896
   146  H    0.004251
   147  H    0.005619
   148  H    0.002888
   149  H    0.010915
   150  H    0.017406
   151  H    0.030459
   152  H    0.045594
   153  H    0.007747
   154  H    0.046032
   155  H    0.035392
   156  H    0.043719
   157  H    0.049323
   158  H    0.053341
 Sum of Mulliken charges =  -0.00000

 Dipole moment (field-independent basis, Debye):
    X=              4.2139    Y=             -0.1821    Z=              0.2630  Tot=              4.2260
 Quadrupole moment (field-independent basis, Debye-Ang):
   XX=           -525.0759   YY=           -545.3696   ZZ=           -449.3599
   XY=            -20.9514   XZ=             55.7949   YZ=             39.4596

 Normal termination of Gaussian 16 at Fri Sep 10 12:51:00 2021.
