 Gaussian 16, Revision A.03,
 Gaussian 16:  ES64L-G16RevA.03 25-Dec-2016

 -----------------------------------
 #p cam-b3lyp/Def2SVP td=(nstates=5)
 -----------------------------------

 --------------------------------
 TDDFT excited states in gaussian
 --------------------------------
 Symbolic Z-matrix:
 Charge =  0 Multiplicity = 1

                         Standard orientation:
 ---------------------------------------------------------------------
 Center     Atomic      Atomic             Coordinates (Angstroms)
 Number     Number       Type             X           Y           Z
 ---------------------------------------------------------------------
      1         12           0        3.864540   -0.552982    1.173667
      2          6           0        4.654975    2.277091   -0.870376
      3          6           0        3.886700    1.562184    3.851099
      4          6           0        3.617735   -3.098555    3.048705
      5          6           0        5.008700   -2.567166   -1.430104
      6          7           0        4.235122    1.623076    1.341251
      7          6           0        4.468287    2.603784    0.474639
      8          6           0        4.420679    4.021650    1.118660
      9          6           0        4.743171    3.623330    2.628407
     10          6           0        4.225889    2.195657    2.618746
     11          6           0        6.234471    3.603268    2.947977
     12          6           0        3.008481    4.685734    0.990519
     13          6           0        2.961356    6.185361    1.297523
     14          1           0        2.054222    7.028413    0.533506
     15          7           0        3.293712   -0.705112    3.058836
     16          6           0        3.359194    0.261874    4.005375
     17          6           0        2.815727   -0.340494    5.241691
     18          6           0        2.605433   -1.792559    4.986004
     19          6           0        3.196046   -1.930361    3.679266
     20          6           0        2.506407    0.450742    6.475392
     21          6           0        1.982005   -2.885034    5.795923
     22          8           0        2.109784   -4.118890    5.486335
     23          6           0        1.282947   -2.473263    7.026697
     24          7           0        4.457128   -2.542350    0.952554
     25          6           0        4.177089   -3.454079    1.890270
     26          6           0        4.441521   -4.845197    1.395489
     27          6           0        4.732868   -4.710142   -0.168681
     28          6           0        4.660977   -3.167927   -0.289822
     29          6           0        5.605238   -5.585278    2.069323
     30          6           0        3.862513   -5.566287   -1.122577
     31          6           0        2.430922   -5.080156   -1.086212
     32          7           0        4.523793   -0.245399   -0.871284
     33          6           0        4.977511   -1.224296   -1.767150
     34          6           0        5.413854   -0.523071   -2.988607
     35          6           0        5.197712    0.825150   -2.710349
     36          6           0        4.684987    0.959675   -1.388491
     37          6           0        5.986307   -1.132385   -4.139896
     38          6           0        5.303746    2.185211   -3.213188
     39          8           0        5.583958    2.687631   -4.302476
     40          6           0        5.071283    3.188135   -1.998308
     41          6           0        4.092063    4.235254   -2.454356
     42          8           0        2.906828    3.936435   -2.705930
     43          8           0        4.635657    5.451672   -2.295064
     44          6           0        3.704464    6.537911   -2.701412
     45          1           0        4.097578    2.082360    4.787522
     46          1           0        3.446145   -4.012620    3.620963
     47          1           0        5.297942   -3.136211   -2.315530
     48          1           0        5.175398    4.715107    0.747255
     49          1           0        4.177420    4.226564    3.338165
     50          1           0        6.836287    3.740573    2.049709
     51          1           0        6.424760    2.624020    3.387700
     52          1           0        6.474343    4.331535    3.723131
     53          1           0        2.362642    4.313203    1.785613
     54          1           0        2.586398    4.506871    0.000984
     55          1           0        3.961252    6.619792    1.317166
     56          1           0        2.589939    6.314347    2.314190
     57          1           0        2.920291    1.456822    6.420176
     58          1           0        3.044270   -0.019449    7.298395
     59          1           0        1.438890    0.467029    6.695560
     60          1           0        1.983041   -1.954293    7.681744
     61          1           0        0.824265   -3.376096    7.428385
     62          1           0        0.510215   -1.748658    6.768273
     63          1           0        3.572119   -5.484577    1.542997
     64          1           0        5.756336   -4.989716   -0.419728
     65          1           0        5.317740   -6.535906    2.519165
     66          1           0        6.044288   -4.918590    2.810979
     67          1           0        6.459115   -5.780756    1.421172
     68          1           0        3.856301   -6.606594   -0.799053
     69          1           0        4.206480   -5.542612   -2.156684
     70          1           0        2.023607   -5.587712   -0.212534
     71          1           0        1.904230   -5.380030   -1.992789
     72          1           0        2.379237   -4.008313   -0.893940
     73          1           0        5.514444   -0.660102   -5.001443
     74          1           0        5.823203   -2.209882   -4.140099
     75          1           0        7.035510   -0.868908   -4.007201
     76          1           0        6.043375    3.615372   -1.754120
     77          1           0        4.220322    7.139701   -3.449725
     78          1           0        3.387733    7.033951   -1.783789
     79          1           0        2.819224    6.230391   -3.259194
     80         12           0       -3.695059   -0.726196   -1.214234
     81          6           0       -5.374477    1.586735    0.955784
     82          6           0       -3.267132    1.861427   -3.394986
     83          6           0       -2.615331   -2.823518   -3.336235
     84          6           0       -5.232009   -3.297894    0.566188
     85          7           0       -4.287872    1.402590   -1.118925
     86          6           0       -4.867063    2.181842   -0.218010
     87          6           0       -4.833153    3.695611   -0.559953
     88          6           0       -4.681253    3.578635   -2.154350
     89          6           0       -4.004332    2.211950   -2.235776
     90          6           0       -6.013172    3.496009   -2.881345
     91          6           0       -3.601899    4.426036    0.082302
     92          6           0       -3.671554    5.954361    0.048819
     93          1           0       -3.116447    6.701240    1.174213
     94          7           0       -2.613438   -0.451796   -2.855379
     95          6           0       -2.539275    0.669253   -3.603068
     96          6           0       -1.625743    0.353485   -4.712077
     97          6           0       -1.295895   -1.096353   -4.649786
     98          6           0       -2.198236   -1.527150   -3.600844
     99          6           0       -1.092085    1.397725   -5.649201
    100          6           0       -0.337315   -1.955657   -5.417201
    101          8           0       -0.386027   -3.235191   -5.360322
    102          6           0        0.599441   -1.257223   -6.309490
    103          7           0       -4.056275   -2.753144   -1.502913
    104          6           0       -3.417046   -3.438873   -2.466799
    105          6           0       -3.626165   -4.926017   -2.308439
    106          6           0       -4.342875   -5.110518   -0.890737
    107          6           0       -4.511931   -3.626517   -0.497603
    108          6           0       -4.465522   -5.599098   -3.394173
    109          6           0       -3.661657   -6.070631    0.122585
    110          6           0       -2.343678   -5.488064    0.579659
    111          7           0       -4.907756   -0.875614    0.567651
    112          6           0       -5.467652   -2.047193    1.122612
    113          6           0       -6.305955   -1.630055    2.265275
    114          6           0       -6.193046   -0.231680    2.281798
    115          6           0       -5.360491    0.194245    1.211788
    116          6           0       -7.077296   -2.495766    3.090933
    117          6           0       -6.597399    0.981773    2.954663
    118          8           0       -7.229836    1.237958    3.978439
    119          6           0       -6.187246    2.222254    2.049467
    120          6           0       -5.507187    3.234840    2.929647
    121          8           0       -4.415293    2.974886    3.465187
    122          8           0       -6.145824    4.413981    2.819562
    123          6           0       -5.501529    5.453499    3.665806
    124          1           0       -3.280128    2.544868   -4.244472
    125          1           0       -2.181546   -3.597706   -3.973365
    126          1           0       -5.665661   -4.047301    1.231775
    127          1           0       -5.737583    4.237834   -0.311408
    128          1           0       -4.026460    4.352440   -2.546575
    129          1           0       -6.842278    3.410348   -2.194767
    130          1           0       -5.950816    2.617900   -3.510689
    131          1           0       -6.125378    4.346115   -3.560370
    132          1           0       -2.719640    4.264259   -0.550298
    133          1           0       -3.444673    4.093464    1.089924
    134          1           0       -4.678375    6.315893   -0.193159
    135          1           0       -3.052569    6.311921   -0.777636
    136          1           0       -1.639711    2.343254   -5.551801
    137          1           0       -1.314965    1.058311   -6.666541
    138          1           0       -0.013544    1.539142   -5.552137
    139          1           0        0.039044   -0.675089   -7.037177
    140          1           0        1.261554   -2.031482   -6.701928
    141          1           0        1.181346   -0.543157   -5.716096
    142          1           0       -2.678591   -5.450417   -2.294066
    143          1           0       -5.356219   -5.524779   -0.997307
    144          1           0       -3.938328   -6.428807   -3.901844
    145          1           0       -4.766132   -4.845272   -4.109649
    146          1           0       -5.422934   -5.994419   -3.059085
    147          1           0       -3.429622   -7.024771   -0.356924
    148          1           0       -4.274401   -6.287365    0.991236
    149          1           0       -1.654389   -5.781456   -0.217772
    150          1           0       -2.046700   -5.915572    1.535211
    151          1           0       -2.382023   -4.392646    0.595746
    152          1           0       -6.925527   -2.169748    4.111312
    153          1           0       -6.786543   -3.535692    2.957600
    154          1           0       -8.078867   -2.296292    2.700623
    155          1           0       -7.099967    2.616727    1.601247
    156          1           0       -6.278446    5.858059    4.321851
    157          1           0       -5.021095    6.157342    2.960441
    158          1           0       -4.764171    5.124919    4.388846
 ---------------------------------------------------------------------

 SCF Done:  E(RCAM-B3LYP) =  -4069.81349109     A.U. after   18 cycles

 Excitation energies and oscillator strengths:

 Excited State   1:      Singlet-A      1.6374 eV  757.20 nm  f=0.0228  <S**2>=0.000
     309 -> 315        0.11416
     310 -> 316        0.11828
     311 -> 313       -0.47640
     312 -> 314        0.49683
 This state for optimization and/or second-order correction.
 Total Energy, E(TD-HF/TD-DFT) =  -4069.75331787
 Copying the excited state density for this state as the 1-particle RhoCI density.

 Excited State   2:      Singlet-A      1.7115 eV  724.40 nm  f=0.6659  <S**2>=0.000
     309 -> 315       -0.13279
     310 -> 316        0.12643
     311 -> 313        0.49345
     312 -> 314        0.47335

 Excited State   3:      Singlet-A      2.1839 eV  567.71 nm  f=0.0048  <S**2>=0.000
     309 -> 313        0.39883
     310 -> 314        0.50678
     311 -> 315        0.16611
     312 -> 316       -0.21167

 Excited State   4:      Singlet-A      2.1988 eV  563.87 nm  f=0.1657  <S**2>=0.000
     309 -> 313        0.50202
     310 -> 314       -0.39406
     311 -> 315        0.22258
     312 -> 316        0.17472

 Excited State   5:      Singlet-A      2.3465 eV  528.37 nm  f=0.0000  <S**2>=0.000
     312 -> 313        0.70703

 The electronic state is 1-A.
 Alpha  occ. eigenvalues --  -46.87698 -46.87399 -19.26480 -19.26311 -19.19231
 Alpha  occ. eigenvalues --  -19.19110 -19.18654 -19.18393 -19.18211 -19.17852
 Alpha  occ. eigenvalues --  -14.42357 -14.42234 -14.41338 -14.41101 -14.39295
 Alpha  occ. eigenvalues --  -14.39071 -14.38509 -14.38345 -10.39265 -10.39025
 Alpha  occ. eigenvalues --  -10.35279 -10.35057 -10.34436 -10.34038 -10.31921
 Alpha  occ. eigenvalues --  -10.31777 -10.31343 -10.31064 -10.30817 -10.30736
 Alpha  occ. eigenvalues --  -10.30495 -10.30422 -10.30154 -10.30094 -10.30050
 Alpha  occ. eigenvalues --  -10.29845 -10.29834 -10.29683 -10.29537 -10.29128
 Alpha  occ. eigenvalues --  -10.29122 -10.29110 -10.28709 -10.28571 -10.28546
 Alpha  occ. eigenvalues --  -10.28501 -10.28286 -10.28124 -10.28057 -10.27902
 Alpha  occ. eigenvalues --  -10.27719 -10.27714 -10.27624 -10.27469 -10.27377
 Alpha  occ. eigenvalues --  -10.27337 -10.27317 -10.27307 -10.27293 -10.27245
 Alpha  occ. eigenvalues --  -10.27234 -10.27208 -10.27184 -10.27145 -10.26884
 Alpha  occ. eigenvalues --  -10.26819 -10.26688 -10.26495 -10.26182 -10.26146
 Alpha  occ. eigenvalues --  -10.25919 -10.25916 -10.25914 -10.25887 -10.25833
 Alpha  occ. eigenvalues --  -10.25818 -10.25664 -10.25652 -10.25318 -10.25238
 Alpha  occ. eigenvalues --  -10.24784 -10.24691 -10.24608 -10.24479 -10.24447
 Alpha  occ. eigenvalues --  -10.24321  -3.16440  -3.16149  -1.91322  -1.91032
 Alpha  occ. eigenvalues --   -1.90908  -1.90751  -1.90620  -1.90457  -1.16828
 Alpha  occ. eigenvalues --   -1.16600  -1.08693  -1.08481  -1.07052  -1.06889
 Alpha  occ. eigenvalues --   -1.06845  -1.06650  -1.04495  -1.04231  -1.03656
 Alpha  occ. eigenvalues --   -1.03400  -1.03138  -1.02775  -1.02317  -1.01848
 Alpha  occ. eigenvalues --   -0.91931  -0.91753  -0.89375  -0.89250  -0.89133
 Alpha  occ. eigenvalues --   -0.88925  -0.88143  -0.87993  -0.87819  -0.87580
 Alpha  occ. eigenvalues --   -0.87551  -0.87419  -0.87114  -0.86711  -0.84922
 Alpha  occ. eigenvalues --   -0.84770  -0.83792  -0.83661  -0.82784  -0.82600
 Alpha  occ. eigenvalues --   -0.82568  -0.82349  -0.81616  -0.81436  -0.80543
 Alpha  occ. eigenvalues --   -0.80216  -0.78672  -0.78290  -0.77117  -0.76900
 Alpha  occ. eigenvalues --   -0.76880  -0.76711  -0.75891  -0.75613  -0.74788
 Alpha  occ. eigenvalues --   -0.74583  -0.72685  -0.72435  -0.71598  -0.71351
 Alpha  occ. eigenvalues --   -0.69704  -0.69523  -0.68804  -0.68587  -0.67568
 Alpha  occ. eigenvalues --   -0.67356  -0.67144  -0.66936  -0.65242  -0.65052
 Alpha  occ. eigenvalues --   -0.64814  -0.64550  -0.64549  -0.64437  -0.64133
 Alpha  occ. eigenvalues --   -0.63973  -0.62342  -0.62130  -0.60298  -0.60006
 Alpha  occ. eigenvalues --   -0.59741  -0.59553  -0.58914  -0.58756  -0.58439
 Alpha  occ. eigenvalues --   -0.58192  -0.57638  -0.57393  -0.57209  -0.56977
 Alpha  occ. eigenvalues --   -0.56263  -0.56031  -0.55953  -0.55715  -0.55424
 Alpha  occ. eigenvalues --   -0.55278  -0.55189  -0.55045  -0.54487  -0.54318
 Alpha  occ. eigenvalues --   -0.53847  -0.53690  -0.53208  -0.53142  -0.52981
 Alpha  occ. eigenvalues --   -0.52896  -0.52889  -0.52687  -0.52605  -0.52265
 Alpha  occ. eigenvalues --   -0.52216  -0.52167  -0.51894  -0.51674  -0.51548
 Alpha  occ. eigenvalues --   -0.51388  -0.51143  -0.50985  -0.50353  -0.50045
 Alpha  occ. eigenvalues --   -0.49869  -0.49782  -0.49655  -0.49588  -0.49437
 Alpha  occ. eigenvalues --   -0.49203  -0.49159  -0.49060  -0.48924  -0.48892
 Alpha  occ. eigenvalues --   -0.48592  -0.48401  -0.48353  -0.48307  -0.48181
 Alpha  occ. eigenvalues --   -0.48010  -0.47599  -0.47319  -0.47190  -0.46810
 Alpha  occ. eigenvalues --   -0.46699  -0.46510  -0.46473  -0.46317  -0.46280
 Alpha  occ. eigenvalues --   -0.46094  -0.46001  -0.45866  -0.45839  -0.45651
 Alpha  occ. eigenvalues --   -0.45073  -0.44986  -0.44574  -0.44382  -0.44314
 Alpha  occ. eigenvalues --   -0.44237  -0.44096  -0.43976  -0.43918  -0.43908
 Alpha  occ. eigenvalues --   -0.43831  -0.43606  -0.43514  -0.43404  -0.43299
 Alpha  occ. eigenvalues --   -0.43164  -0.42961  -0.42814  -0.42798  -0.42673
 Alpha  occ. eigenvalues --   -0.42487  -0.42287  -0.41888  -0.41740  -0.41644
 Alpha  occ. eigenvalues --   -0.41464  -0.41448  -0.41236  -0.41069  -0.40782
 Alpha  occ. eigenvalues --   -0.40759  -0.40675  -0.40489  -0.40427  -0.40403
 Alpha  occ. eigenvalues --   -0.40276  -0.40180  -0.39986  -0.39259  -0.39150
 Alpha  occ. eigenvalues --   -0.38336  -0.38135  -0.37718  -0.37465  -0.37214
 Alpha  occ. eigenvalues --   -0.37191  -0.37030  -0.36954  -0.36821  -0.36681
 Alpha  occ. eigenvalues --   -0.36141  -0.36016  -0.34208  -0.34011  -0.33932
 Alpha  occ. eigenvalues --   -0.33771  -0.33104  -0.32914  -0.31190  -0.30963
 Alpha  occ. eigenvalues --   -0.30950  -0.30718  -0.30079  -0.29768  -0.29360
 Alpha  occ. eigenvalues --   -0.29244  -0.29030  -0.28928  -0.23991  -0.23779
 Alpha  occ. eigenvalues --   -0.21029  -0.20839
 Alpha virt. eigenvalues --   -0.08677  -0.08504  -0.01640  -0.01420   0.00054
 Alpha virt. eigenvalues --    0.00286   0.02212   0.02336   0.02466   0.04386
 Alpha virt. eigenvalues --    0.04780   0.04940   0.04958   0.05251   0.06093

 Mulliken charges:
               1
     1  Mg   0.839068
     2  C   -0.003613
     3  C   -0.092591
     4  C   -0.045694
     5  C   -0.062349
     6  N   -0.256965
     7  C   -0.052772
     8  C   -0.014288
     9  C   -0.087295
    10  C    0.046823
    11  C    0.104777
    12  C    0.052959
    13  C   -0.071117
    14  H    0.033111
    15  N   -0.433542
    16  C    0.169678
    17  C   -0.175207
    18  C   -0.003028
    19  C    0.149071
    20  C    0.109812
    21  C    0.013177
    22  O   -0.250118
    23  C    0.061457
    24  N   -0.341303
    25  C    0.041912
    26  C   -0.028232
    27  C   -0.023971
    28  C    0.074634
    29  C    0.076325
    30  C    0.034985
    31  C   -0.007552
    32  N   -0.309906
    33  C    0.079871
    34  C   -0.172217
    35  C    0.006057
    36  C    0.082249
    37  C    0.127870
    38  C    0.043172
    39  O   -0.191314
    40  C   -0.004517
    41  C    0.212771
    42  O   -0.260492
    43  O   -0.303813
    44  C    0.158578
    45  H   -0.017311
    46  H   -0.016730
    47  H   -0.040892
    48  H    0.000162
    49  H   -0.003290
    50  H    0.025124
    51  H    0.016706
    52  H    0.016706
    53  H    0.014043
    54  H    0.042171
    55  H    0.017727
    56  H    0.019240
    57  H    0.005983
    58  H    0.026420
    59  H    0.044159
    60  H    0.036968
    61  H    0.035502
    62  H    0.035552
    63  H    0.016741
    64  H    0.008960
    65  H    0.022937
    66  H    0.012250
    67  H    0.004686
    68  H    0.005063
    69  H    0.006134
    70  H    0.007603
    71  H    0.025862
    72  H    0.028772
    73  H    0.043997
    74  H    0.010808
    75  H    0.045886
    76  H    0.035260
    77  H    0.042852
    78  H    0.047112
    79  H    0.050539
    80  Mg   0.836766
    81  C   -0.017253
    82  C   -0.083322
    83  C   -0.046196
    84  C   -0.064818
    85  N   -0.254585
    86  C   -0.050725
    87  C   -0.015177
    88  C   -0.090930
    89  C    0.045746
    90  C    0.114402
    91  C    0.061332
    92  C   -0.076842
    93  H    0.031157
    94  N   -0.424246
    95  C    0.164676
    96  C   -0.170407
    97  C   -0.007202
    98  C    0.152043
    99  C    0.098429
   100  C    0.016165
   101  O   -0.256356
   102  C    0.058806
   103  N   -0.350156
   104  C    0.038269
   105  C   -0.019750
   106  C   -0.034394
   107  C    0.088316
   108  C    0.074005
   109  C    0.034834
   110  C   -0.008834
   111  N   -0.323701
   112  C    0.077324
   113  C   -0.164350
   114  C    0.001411
   115  C    0.095189
   116  C    0.131824
   117  C    0.041029
   118  O   -0.190162
   119  C    0.001211
   120  C    0.211281
   121  O   -0.252811
   122  O   -0.305175
   123  C    0.152704
   124  H   -0.019129
   125  H   -0.016598
   126  H   -0.041250
   127  H   -0.001678
   128  H   -0.003036
   129  H    0.021886
   130  H    0.014531
   131  H    0.015980
   132  H    0.018050
   133  H    0.035957
   134  H    0.020359
   135  H    0.020406
   136  H    0.008859
   137  H    0.023906
   138  H    0.053487
   139  H    0.038468
   140  H    0.033360
   141  H    0.043037
   142  H    0.013369
   143  H    0.011710
   144  H    0.024138
   145  H    0.011704
   146  H    0.005372
   147  H    0.004908
   148  H    0.003524
   149  H    0.010655
   150  H    0.020271
   151  H    0.030172
   152  H    0.044417
   153  H    0.008230
   154  H    0.046137
   155  H    0.034565
   156  H    0.043381
   157  H    0.049504
   158  H    0.051661
 Sum of Mulliken charges =  -0.00000

 Dipole moment (field-independent basis, Debye):
    X=              1.3417    Y=              3.1169    Z=              0.3774  Tot=              3.4144
 Quadrupole moment (field-independent basis, Debye-Ang):
   XX=           -521.0188   YY=           -462.7268   ZZ=           -520.4346
   XY=              0.3499   XZ=             42.6946   YZ=             10.2523

 Normal termination of Gaussian 16 at Wed Sep  8 17:20:42 2021.
