 Gaussian 16, Revision A.03,
 Gaussian 16:  ES64L-G16RevA.03 25-Dec-2016

 -----------------------------------
 #p cam-b3lyp/Def2SVP td=(nstates=5)
 -----------------------------------

 --------------------------------
 TDDFT excited states in gaussian
 --------------------------------
 Symbolic Z-matrix:
 Charge =  0 Multiplicity = 1

                         Standard orientation:
 ---------------------------------------------------------------------
 Center     Atomic      Atomic             Coordinates (Angstroms)
 Number     Number       Type             X           Y           Z
 ---------------------------------------------------------------------
      1         12           0        6.553100   -0.777757    0.461424
      2          6           0        7.063273    1.746054   -2.025003
      3          6           0        7.698381    1.467259    2.761706
      4          6           0        6.542101   -3.123391    2.595551
      5          6           0        6.541870   -3.114351   -2.124280
      6          7           0        7.259470    1.311531    0.270210
      7          6           0        7.349044    2.183025   -0.729612
      8          6           0        7.702576    3.626322   -0.261334
      9          6           0        8.416228    3.274938    1.120414
     10          6           0        7.725888    1.956440    1.421938
     11          6           0        9.914903    3.025188    0.985876
     12          6           0        6.428003    4.508422   -0.039762
     13          6           0        6.689393    6.010967    0.099480
     14          1           0        5.718675    6.944635   -0.451264
     15          7           0        6.577029   -0.713635    2.435801
     16          6           0        7.066970    0.286051    3.207728
     17          6           0        6.852908   -0.138028    4.608091
     18          6           0        6.371916   -1.547406    4.588242
     19          6           0        6.504485   -1.863861    3.189078
     20          6           0        7.054272    0.769572    5.782597
     21          6           0        5.882013   -2.466983    5.661791
     22          8           0        5.733068   -3.721732    5.466874
     23          6           0        5.662501   -1.867559    6.990530
     24          7           0        6.762457   -2.848205    0.296962
     25          6           0        6.660453   -3.639522    1.370460
     26          6           0        6.560734   -5.083505    0.976876
     27          6           0        6.370657   -5.097460   -0.608503
     28          6           0        6.482499   -3.575683   -0.872994
     29          6           0        7.759434   -5.964534    1.354922
     30          6           0        5.136927   -5.853612   -1.162186
     31          6           0        3.869898   -5.133034   -0.759069
     32          7           0        6.584857   -0.713769   -1.707895
     33          6           0        6.597278   -1.809048   -2.583614
     34          6           0        6.729066   -1.268817   -3.949209
     35          6           0        6.801299    0.111303   -3.770614
     36          6           0        6.746205    0.412422   -2.379721
     37          6           0        6.826256   -2.036388   -5.143287
     38          6           0        6.936994    1.400127   -4.429686
     39          8           0        6.934782    1.779219   -5.601769
     40          6           0        7.234610    2.501933   -3.319157
     41          6           0        6.319904    3.667751   -3.578947
     42          8           0        5.085286    3.556713   -3.434887
     43          8           0        7.051502    4.783368   -3.722841
     44          6           0        6.202825    5.982736   -3.953967
     45          1           0        8.259130    2.002340    3.530595
     46          1           0        6.428903   -3.958081    3.290473
     47          1           0        6.460439   -3.778166   -2.986933
     48          1           0        8.395308    4.158780   -0.913281
     49          1           0        8.188111    4.007745    1.894157
     50          1           0       10.222862    3.003108   -0.059396
     51          1           0       10.092004    2.057394    1.455453
     52          1           0       10.482378    3.750037    1.570123
     53          1           0        6.013687    4.299993    0.946626
     54          1           0        5.700180    4.341227   -0.834522
     55          1           0        7.697107    6.271973   -0.225016
     56          1           0        6.672177    6.263828    1.159652
     57          1           0        7.568022    1.686557    5.496686
     58          1           0        7.748291    0.268351    6.457003
     59          1           0        6.120406    0.978367    6.304737
     60          1           0        6.596353   -1.433313    7.348162
     61          1           0        5.228146   -2.653750    7.607044
     62          1           0        4.957713   -1.041289    6.893068
     63          1           0        5.698576   -5.557559    1.444190
     64          1           0        7.216524   -5.559840   -1.117804
     65          1           0        7.494255   -6.823431    1.971916
     66          1           0        8.495258   -5.335763    1.855422
     67          1           0        8.334948   -6.340616    0.509486
     68          1           0        5.084712   -6.855814   -0.738145
     69          1           0        5.144404   -5.952767   -2.247710
     70          1           0        3.685233   -5.509376    0.246465
     71          1           0        3.052279   -5.396552   -1.430834
     72          1           0        4.031402   -4.057789   -0.680007
     73          1           0        6.182709   -1.546588   -5.873980
     74          1           0        6.521241   -3.069154   -4.976063
     75          1           0        7.891228   -1.944761   -5.356116
     76          1           0        8.284513    2.774588   -3.421550
     77          1           0        6.541565    6.441445   -4.882985
     78          1           0        6.258076    6.581350   -3.044564
     79          1           0        5.154595    5.793659   -4.188068
     80         12           0       -6.576245    0.784142    0.440157
     81          6           0       -7.000978   -1.761900   -2.053104
     82          6           0       -7.660094   -1.493418    2.736379
     83          6           0       -6.643948    3.124005    2.582089
     84          6           0       -6.634996    3.125843   -2.140283
     85          7           0       -7.217646   -1.323626    0.244733
     86          6           0       -7.278793   -2.204115   -0.742870
     87          6           0       -7.580923   -3.657971   -0.290589
     88          6           0       -8.317494   -3.329638    1.098129
     89          6           0       -7.670530   -1.980577    1.404957
     90          6           0       -9.815069   -3.118449    0.949811
     91          6           0       -6.274587   -4.497007   -0.063573
     92          6           0       -6.495100   -6.004676    0.078025
     93          1           0       -5.487460   -6.909783   -0.467795
     94          7           0       -6.602715    0.709605    2.423163
     95          6           0       -7.056698   -0.301239    3.193482
     96          6           0       -6.875497    0.140611    4.584921
     97          6           0       -6.430365    1.560610    4.571967
     98          6           0       -6.564716    1.866128    3.161754
     99          6           0       -7.044176   -0.779136    5.759241
    100          6           0       -5.973191    2.493514    5.652197
    101          8           0       -5.861718    3.754326    5.450365
    102          6           0       -5.749639    1.900884    6.978959
    103          7           0       -6.843321    2.839337    0.275247
    104          6           0       -6.775625    3.634322    1.357533
    105          6           0       -6.722245    5.090735    0.962072
    106          6           0       -6.523456    5.098050   -0.624751
    107          6           0       -6.588583    3.578783   -0.894944
    108          6           0       -7.951348    5.923974    1.324573
    109          6           0       -5.311301    5.895989   -1.178507
    110          6           0       -4.020428    5.226491   -0.765221
    111          7           0       -6.593382    0.718841   -1.719351
    112          6           0       -6.643942    1.817102   -2.605561
    113          6           0       -6.753738    1.268549   -3.972837
    114          6           0       -6.782863   -0.121416   -3.784064
    115          6           0       -6.717605   -0.417627   -2.395718
    116          6           0       -6.860550    2.032066   -5.169404
    117          6           0       -6.864681   -1.405133   -4.442899
    118          8           0       -6.853361   -1.782919   -5.613755
    119          6           0       -7.137019   -2.520723   -3.343952
    120          6           0       -6.185018   -3.658691   -3.591413
    121          8           0       -4.959506   -3.499054   -3.452668
    122          8           0       -6.887423   -4.796939   -3.737639
    123          6           0       -5.986281   -5.956154   -3.974258
    124          1           0       -8.201004   -2.054988    3.498566
    125          1           0       -6.559549    3.967107    3.271678
    126          1           0       -6.559864    3.788025   -3.005467
    127          1           0       -8.247536   -4.207766   -0.944136
    128          1           0       -8.061315   -4.058134    1.863003
    129          1           0      -10.119743   -3.107394   -0.086135
    130          1           0      -10.025295   -2.164865    1.416203
    131          1           0      -10.360728   -3.865895    1.532834
    132          1           0       -5.872802   -4.271507    0.932655
    133          1           0       -5.560267   -4.307728   -0.841096
    134          1           0       -7.498607   -6.306662   -0.245595
    135          1           0       -6.467385   -6.261221    1.139830
    136          1           0       -7.535171   -1.716192    5.469004
    137          1           0       -7.754948   -0.299960    6.441201
    138          1           0       -6.107973   -0.957343    6.292568
    139          1           0       -6.669160    1.435838    7.326338
    140          1           0       -5.341379    2.705613    7.593449
    141          1           0       -5.008213    1.099722    6.883854
    142          1           0       -5.877353    5.586268    1.424362
    143          1           0       -7.384931    5.546291   -1.141254
    144          1           0       -7.713134    6.802359    1.953670
    145          1           0       -8.664477    5.281182    1.823379
    146          1           0       -8.526071    6.292326    0.476511
    147          1           0       -5.291196    6.900657   -0.749095
    148          1           0       -5.323996    6.007179   -2.257613
    149          1           0       -3.856931    5.609159    0.246667
    150          1           0       -3.209544    5.513622   -1.431599
    151          1           0       -4.146887    4.140186   -0.690396
    152          1           0       -6.205946    1.567391   -5.894708
    153          1           0       -6.593817    3.073447   -5.001664
    154          1           0       -7.925685    1.910560   -5.383861
    155          1           0       -8.178471   -2.829578   -3.441770
    156          1           0       -6.310596   -6.427756   -4.907042
    157          1           0       -6.040034   -6.568891   -3.054793
    158          1           0       -4.946175   -5.745727   -4.194132
 ---------------------------------------------------------------------

 SCF Done:  E(RCAM-B3LYP) =  -4069.81163081     A.U. after   19 cycles

 Excitation energies and oscillator strengths:

 Excited State   1:      Singlet-A      1.6654 eV  744.46 nm  f=0.0089  <S**2>=0.000
     309 -> 315       -0.11035
     310 -> 316        0.13095
     311 -> 313        0.52618
     312 -> 314       -0.44110
 This state for optimization and/or second-order correction.
 Total Energy, E(TD-HF/TD-DFT) =  -4069.75042739
 Copying the excited state density for this state as the 1-particle RhoCI density.

 Excited State   2:      Singlet-A      1.6887 eV  734.18 nm  f=0.7366  <S**2>=0.000
     309 -> 315        0.13618
     310 -> 316        0.11357
     311 -> 313        0.44024
     312 -> 314        0.52501

 Excited State   3:      Singlet-A      2.1847 eV  567.52 nm  f=0.0425  <S**2>=0.000
     309 -> 314        0.19693
     310 -> 313        0.61209
     311 -> 316       -0.25908

 Excited State   4:      Singlet-A      2.1925 eV  565.49 nm  f=0.1475  <S**2>=0.000
     309 -> 314        0.60987
     310 -> 313       -0.19548
     312 -> 315       -0.26520

 Excited State   5:      Singlet-A      2.7068 eV  458.04 nm  f=0.0000  <S**2>=0.000
     312 -> 313        0.70710

 The electronic state is 1-A.
 Alpha  occ. eigenvalues --  -46.87658 -46.87562 -19.26259 -19.26152 -19.19060
 Alpha  occ. eigenvalues --  -19.18877 -19.18714 -19.18652 -19.18028 -19.17950
 Alpha  occ. eigenvalues --  -14.42404 -14.42315 -14.41313 -14.41262 -14.39269
 Alpha  occ. eigenvalues --  -14.39258 -14.38498 -14.38444 -10.38991 -10.38939
 Alpha  occ. eigenvalues --  -10.35350 -10.35332 -10.34248 -10.34127 -10.31678
 Alpha  occ. eigenvalues --  -10.31559 -10.31266 -10.31211 -10.30937 -10.30782
 Alpha  occ. eigenvalues --  -10.30428 -10.30370 -10.30300 -10.30259 -10.30077
 Alpha  occ. eigenvalues --  -10.30050 -10.29795 -10.29782 -10.29495 -10.29346
 Alpha  occ. eigenvalues --  -10.29306 -10.29123 -10.28636 -10.28625 -10.28580
 Alpha  occ. eigenvalues --  -10.28423 -10.28312 -10.28231 -10.28057 -10.27992
 Alpha  occ. eigenvalues --  -10.27905 -10.27656 -10.27594 -10.27577 -10.27454
 Alpha  occ. eigenvalues --  -10.27419 -10.27394 -10.27390 -10.27376 -10.27370
 Alpha  occ. eigenvalues --  -10.27364 -10.27323 -10.27287 -10.27269 -10.27022
 Alpha  occ. eigenvalues --  -10.26956 -10.26608 -10.26578 -10.26379 -10.26336
 Alpha  occ. eigenvalues --  -10.26120 -10.26024 -10.26016 -10.25951 -10.25878
 Alpha  occ. eigenvalues --  -10.25833 -10.25726 -10.25678 -10.25328 -10.25328
 Alpha  occ. eigenvalues --  -10.24774 -10.24693 -10.24656 -10.24598 -10.24578
 Alpha  occ. eigenvalues --  -10.24495  -3.16400  -3.16312  -1.91282  -1.91194
 Alpha  occ. eigenvalues --   -1.90869  -1.90783  -1.90711  -1.90620  -1.16551
 Alpha  occ. eigenvalues --   -1.16499  -1.08555  -1.08484  -1.07118  -1.06907
 Alpha  occ. eigenvalues --   -1.06845  -1.06501  -1.04447  -1.04402  -1.03626
 Alpha  occ. eigenvalues --   -1.03569  -1.03097  -1.02942  -1.02274  -1.02015
 Alpha  occ. eigenvalues --   -0.91891  -0.91836  -0.89393  -0.89378  -0.89066
 Alpha  occ. eigenvalues --   -0.89061  -0.88150  -0.88123  -0.87724  -0.87688
 Alpha  occ. eigenvalues --   -0.87591  -0.87540  -0.87156  -0.87043  -0.84914
 Alpha  occ. eigenvalues --   -0.84856  -0.83795  -0.83774  -0.82861  -0.82858
 Alpha  occ. eigenvalues --   -0.82570  -0.82525  -0.81504  -0.81453  -0.80467
 Alpha  occ. eigenvalues --   -0.80354  -0.78669  -0.78547  -0.77084  -0.77053
 Alpha  occ. eigenvalues --   -0.76807  -0.76804  -0.75794  -0.75751  -0.74768
 Alpha  occ. eigenvalues --   -0.74712  -0.72636  -0.72601  -0.71543  -0.71492
 Alpha  occ. eigenvalues --   -0.69758  -0.69647  -0.68747  -0.68741  -0.67512
 Alpha  occ. eigenvalues --   -0.67512  -0.67120  -0.67099  -0.65183  -0.65156
 Alpha  occ. eigenvalues --   -0.64718  -0.64675  -0.64563  -0.64488  -0.64131
 Alpha  occ. eigenvalues --   -0.64104  -0.62185  -0.62164  -0.60319  -0.60256
 Alpha  occ. eigenvalues --   -0.59708  -0.59675  -0.58899  -0.58853  -0.58369
 Alpha  occ. eigenvalues --   -0.58332  -0.57457  -0.57446  -0.57177  -0.57145
 Alpha  occ. eigenvalues --   -0.56177  -0.56111  -0.55850  -0.55799  -0.55399
 Alpha  occ. eigenvalues --   -0.55371  -0.55201  -0.55150  -0.54389  -0.54385
 Alpha  occ. eigenvalues --   -0.53828  -0.53769  -0.53173  -0.53139  -0.53098
 Alpha  occ. eigenvalues --   -0.53056  -0.52811  -0.52781  -0.52643  -0.52600
 Alpha  occ. eigenvalues --   -0.52284  -0.52284  -0.51771  -0.51762  -0.51578
 Alpha  occ. eigenvalues --   -0.51493  -0.51103  -0.51057  -0.50467  -0.50406
 Alpha  occ. eigenvalues --   -0.49897  -0.49896  -0.49802  -0.49774  -0.49411
 Alpha  occ. eigenvalues --   -0.49394  -0.49115  -0.49084  -0.49015  -0.48969
 Alpha  occ. eigenvalues --   -0.48468  -0.48460  -0.48344  -0.48319  -0.48285
 Alpha  occ. eigenvalues --   -0.48265  -0.47569  -0.47509  -0.47173  -0.47035
 Alpha  occ. eigenvalues --   -0.46659  -0.46613  -0.46470  -0.46430  -0.46223
 Alpha  occ. eigenvalues --   -0.46175  -0.46025  -0.45989  -0.45723  -0.45681
 Alpha  occ. eigenvalues --   -0.45117  -0.45071  -0.44444  -0.44426  -0.44384
 Alpha  occ. eigenvalues --   -0.44382  -0.44041  -0.44009  -0.43979  -0.43964
 Alpha  occ. eigenvalues --   -0.43891  -0.43860  -0.43459  -0.43359  -0.43297
 Alpha  occ. eigenvalues --   -0.43256  -0.42893  -0.42839  -0.42805  -0.42565
 Alpha  occ. eigenvalues --   -0.42510  -0.42454  -0.41865  -0.41860  -0.41574
 Alpha  occ. eigenvalues --   -0.41570  -0.41406  -0.41369  -0.41013  -0.40902
 Alpha  occ. eigenvalues --   -0.40743  -0.40712  -0.40652  -0.40612  -0.40434
 Alpha  occ. eigenvalues --   -0.40395  -0.40149  -0.40112  -0.39311  -0.39287
 Alpha  occ. eigenvalues --   -0.38335  -0.38257  -0.37621  -0.37569  -0.37184
 Alpha  occ. eigenvalues --   -0.37170  -0.37133  -0.37110  -0.36675  -0.36576
 Alpha  occ. eigenvalues --   -0.36122  -0.36057  -0.34156  -0.34148  -0.33761
 Alpha  occ. eigenvalues --   -0.33628  -0.33079  -0.33049  -0.31244  -0.31210
 Alpha  occ. eigenvalues --   -0.30903  -0.30881  -0.29886  -0.29853  -0.29319
 Alpha  occ. eigenvalues --   -0.29238  -0.29180  -0.29111  -0.23944  -0.23940
 Alpha  occ. eigenvalues --   -0.21022  -0.20991
 Alpha virt. eigenvalues --   -0.08698  -0.08641  -0.01617  -0.01592   0.00051
 Alpha virt. eigenvalues --    0.00062   0.02306   0.02340   0.03291   0.03355
 Alpha virt. eigenvalues --    0.04818   0.04848   0.05238   0.05263   0.06261

 Mulliken charges:
               1
     1  Mg   0.839335
     2  C   -0.002894
     3  C   -0.094151
     4  C   -0.045944
     5  C   -0.063683
     6  N   -0.256745
     7  C   -0.052370
     8  C   -0.014063
     9  C   -0.086981
    10  C    0.046276
    11  C    0.104883
    12  C    0.053453
    13  C   -0.071655
    14  H    0.035910
    15  N   -0.433037
    16  C    0.168339
    17  C   -0.177336
    18  C   -0.004259
    19  C    0.148697
    20  C    0.110243
    21  C    0.012066
    22  O   -0.250125
    23  C    0.062569
    24  N   -0.341223
    25  C    0.041262
    26  C   -0.028016
    27  C   -0.024056
    28  C    0.075093
    29  C    0.076315
    30  C    0.035076
    31  C   -0.004536
    32  N   -0.310637
    33  C    0.080838
    34  C   -0.168986
    35  C    0.008459
    36  C    0.083428
    37  C    0.127149
    38  C    0.046507
    39  O   -0.188201
    40  C   -0.005505
    41  C    0.212846
    42  O   -0.256598
    43  O   -0.304922
    44  C    0.157748
    45  H   -0.017898
    46  H   -0.017245
    47  H   -0.041190
    48  H    0.000796
    49  H   -0.004141
    50  H    0.025370
    51  H    0.016350
    52  H    0.016407
    53  H    0.011390
    54  H    0.044341
    55  H    0.017686
    56  H    0.017916
    57  H    0.005813
    58  H    0.026427
    59  H    0.039343
    60  H    0.037296
    61  H    0.034924
    62  H    0.031433
    63  H    0.016314
    64  H    0.009244
    65  H    0.022756
    66  H    0.012371
    67  H    0.004594
    68  H    0.005751
    69  H    0.005085
    70  H    0.007990
    71  H    0.019625
    72  H    0.029497
    73  H    0.048377
    74  H    0.009487
    75  H    0.045679
    76  H    0.034927
    77  H    0.042771
    78  H    0.046197
    79  H    0.053746
    80  Mg   0.838442
    81  C   -0.016784
    82  C   -0.087820
    83  C   -0.045593
    84  C   -0.064655
    85  N   -0.254536
    86  C   -0.049739
    87  C   -0.015144
    88  C   -0.090501
    89  C    0.045725
    90  C    0.114445
    91  C    0.062506
    92  C   -0.077729
    93  H    0.034633
    94  N   -0.423401
    95  C    0.162841
    96  C   -0.174791
    97  C   -0.008058
    98  C    0.152107
    99  C    0.099427
   100  C    0.015345
   101  O   -0.253630
   102  C    0.061299
   103  N   -0.350160
   104  C    0.037549
   105  C   -0.019701
   106  C   -0.034891
   107  C    0.089155
   108  C    0.073796
   109  C    0.034679
   110  C   -0.007706
   111  N   -0.324274
   112  C    0.078901
   113  C   -0.162419
   114  C    0.002339
   115  C    0.096645
   116  C    0.131353
   117  C    0.042791
   118  O   -0.187621
   119  C    0.000748
   120  C    0.211232
   121  O   -0.250516
   122  O   -0.305750
   123  C    0.152099
   124  H   -0.019934
   125  H   -0.015939
   126  H   -0.040123
   127  H   -0.000776
   128  H   -0.004419
   129  H    0.022362
   130  H    0.014337
   131  H    0.016054
   132  H    0.014108
   133  H    0.037878
   134  H    0.020621
   135  H    0.019575
   136  H    0.008709
   137  H    0.025777
   138  H    0.039592
   139  H    0.038215
   140  H    0.035707
   141  H    0.033799
   142  H    0.014208
   143  H    0.012222
   144  H    0.024728
   145  H    0.011458
   146  H    0.005534
   147  H    0.005724
   148  H    0.004008
   149  H    0.010190
   150  H    0.019372
   151  H    0.030577
   152  H    0.046821
   153  H    0.008895
   154  H    0.046623
   155  H    0.034812
   156  H    0.043763
   157  H    0.049273
   158  H    0.053613
 Sum of Mulliken charges =  -0.00000

 Dipole moment (field-independent basis, Debye):
    X=              0.0874    Y=             -0.1142    Z=              7.1822  Tot=              7.1836
 Quadrupole moment (field-independent basis, Debye-Ang):
   XX=           -460.1258   YY=           -462.1856   ZZ=           -540.0385
   XY=             28.2699   XZ=              2.1318   YZ=             -0.1910

 Normal termination of Gaussian 16 at Sat Sep 11 06:53:40 2021.
