 Gaussian 16, Revision A.03,
 Gaussian 16:  ES64L-G16RevA.03 25-Dec-2016

 -----------------------------------
 #p cam-b3lyp/Def2SVP td=(nstates=5)
 -----------------------------------

 --------------------------------
 TDDFT excited states in gaussian
 --------------------------------
 Symbolic Z-matrix:
 Charge =  0 Multiplicity = 1

                         Standard orientation:
 ---------------------------------------------------------------------
 Center     Atomic      Atomic             Coordinates (Angstroms)
 Number     Number       Type             X           Y           Z
 ---------------------------------------------------------------------
      1         12           0        7.796466   -0.966185   -0.025013
      2          6           0        8.424732    2.523029   -0.517840
      3          6           0        8.770131   -0.531562    3.216306
      4          6           0        7.685595   -4.116979    0.316784
      5          6           0        7.973244   -1.336000   -3.485886
      6          7           0        8.486115    0.817827    1.089587
      7          6           0        8.625254    2.107887    0.800528
      8          6           0        8.930863    2.990903    2.047227
      9          6           0        9.563357    1.876573    2.996026
     10          6           0        8.873009    0.650671    2.424616
     11          6           0       11.070552    1.715518    2.825951
     12          6           0        7.633847    3.606494    2.672150
     13          6           0        7.866805    4.733133    3.682977
     14          1           0        6.919510    5.836553    3.732421
     15          7           0        7.699046   -2.075203    1.606992
     16          6           0        8.128006   -1.732852    2.845569
     17          6           0        7.834396   -2.893299    3.713808
     18          6           0        7.373774   -4.009166    2.841591
     19          6           0        7.595551   -3.446224    1.534193
     20          6           0        7.951967   -2.854653    5.206602
     21          6           0        6.831209   -5.371248    3.139061
     22          8           0        6.710670   -6.267636    2.235439
     23          6           0        6.523296   -5.661752    4.551095
     24          7           0        8.042220   -2.549251   -1.363348
     25          6           0        7.885143   -3.817451   -0.968405
     26          6           0        7.828304   -4.751377   -2.140791
     27          6           0        7.735514   -3.826159   -3.438910
     28          6           0        7.843602   -2.442903   -2.751022
     29          6           0        9.012993   -5.716543   -2.285631
     30          6           0        6.547748   -4.080886   -4.400547
     31          6           0        5.249272   -3.702798   -3.723710
     32          7           0        7.959702    0.359579   -1.735787
     33          6           0        8.039695   -0.011870   -3.085714
     34          6           0        8.247568    1.224172   -3.862281
     35          6           0        8.290918    2.233492   -2.902470
     36          6           0        8.147168    1.661037   -1.606351
     37          6           0        8.427354    1.302672   -5.271518
     38          6           0        8.449901    3.659630   -2.668565
     39          8           0        8.514311    4.655048   -3.391398
     40          6           0        8.664929    3.890477   -1.107700
     41          6           0        7.752783    5.009232   -0.683804
     42          8           0        6.513214    4.866199   -0.703179
     43          8           0        8.477312    5.977379   -0.102177
     44          6           0        7.628884    7.104740    0.368335
     45          1           0        9.275953   -0.564957    4.183244
     46          1           0        7.541006   -5.197496    0.380147
     47          1           0        7.953192   -1.363811   -4.576885
     48          1           0        9.655142    3.786999    1.873805
     49          1           0        9.278996    2.020306    4.038236
     50          1           0       11.441978    2.304090    1.987173
     51          1           0       11.231168    0.652397    2.645760
     52          1           0       11.591900    1.943926    3.755898
     53          1           0        7.162845    2.868819    3.321807
     54          1           0        6.958097    3.956856    1.891167
     55          1           0        8.888982    5.109255    3.632046
     56          1           0        7.781663    4.315038    4.686047
     57          1           0        8.470306   -1.958138    5.544435
     58          1           0        8.609963   -3.673980    5.495482
     59          1           0        6.985359   -2.968873    5.697474
     60          1           0        7.427893   -5.544508    5.148178
     61          1           0        6.062333   -6.648796    4.561430
     62          1           0        5.815144   -4.918328    4.918234
     63          1           0        6.945439   -5.387427   -2.091633
     64          1           0        8.616790   -3.922321   -4.073560
     65          1           0        8.721787   -6.766973   -2.308030
     66          1           0        9.708715   -5.520904   -1.470163
     67          1           0        9.643837   -5.538501   -3.156121
     68          1           0        6.482719   -5.139236   -4.650768
     69          1           0        6.622730   -3.523342   -5.334235
     70          1           0        5.008477   -4.593361   -3.144274
     71          1           0        4.477642   -3.500326   -4.467218
     72          1           0        5.391735   -2.883813   -3.018407
     73          1           0        7.823313    2.144556   -5.609653
     74          1           0        8.126082    0.376960   -5.761309
     75          1           0        9.502054    1.474737   -5.328702
     76          1           0        9.715511    4.144426   -0.970186
     77          1           0        8.017720    8.013027   -0.092157
     78          1           0        7.620797    7.053016    1.457218
     79          1           0        6.599424    7.116083    0.008580
     80         12           0       -7.966092    0.974174    0.153454
     81          6           0       -8.200533   -2.606025    0.074309
     82          6           0       -7.137326    0.843820   -3.152714
     83          6           0       -7.312972    4.075833    0.296944
     84          6           0       -7.684723    0.740434    3.619273
     85          7           0       -7.732266   -0.721286   -1.247621
     86          6           0       -7.907059   -2.032496   -1.180425
     87          6           0       -7.838169   -2.761529   -2.549118
     88          6           0       -6.949842   -1.688811   -3.348515
     89          6           0       -7.317370   -0.432330   -2.561854
     90          6           0       -5.454658   -1.920627   -3.207032
     91          6           0       -9.252984   -2.938001   -3.204218
     92          6           0       -9.297733   -3.908664   -4.386409
     93          1           0      -10.491024   -4.730761   -4.567213
     94          7           0       -7.801022    2.320214   -1.295514
     95          6           0       -7.478866    2.091385   -2.585907
     96          6           0       -7.469826    3.409925   -3.238239
     97          6           0       -7.651252    4.452286   -2.191683
     98          6           0       -7.572909    3.639933   -0.994167
     99          6           0       -7.379933    3.580662   -4.726931
    100          6           0       -7.848217    5.936566   -2.257293
    101          8           0       -7.745702    6.676123   -1.215477
    102          6           0       -8.072234    6.509790   -3.592479
    103          7           0       -7.346271    2.214351    1.702694
    104          6           0       -7.186037    3.535229    1.508950
    105          6           0       -7.006174    4.261109    2.820874
    106          6           0       -7.321861    3.180385    3.956640
    107          6           0       -7.552753    1.938857    3.067420
    108          6           0       -5.622782    4.864349    3.063160
    109          6           0       -8.409208    3.554123    5.000993
    110          6           0       -9.763965    3.622432    4.333643
    111          7           0       -8.127197   -0.600148    1.624371
    112          6           0       -7.947747   -0.484889    3.020288
    113          6           0       -8.044192   -1.846369    3.585526
    114          6           0       -8.251758   -2.668528    2.467729
    115          6           0       -8.262364   -1.877797    1.286991
    116          6           0       -7.893819   -2.189565    4.958743
    117          6           0       -8.453710   -4.026774    2.017093
    118          8           0       -8.623007   -5.110702    2.574027
    119          6           0       -8.303275   -4.062001    0.435154
    120          6           0       -9.461046   -4.842466   -0.124258
    121          8           0      -10.623308   -4.413202   -0.017166
    122          8           0       -8.988782   -5.851328   -0.878932
    123          6           0      -10.099680   -6.647880   -1.464791
    124          1           0       -6.649546    0.900663   -4.126229
    125          1           0       -7.190646    5.155034    0.414588
    126          1           0       -7.705550    0.595169    4.701465
    127          1           0       -7.333910   -3.720211   -2.528282
    128          1           0       -7.273577   -1.599781   -4.382255
    129          1           0       -5.233604   -2.700589   -2.493636
    130          1           0       -5.040677   -0.977049   -2.876381
    131          1           0       -5.009517   -2.118379   -4.186362
    132          1           0       -9.529665   -2.006792   -3.715137
    133          1           0       -9.979127   -3.228807   -2.470211
    134          1           0       -8.393058   -4.525729   -4.447556
    135          1           0       -9.289485   -3.328456   -5.312312
    136          1           0       -7.089775    2.645850   -5.222238
    137          1           0       -6.544082    4.261569   -4.920800
    138          1           0       -8.289075    4.005461   -5.157832
    139          1           0       -7.227686    6.270792   -4.234420
    140          1           0       -8.280184    7.568353   -3.424916
    141          1           0       -8.951055    6.029143   -4.036613
    142          1           0       -7.709749    5.079789    2.909491
    143          1           0       -6.436015    2.965645    4.572251
    144          1           0       -5.649575    5.952782    3.259810
    145          1           0       -5.001032    4.648263    2.204515
    146          1           0       -5.058032    4.412562    3.876883
    147          1           0       -8.214712    4.548207    5.411001
    148          1           0       -8.459731    2.865018    5.837404
    149          1           0       -9.777433    4.629000    3.905012
    150          1           0      -10.558597    3.494600    5.065934
    151          1           0       -9.830095    2.909709    3.503402
    152          1           0       -8.675312   -2.901382    5.189150
    153          1           0       -7.954684   -1.310655    5.597174
    154          1           0       -6.887762   -2.617234    4.943867
    155          1           0       -7.345255   -4.531009    0.207548
    156          1           0       -9.938463   -7.688483   -1.166705
    157          1           0      -10.086724   -6.426587   -2.548586
    158          1           0      -11.098567   -6.470995   -1.083516
 ---------------------------------------------------------------------

 SCF Done:  E(RCAM-B3LYP) =  -4069.81180592     A.U. after   19 cycles

 Excitation energies and oscillator strengths:

 Excited State   1:      Singlet-A      1.6701 eV  742.39 nm  f=0.0240  <S**2>=0.000
     309 -> 315        0.10324
     310 -> 316        0.13826
     311 -> 313        0.40932
     312 -> 314        0.55094
 This state for optimization and/or second-order correction.
 Total Energy, E(TD-HF/TD-DFT) =  -4069.75043168
 Copying the excited state density for this state as the 1-particle RhoCI density.

 Excited State   2:      Singlet-A      1.6855 eV  735.59 nm  f=0.7323  <S**2>=0.000
     309 -> 315        0.14206
     310 -> 316       -0.10506
     311 -> 313        0.55012
     312 -> 314       -0.40880

 Excited State   3:      Singlet-A      2.1859 eV  567.19 nm  f=0.0580  <S**2>=0.000
     309 -> 313        0.14053
     310 -> 314        0.62718
     312 -> 316       -0.26622

 Excited State   4:      Singlet-A      2.1932 eV  565.31 nm  f=0.1354  <S**2>=0.000
     309 -> 313        0.62520
     310 -> 314       -0.13947
     311 -> 315       -0.27188

 Excited State   5:      Singlet-A      2.7655 eV  448.33 nm  f=0.0000  <S**2>=0.000
     312 -> 313        0.70710

 The electronic state is 1-A.
 Alpha  occ. eigenvalues --  -46.87835 -46.87589 -19.26316 -19.26297 -19.19107
 Alpha  occ. eigenvalues --  -19.19055 -19.18836 -19.18633 -19.18209 -19.17989
 Alpha  occ. eigenvalues --  -14.42487 -14.42425 -14.41490 -14.41290 -14.39440
 Alpha  occ. eigenvalues --  -14.39279 -14.38627 -14.38531 -10.39114 -10.39036
 Alpha  occ. eigenvalues --  -10.35468 -10.35309 -10.34428 -10.34167 -10.31710
 Alpha  occ. eigenvalues --  -10.31706 -10.31444 -10.31239 -10.30947 -10.30941
 Alpha  occ. eigenvalues --  -10.30610 -10.30547 -10.30329 -10.30293 -10.30246
 Alpha  occ. eigenvalues --  -10.30069 -10.29964 -10.29829 -10.29668 -10.29362
 Alpha  occ. eigenvalues --  -10.29331 -10.29290 -10.28779 -10.28648 -10.28597
 Alpha  occ. eigenvalues --  -10.28562 -10.28400 -10.28332 -10.28147 -10.28064
 Alpha  occ. eigenvalues --  -10.27931 -10.27831 -10.27764 -10.27618 -10.27594
 Alpha  occ. eigenvalues --  -10.27553 -10.27503 -10.27496 -10.27461 -10.27440
 Alpha  occ. eigenvalues --  -10.27413 -10.27393 -10.27374 -10.27312 -10.27194
 Alpha  occ. eigenvalues --  -10.26987 -10.26733 -10.26629 -10.26415 -10.26324
 Alpha  occ. eigenvalues --  -10.26262 -10.26253 -10.26095 -10.26062 -10.25935
 Alpha  occ. eigenvalues --  -10.25898 -10.25869 -10.25807 -10.25476 -10.25324
 Alpha  occ. eigenvalues --  -10.24871 -10.24826 -10.24805 -10.24769 -10.24689
 Alpha  occ. eigenvalues --  -10.24619  -3.16578  -3.16339  -1.91460  -1.91221
 Alpha  occ. eigenvalues --   -1.91046  -1.90888  -1.90810  -1.90647  -1.16665
 Alpha  occ. eigenvalues --   -1.16591  -1.08667  -1.08598  -1.07237  -1.06892
 Alpha  occ. eigenvalues --   -1.06884  -1.06677  -1.04617  -1.04423  -1.03800
 Alpha  occ. eigenvalues --   -1.03592  -1.03273  -1.02969  -1.02450  -1.02041
 Alpha  occ. eigenvalues --   -0.92010  -0.91919  -0.89568  -0.89432  -0.89220
 Alpha  occ. eigenvalues --   -0.89079  -0.88334  -0.88157  -0.87913  -0.87733
 Alpha  occ. eigenvalues --   -0.87709  -0.87614  -0.87302  -0.87040  -0.85014
 Alpha  occ. eigenvalues --   -0.84929  -0.83987  -0.83816  -0.82994  -0.82854
 Alpha  occ. eigenvalues --   -0.82680  -0.82580  -0.81621  -0.81536  -0.80631
 Alpha  occ. eigenvalues --   -0.80376  -0.78830  -0.78562  -0.77258  -0.77076
 Alpha  occ. eigenvalues --   -0.76970  -0.76834  -0.75957  -0.75769  -0.74940
 Alpha  occ. eigenvalues --   -0.74736  -0.72815  -0.72632  -0.71709  -0.71510
 Alpha  occ. eigenvalues --   -0.69964  -0.69701  -0.68906  -0.68757  -0.67676
 Alpha  occ. eigenvalues --   -0.67533  -0.67248  -0.67130  -0.65321  -0.65204
 Alpha  occ. eigenvalues --   -0.64892  -0.64704  -0.64659  -0.64588  -0.64315
 Alpha  occ. eigenvalues --   -0.64142  -0.62334  -0.62219  -0.60475  -0.60265
 Alpha  occ. eigenvalues --   -0.59838  -0.59725  -0.59026  -0.58925  -0.58542
 Alpha  occ. eigenvalues --   -0.58359  -0.57622  -0.57494  -0.57348  -0.57170
 Alpha  occ. eigenvalues --   -0.56346  -0.56137  -0.56011  -0.55825  -0.55551
 Alpha  occ. eigenvalues --   -0.55384  -0.55381  -0.55188  -0.54566  -0.54430
 Alpha  occ. eigenvalues --   -0.53926  -0.53841  -0.53335  -0.53251  -0.53160
 Alpha  occ. eigenvalues --   -0.53072  -0.52952  -0.52837  -0.52781  -0.52586
 Alpha  occ. eigenvalues --   -0.52497  -0.52350  -0.51962  -0.51832  -0.51646
 Alpha  occ. eigenvalues --   -0.51587  -0.51237  -0.51139  -0.50594  -0.50392
 Alpha  occ. eigenvalues --   -0.50078  -0.49946  -0.49905  -0.49799  -0.49544
 Alpha  occ. eigenvalues --   -0.49413  -0.49249  -0.49132  -0.49129  -0.49036
 Alpha  occ. eigenvalues --   -0.48629  -0.48501  -0.48492  -0.48473  -0.48313
 Alpha  occ. eigenvalues --   -0.48262  -0.47729  -0.47524  -0.47330  -0.47044
 Alpha  occ. eigenvalues --   -0.46839  -0.46644  -0.46586  -0.46483  -0.46399
 Alpha  occ. eigenvalues --   -0.46204  -0.46203  -0.46023  -0.45862  -0.45764
 Alpha  occ. eigenvalues --   -0.45244  -0.45140  -0.44617  -0.44539  -0.44451
 Alpha  occ. eigenvalues --   -0.44406  -0.44186  -0.44121  -0.44058  -0.44051
 Alpha  occ. eigenvalues --   -0.44013  -0.43866  -0.43532  -0.43495  -0.43422
 Alpha  occ. eigenvalues --   -0.43318  -0.43066  -0.42871  -0.42838  -0.42739
 Alpha  occ. eigenvalues --   -0.42701  -0.42489  -0.42056  -0.41904  -0.41742
 Alpha  occ. eigenvalues --   -0.41603  -0.41567  -0.41392  -0.41177  -0.40918
 Alpha  occ. eigenvalues --   -0.40907  -0.40847  -0.40651  -0.40626  -0.40617
 Alpha  occ. eigenvalues --   -0.40431  -0.40262  -0.40158  -0.39501  -0.39371
 Alpha  occ. eigenvalues --   -0.38514  -0.38286  -0.37780  -0.37588  -0.37364
 Alpha  occ. eigenvalues --   -0.37297  -0.37201  -0.37130  -0.36751  -0.36716
 Alpha  occ. eigenvalues --   -0.36232  -0.36154  -0.34325  -0.34185  -0.33806
 Alpha  occ. eigenvalues --   -0.33805  -0.33225  -0.33106  -0.31367  -0.31193
 Alpha  occ. eigenvalues --   -0.31072  -0.30902  -0.30068  -0.29895  -0.29484
 Alpha  occ. eigenvalues --   -0.29361  -0.29253  -0.29144  -0.24119  -0.23966
 Alpha  occ. eigenvalues --   -0.21166  -0.21046
 Alpha virt. eigenvalues --   -0.08811  -0.08720  -0.01787  -0.01612  -0.00087
 Alpha virt. eigenvalues --    0.00048   0.02161   0.02272   0.03076   0.03291
 Alpha virt. eigenvalues --    0.04683   0.04801   0.05063   0.05221   0.06148

 Mulliken charges:
               1
     1  Mg   0.838608
     2  C   -0.002925
     3  C   -0.094020
     4  C   -0.045855
     5  C   -0.064080
     6  N   -0.256765
     7  C   -0.052512
     8  C   -0.013999
     9  C   -0.087015
    10  C    0.046341
    11  C    0.104782
    12  C    0.053453
    13  C   -0.071878
    14  H    0.036224
    15  N   -0.433182
    16  C    0.168467
    17  C   -0.177021
    18  C   -0.003871
    19  C    0.148711
    20  C    0.110137
    21  C    0.012375
    22  O   -0.249496
    23  C    0.062422
    24  N   -0.341114
    25  C    0.041224
    26  C   -0.028213
    27  C   -0.023922
    28  C    0.074751
    29  C    0.076132
    30  C    0.035186
    31  C   -0.004443
    32  N   -0.310423
    33  C    0.080270
    34  C   -0.169982
    35  C    0.008333
    36  C    0.082842
    37  C    0.127377
    38  C    0.045985
    39  O   -0.188559
    40  C   -0.005272
    41  C    0.212868
    42  O   -0.257205
    43  O   -0.304769
    44  C    0.157658
    45  H   -0.017443
    46  H   -0.016739
    47  H   -0.041744
    48  H    0.000983
    49  H   -0.003932
    50  H    0.025494
    51  H    0.016467
    52  H    0.016783
    53  H    0.011196
    54  H    0.044074
    55  H    0.017922
    56  H    0.018008
    57  H    0.005931
    58  H    0.027003
    59  H    0.039779
    60  H    0.037386
    61  H    0.036014
    62  H    0.031633
    63  H    0.016539
    64  H    0.009468
    65  H    0.023303
    66  H    0.012685
    67  H    0.004744
    68  H    0.006343
    69  H    0.004487
    70  H    0.008929
    71  H    0.017389
    72  H    0.029077
    73  H    0.047283
    74  H    0.008845
    75  H    0.046070
    76  H    0.035212
    77  H    0.042997
    78  H    0.046489
    79  H    0.053702
    80  Mg   0.837968
    81  C   -0.016821
    82  C   -0.087609
    83  C   -0.045247
    84  C   -0.064953
    85  N   -0.254588
    86  C   -0.049855
    87  C   -0.015110
    88  C   -0.090514
    89  C    0.045779
    90  C    0.114271
    91  C    0.062521
    92  C   -0.077806
    93  H    0.034658
    94  N   -0.423585
    95  C    0.162965
    96  C   -0.174173
    97  C   -0.007616
    98  C    0.152207
    99  C    0.099166
   100  C    0.015767
   101  O   -0.253120
   102  C    0.061161
   103  N   -0.349999
   104  C    0.037628
   105  C   -0.019913
   106  C   -0.034644
   107  C    0.088849
   108  C    0.073570
   109  C    0.034775
   110  C   -0.007626
   111  N   -0.324062
   112  C    0.078370
   113  C   -0.163344
   114  C    0.002163
   115  C    0.096108
   116  C    0.131507
   117  C    0.042246
   118  O   -0.188204
   119  C    0.000943
   120  C    0.211222
   121  O   -0.251112
   122  O   -0.305586
   123  C    0.152082
   124  H   -0.019263
   125  H   -0.015442
   126  H   -0.040825
   127  H   -0.000682
   128  H   -0.004365
   129  H    0.022474
   130  H    0.014958
   131  H    0.016365
   132  H    0.013898
   133  H    0.037569
   134  H    0.020784
   135  H    0.019602
   136  H    0.008876
   137  H    0.026872
   138  H    0.039715
   139  H    0.038719
   140  H    0.036400
   141  H    0.033699
   142  H    0.014284
   143  H    0.012164
   144  H    0.025050
   145  H    0.012394
   146  H    0.005445
   147  H    0.006064
   148  H    0.003366
   149  H    0.010939
   150  H    0.017700
   151  H    0.030212
   152  H    0.045786
   153  H    0.008247
   154  H    0.046708
   155  H    0.035079
   156  H    0.043803
   157  H    0.049502
   158  H    0.053468
 Sum of Mulliken charges =  -0.00000

 Dipole moment (field-independent basis, Debye):
    X=              4.0836    Y=              0.0200    Z=              0.2435  Tot=              4.0909
 Quadrupole moment (field-independent basis, Debye-Ang):
   XX=           -521.2541   YY=           -549.7875   ZZ=           -447.9780
   XY=            -23.6106   XZ=             69.3471   YZ=             45.6094

 Normal termination of Gaussian 16 at Sat Sep 11 21:55:29 2021.
