 Gaussian 16, Revision A.03,
 Gaussian 16:  ES64L-G16RevA.03 25-Dec-2016

 -----------------------------------
 #p cam-b3lyp/Def2SVP td=(nstates=5)
 -----------------------------------

 --------------------------------
 TDDFT excited states in gaussian
 --------------------------------
 Symbolic Z-matrix:
 Charge =  0 Multiplicity = 1

                         Standard orientation:
 ---------------------------------------------------------------------
 Center     Atomic      Atomic             Coordinates (Angstroms)
 Number     Number       Type             X           Y           Z
 ---------------------------------------------------------------------
      1         12           0        3.883022    1.513278    0.811809
      2          6           0        4.944801   -1.797477   -0.038920
      3          6           0        5.033857    2.506964   -2.242898
      4          6           0        3.372234    4.509900    1.715123
      5          6           0        3.871480    0.494231    4.144536
      6          7           0        4.845308    0.402095   -0.843463
      7          6           0        5.141353   -0.874220   -1.068292
      8          6           0        5.609955   -1.151885   -2.527980
      9          6           0        6.127640    0.307410   -2.908059
     10          6           0        5.259758    1.125479   -1.968130
     11          6           0        7.592549    0.545122   -2.555868
     12          6           0        4.431174   -1.601210   -3.455511
     13          6           0        4.850468   -2.202313   -4.800213
     14          1           0        4.059335   -3.288218   -5.359022
     15          7           0        3.705663    3.162392   -0.261418
     16          6           0        4.224978    3.387380   -1.492263
     17          6           0        3.816074    4.759361   -1.862598
     18          6           0        3.178222    5.381772   -0.669349
     19          6           0        3.419843    4.372521    0.329855
     20          6           0        3.997129    5.329478   -3.235891
     21          6           0        2.473440    6.684678   -0.459945
     22          8           0        2.200069    7.130271    0.706798
     23          6           0        2.186521    7.478065   -1.668770
     24          7           0        3.864777    2.450722    2.676883
     25          6           0        3.558062    3.747282    2.794534
     26          6           0        3.332131    4.127032    4.227951
     27          6           0        3.310214    2.758119    5.049748
     28          6           0        3.626715    1.781654    3.890173
     29          6           0        4.372793    5.073954    4.841442
     30          6           0        2.061871    2.483489    5.925326
     31          6           0        0.852461    2.271158    5.042522
     32          7           0        4.150952   -0.357809    1.878717
     33          6           0        4.127489   -0.546998    3.268080
     34          6           0        4.465072   -1.960495    3.517342
     35          6           0        4.679087   -2.494839    2.248280
     36          6           0        4.513051   -1.473193    1.270035
     37          6           0        4.597295   -2.572961    4.794775
     38          6           0        5.033544   -3.685387    1.492758
     39          8           0        5.199505   -4.873250    1.773707
     40          6           0        5.339135   -3.253210   -0.009129
     41          6           0        4.599763   -4.200653   -0.914109
     42          8           0        3.352373   -4.208258   -0.950515
     43          8           0        5.467993   -4.776081   -1.760041
     44          6           0        4.794724   -5.706155   -2.705465
     45          1           0        5.569031    2.974686   -3.071611
     46          1           0        3.089366    5.504951    2.064830
     47          1           0        3.804462    0.084095    5.153868
     48          1           0        6.425196   -1.870416   -2.614692
     49          1           0        5.906445    0.560482   -3.944760
     50          1           0        8.004453   -0.285611   -1.983034
     51          1           0        7.604565    1.459650   -1.962584
     52          1           0        8.176076    0.761103   -3.451203
     53          1           0        3.893479   -0.720137   -3.805732
     54          1           0        3.776808   -2.301898   -2.935736
     55          1           0        5.910399   -2.457992   -4.809347
     56          1           0        4.751111   -1.431643   -5.564670
     57          1           0        4.641983    4.700837   -3.848687
     58          1           0        4.552583    6.260364   -3.123500
     59          1           0        3.044242    5.526988   -3.727143
     60          1           0        3.121759    7.703454   -2.181682
     61          1           0        1.600468    8.333576   -1.334867
     62          1           0        1.597555    6.871700   -2.357530
     63          1           0        2.375916    4.633620    4.352239
     64          1           0        4.145164    2.686325    5.747156
     65          1           0        3.945240    5.992095    5.245076
     66          1           0        5.120163    5.292664    4.079277
     67          1           0        4.986368    4.632164    5.626149
     68          1           0        1.848220    3.342129    6.560965
     69          1           0        2.172280    1.612178    6.570987
     70          1           0        0.519869    3.287922    4.836598
     71          1           0        0.085159    1.710105    5.577011
     72          1           0        1.129457    1.819657    4.089681
     73          1           0        4.096289   -3.538304    4.723544
     74          1           0        4.157548   -1.955244    5.577496
     75          1           0        5.682150   -2.639567    4.875461
     76          1           0        6.418637   -3.319662   -0.140965
     77          1           0        5.281026   -6.676267   -2.602376
     78          1           0        4.823321   -5.227307   -3.684389
     79          1           0        3.762191   -5.967624   -2.471268
     80         12           0       -4.808991   -0.388300   -0.514439
     81          6           0       -2.206656   -2.847954   -0.275638
     82          6           0       -2.579466    1.592753   -2.169513
     83          6           0       -6.928856    1.966635   -0.347422
     84          6           0       -6.423038   -2.044753    2.092617
     85          7           0       -2.695691   -0.698818   -1.088721
     86          6           0       -1.829962   -1.697225   -0.999079
     87          6           0       -0.514239   -1.480971   -1.793849
     88          6           0       -0.524146    0.124124   -1.843161
     89          6           0       -2.028365    0.362886   -1.729267
     90          6           0        0.153643    0.767243   -0.644682
     91          6           0       -0.577273   -2.100297   -3.234148
     92          6           0        0.770902   -2.198721   -3.951429
     93          1           0        1.012716   -3.343848   -4.824747
     94          7           0       -4.948034    1.291219   -1.562516
     95          6           0       -3.946619    1.946250   -2.186521
     96          6           0       -4.562207    3.134788   -2.796907
     97          6           0       -5.977518    3.214973   -2.343939
     98          6           0       -6.000957    2.149028   -1.362454
     99          6           0       -3.838734    4.014486   -3.774735
    100          6           0       -7.117344    4.111987   -2.721225
    101          8           0       -8.195052    4.158738   -2.028988
    102          6           0       -6.898383    5.002106   -3.870673
    103          7           0       -6.333128    0.043947    0.831863
    104          6           0       -7.142431    1.101112    0.643820
    105          6           0       -8.327657    1.053787    1.578371
    106          6           0       -8.272418   -0.387268    2.269674
    107          6           0       -6.956720   -0.912701    1.654650
    108          6           0       -8.366893    2.134836    2.658275
    109          6           0       -9.545112   -1.270679    2.157947
    110          6           0       -9.759226   -1.687912    0.720780
    111          7           0       -4.511417   -2.226698    0.580921
    112          6           0       -5.290722   -2.717482    1.651385
    113          6           0       -4.629783   -3.943022    2.144982
    114          6           0       -3.490351   -4.068486    1.336013
    115          6           0       -3.433651   -2.985719    0.417376
    116          6           0       -5.068603   -4.742205    3.238085
    117          6           0       -2.316975   -4.864877    1.057346
    118          8           0       -1.885416   -5.945408    1.457290
    119          6           0       -1.366355   -4.041290    0.085530
    120          6           0       -0.934279   -4.956559   -1.027173
    121          8           0       -1.764357   -5.396412   -1.842104
    122          8           0        0.409996   -4.986787   -1.075973
    123          6           0        0.886748   -5.872874   -2.171126
    124          1           0       -1.898334    2.379754   -2.494411
    125          1           0       -7.744458    2.692862   -0.318102
    126          1           0       -6.915926   -2.672463    2.838070
    127          1           0        0.380924   -1.832112   -1.294687
    128          1           0       -0.150627    0.492367   -2.795136
    129          1           0        0.426901    0.037682    0.103120
    130          1           0       -0.564305    1.470205   -0.242879
    131          1           0        1.009806    1.364416   -0.971345
    132          1           0       -1.095040   -1.400354   -3.902534
    133          1           0       -1.047149   -3.064375   -3.214107
    134          1           0        1.614324   -2.053699   -3.265441
    135          1           0        0.851339   -1.366371   -4.654805
    136          1           0       -2.762318    3.803303   -3.785834
    137          1           0       -3.910473    5.039882   -3.396208
    138          1           0       -4.272244    3.976391   -4.776377
    139          1           0       -6.040451    5.640814   -3.674531
    140          1           0       -7.854946    5.499886   -4.041202
    141          1           0       -6.642485    4.390476   -4.743049
    142          1           0       -9.256878    1.144801    1.029399
    143          1           0       -8.104611   -0.312757    3.354165
    144          1           0       -9.290787    2.743025    2.633666
    145          1           0       -7.494283    2.764006    2.543263
    146          1           0       -8.257356    1.772228    3.678915
    147          1           0      -10.429564   -0.699349    2.450330
    148          1           0       -9.512457   -2.156315    2.783719
    149          1           0      -10.275085   -0.825673    0.287735
    150          1           0      -10.375558   -2.583209    0.669568
    151          1           0       -8.802983   -1.797567    0.196166
    152          1           0       -4.972767   -5.774134    2.927530
    153          1           0       -6.092469   -4.504149    3.518821
    154          1           0       -4.351158   -4.435861    4.004051
    155          1           0       -0.520619   -3.687802    0.676589
    156          1           0        1.556912   -6.609476   -1.717272
    157          1           0        1.321162   -5.198769   -2.933120
    158          1           0        0.157220   -6.516536   -2.648548
 ---------------------------------------------------------------------

 SCF Done:  E(RCAM-B3LYP) =  -4069.81300548     A.U. after   19 cycles

 Excitation energies and oscillator strengths:

 Excited State   1:      Singlet-A      1.6418 eV  755.17 nm  f=0.0016  <S**2>=0.000
     309 -> 315        0.12041
     310 -> 316       -0.11349
     311 -> 313        0.49761
     312 -> 314       -0.47515
 This state for optimization and/or second-order correction.
 Total Energy, E(TD-HF/TD-DFT) =  -4069.75267001
 Copying the excited state density for this state as the 1-particle RhoCI density.

 Excited State   2:      Singlet-A      1.7054 eV  727.01 nm  f=0.6829  <S**2>=0.000
     309 -> 315        0.12641
     310 -> 316        0.13074
     311 -> 313        0.47218
     312 -> 314        0.49464

 Excited State   3:      Singlet-A      2.1788 eV  569.05 nm  f=0.0594  <S**2>=0.000
     309 -> 313        0.26989
     310 -> 314        0.58179
     311 -> 315       -0.11240
     312 -> 316       -0.24249

 Excited State   4:      Singlet-A      2.1914 eV  565.76 nm  f=0.1235  <S**2>=0.000
     309 -> 313        0.54516
     310 -> 314       -0.27369
     311 -> 315       -0.23969
     312 -> 313       -0.21126
     312 -> 316        0.12034

 Excited State   5:      Singlet-A      2.2198 eV  558.55 nm  f=0.0096  <S**2>=0.000
     309 -> 313        0.20134
     312 -> 313        0.67000

 The electronic state is 1-A.
 Alpha  occ. eigenvalues --  -46.88210 -46.87353 -19.26762 -19.25070 -19.19561
 Alpha  occ. eigenvalues --  -19.19172 -19.18463 -19.18461 -19.18219 -19.17552
 Alpha  occ. eigenvalues --  -14.42834 -14.42196 -14.41805 -14.41050 -14.39796
 Alpha  occ. eigenvalues --  -14.39047 -14.38954 -14.38278 -10.39548 -10.38109
 Alpha  occ. eigenvalues --  -10.35807 -10.35146 -10.34696 -10.33695 -10.32164
 Alpha  occ. eigenvalues --  -10.31782 -10.31331 -10.30979 -10.30943 -10.30858
 Alpha  occ. eigenvalues --  -10.30665 -10.30578 -10.30557 -10.30239 -10.30075
 Alpha  occ. eigenvalues --  -10.30018 -10.29980 -10.29893 -10.29625 -10.29582
 Alpha  occ. eigenvalues --  -10.29185 -10.29174 -10.29086 -10.28982 -10.28755
 Alpha  occ. eigenvalues --  -10.28514 -10.28217 -10.28165 -10.28137 -10.28105
 Alpha  occ. eigenvalues --  -10.28055 -10.27952 -10.27912 -10.27879 -10.27793
 Alpha  occ. eigenvalues --  -10.27764 -10.27710 -10.27687 -10.27537 -10.27397
 Alpha  occ. eigenvalues --  -10.27297 -10.27293 -10.27265 -10.27156 -10.27140
 Alpha  occ. eigenvalues --  -10.27107 -10.26800 -10.26568 -10.26395 -10.26359
 Alpha  occ. eigenvalues --  -10.26326 -10.26235 -10.26234 -10.26081 -10.26038
 Alpha  occ. eigenvalues --  -10.25944 -10.25665 -10.25648 -10.25576 -10.25189
 Alpha  occ. eigenvalues --  -10.25174 -10.25135 -10.24885 -10.24541 -10.24531
 Alpha  occ. eigenvalues --  -10.24373  -3.16907  -3.16104  -1.91790  -1.91377
 Alpha  occ. eigenvalues --   -1.91219  -1.90986  -1.90575  -1.90411  -1.17115
 Alpha  occ. eigenvalues --   -1.15452  -1.08921  -1.08109  -1.07572  -1.07146
 Alpha  occ. eigenvalues --   -1.06718  -1.05965  -1.04972  -1.04172  -1.04121
 Alpha  occ. eigenvalues --   -1.03598  -1.03350  -1.02772  -1.02735  -1.01799
 Alpha  occ. eigenvalues --   -0.92345  -0.91557  -0.89830  -0.89604  -0.89196
 Alpha  occ. eigenvalues --   -0.88842  -0.88584  -0.88176  -0.88054  -0.87949
 Alpha  occ. eigenvalues --   -0.87650  -0.87485  -0.87357  -0.86863  -0.85392
 Alpha  occ. eigenvalues --   -0.84673  -0.84226  -0.83580  -0.83321  -0.83042
 Alpha  occ. eigenvalues --   -0.82692  -0.82311  -0.81992  -0.81002  -0.80951
 Alpha  occ. eigenvalues --   -0.79899  -0.79154  -0.78355  -0.77566  -0.77314
 Alpha  occ. eigenvalues --   -0.76850  -0.76486  -0.76303  -0.75428  -0.75204
 Alpha  occ. eigenvalues --   -0.74450  -0.73111  -0.72397  -0.72023  -0.71264
 Alpha  occ. eigenvalues --   -0.70172  -0.69520  -0.69268  -0.68524  -0.68005
 Alpha  occ. eigenvalues --   -0.67684  -0.67242  -0.66836  -0.65698  -0.65241
 Alpha  occ. eigenvalues --   -0.65012  -0.64836  -0.64580  -0.64437  -0.64153
 Alpha  occ. eigenvalues --   -0.63860  -0.62712  -0.61456  -0.60795  -0.60199
 Alpha  occ. eigenvalues --   -0.60065  -0.59447  -0.59342  -0.58867  -0.58627
 Alpha  occ. eigenvalues --   -0.58070  -0.57955  -0.57651  -0.57045  -0.56757
 Alpha  occ. eigenvalues --   -0.56637  -0.56414  -0.55899  -0.55884  -0.55663
 Alpha  occ. eigenvalues --   -0.55291  -0.55012  -0.54841  -0.54750  -0.54333
 Alpha  occ. eigenvalues --   -0.53898  -0.53674  -0.53607  -0.53602  -0.53303
 Alpha  occ. eigenvalues --   -0.53154  -0.52883  -0.52785  -0.52694  -0.52420
 Alpha  occ. eigenvalues --   -0.52387  -0.52197  -0.52051  -0.52019  -0.51562
 Alpha  occ. eigenvalues --   -0.51535  -0.51301  -0.50956  -0.50768  -0.50360
 Alpha  occ. eigenvalues --   -0.50266  -0.50254  -0.49920  -0.49742  -0.49628
 Alpha  occ. eigenvalues --   -0.49592  -0.49448  -0.49227  -0.49006  -0.48832
 Alpha  occ. eigenvalues --   -0.48789  -0.48761  -0.48742  -0.48156  -0.48080
 Alpha  occ. eigenvalues --   -0.48035  -0.47962  -0.47657  -0.47251  -0.47131
 Alpha  occ. eigenvalues --   -0.46964  -0.46824  -0.46668  -0.46531  -0.46394
 Alpha  occ. eigenvalues --   -0.46249  -0.46156  -0.45954  -0.45626  -0.45497
 Alpha  occ. eigenvalues --   -0.45302  -0.44931  -0.44906  -0.44854  -0.44495
 Alpha  occ. eigenvalues --   -0.44449  -0.44382  -0.44214  -0.44078  -0.43955
 Alpha  occ. eigenvalues --   -0.43853  -0.43774  -0.43730  -0.43490  -0.43400
 Alpha  occ. eigenvalues --   -0.43255  -0.43105  -0.42955  -0.42697  -0.42570
 Alpha  occ. eigenvalues --   -0.42328  -0.42298  -0.42050  -0.41911  -0.41765
 Alpha  occ. eigenvalues --   -0.41599  -0.41488  -0.41275  -0.41255  -0.41218
 Alpha  occ. eigenvalues --   -0.41111  -0.40867  -0.40807  -0.40678  -0.40399
 Alpha  occ. eigenvalues --   -0.40384  -0.40179  -0.39731  -0.39605  -0.39181
 Alpha  occ. eigenvalues --   -0.38783  -0.38175  -0.38055  -0.37656  -0.37645
 Alpha  occ. eigenvalues --   -0.37273  -0.37132  -0.36973  -0.36839  -0.36557
 Alpha  occ. eigenvalues --   -0.36142  -0.35474  -0.34646  -0.34245  -0.33929
 Alpha  occ. eigenvalues --   -0.33560  -0.33102  -0.32752  -0.31700  -0.31407
 Alpha  occ. eigenvalues --   -0.31018  -0.30627  -0.30326  -0.29819  -0.29662
 Alpha  occ. eigenvalues --   -0.29425  -0.29029  -0.28874  -0.24453  -0.23698
 Alpha  occ. eigenvalues --   -0.21492  -0.20819
 Alpha virt. eigenvalues --   -0.09139  -0.08475  -0.02124  -0.01392  -0.00434
 Alpha virt. eigenvalues --    0.00234   0.01880   0.02585   0.03064   0.03577
 Alpha virt. eigenvalues --    0.04107   0.04526   0.04824   0.05405   0.06053

 Mulliken charges:
               1
     1  Mg   0.816284
     2  C   -0.004180
     3  C   -0.093510
     4  C   -0.043932
     5  C   -0.062074
     6  N   -0.252703
     7  C   -0.058623
     8  C    0.002973
     9  C   -0.086701
    10  C    0.043220
    11  C    0.104825
    12  C    0.004751
    13  C   -0.069703
    14  H    0.038416
    15  N   -0.436525
    16  C    0.163859
    17  C   -0.178947
    18  C   -0.006035
    19  C    0.148412
    20  C    0.110571
    21  C    0.011704
    22  O   -0.248412
    23  C    0.063269
    24  N   -0.337236
    25  C    0.039711
    26  C   -0.027903
    27  C   -0.024572
    28  C    0.075576
    29  C    0.075880
    30  C    0.034841
    31  C   -0.004932
    32  N   -0.310365
    33  C    0.080198
    34  C   -0.168257
    35  C    0.009685
    36  C    0.080619
    37  C    0.126611
    38  C    0.049204
    39  O   -0.185182
    40  C   -0.008184
    41  C    0.215047
    42  O   -0.253826
    43  O   -0.303581
    44  C    0.165955
    45  H   -0.017839
    46  H   -0.016555
    47  H   -0.040440
    48  H   -0.000220
    49  H   -0.004269
    50  H    0.026064
    51  H    0.017303
    52  H    0.017359
    53  H    0.013327
    54  H    0.078977
    55  H    0.018393
    56  H    0.018258
    57  H    0.006068
    58  H    0.027897
    59  H    0.037118
    60  H    0.038229
    61  H    0.036590
    62  H    0.028374
    63  H    0.017126
    64  H    0.010279
    65  H    0.023901
    66  H    0.012644
    67  H    0.005413
    68  H    0.007190
    69  H    0.005596
    70  H    0.009135
    71  H    0.019536
    72  H    0.028453
    73  H    0.050741
    74  H    0.010009
    75  H    0.046618
    76  H    0.036307
    77  H    0.044002
    78  H    0.046760
    79  H    0.033552
    80  Mg   0.836774
    81  C   -0.017424
    82  C   -0.087764
    83  C   -0.045961
    84  C   -0.066308
    85  N   -0.253939
    86  C   -0.051056
    87  C   -0.021690
    88  C   -0.092637
    89  C    0.044549
    90  C    0.079348
    91  C    0.067963
    92  C   -0.078657
    93  H    0.029084
    94  N   -0.423296
    95  C    0.162141
    96  C   -0.174975
    97  C   -0.008536
    98  C    0.151875
    99  C    0.100061
   100  C    0.015163
   101  O   -0.253971
   102  C    0.061377
   103  N   -0.350362
   104  C    0.037171
   105  C   -0.019543
   106  C   -0.034806
   107  C    0.089546
   108  C    0.073916
   109  C    0.034894
   110  C   -0.007548
   111  N   -0.324284
   112  C    0.079194
   113  C   -0.164071
   114  C    0.003317
   115  C    0.095454
   116  C    0.131644
   117  C    0.041307
   118  O   -0.185102
   119  C    0.004528
   120  C    0.206187
   121  O   -0.257984
   122  O   -0.287503
   123  C    0.162022
   124  H   -0.020976
   125  H   -0.016450
   126  H   -0.041213
   127  H    0.017562
   128  H   -0.005321
   129  H    0.037760
   130  H    0.016517
   131  H    0.043807
   132  H    0.009639
   133  H    0.038129
   134  H    0.023418
   135  H    0.012797
   136  H    0.006244
   137  H    0.025174
   138  H    0.038345
   139  H    0.037713
   140  H    0.035593
   141  H    0.033203
   142  H    0.013844
   143  H    0.011782
   144  H    0.024484
   145  H    0.011759
   146  H    0.004858
   147  H    0.005669
   148  H    0.003345
   149  H    0.010663
   150  H    0.017453
   151  H    0.030542
   152  H    0.046247
   153  H    0.007674
   154  H    0.046590
   155  H    0.044021
   156  H    0.050938
   157  H    0.047698
   158  H    0.042271
 Sum of Mulliken charges =  -0.00000

 Dipole moment (field-independent basis, Debye):
    X=              4.6155    Y=              5.9376    Z=             -3.4691  Tot=              8.2821
 Quadrupole moment (field-independent basis, Debye-Ang):
   XX=           -500.5037   YY=           -563.0211   ZZ=           -459.1787
   XY=             17.0207   XZ=            -37.2531   YZ=             -3.1012

 Normal termination of Gaussian 16 at Fri Sep 10 02:05:36 2021.
