 Gaussian 16, Revision A.03,
 Gaussian 16:  ES64L-G16RevA.03 25-Dec-2016

 -----------------------------------
 #p cam-b3lyp/Def2SVP td=(nstates=5)
 -----------------------------------

 --------------------------------
 TDDFT excited states in gaussian
 --------------------------------
 Symbolic Z-matrix:
 Charge =  0 Multiplicity = 1

                         Standard orientation:
 ---------------------------------------------------------------------
 Center     Atomic      Atomic             Coordinates (Angstroms)
 Number     Number       Type             X           Y           Z
 ---------------------------------------------------------------------
      1         12           0      -15.809356   -0.741993    0.099313
      2          6           0      -16.002515    2.824820    0.328987
      3          6           0      -16.689134   -0.429486   -3.182667
      4          6           0      -16.088829   -3.898847   -0.013782
      5          6           0      -16.065079   -0.832013    3.573815
      6          7           0      -16.260132    1.026909   -1.153058
      7          6           0      -16.240186    2.341988   -0.959823
      8          6           0      -16.420970    3.162080   -2.272127
      9          6           0      -17.178054    2.067866   -3.150488
     10          6           0      -16.651628    0.811307   -2.479774
     11          6           0      -18.695176    2.107310   -2.997892
     12          6           0      -15.051206    3.565038   -2.914856
     13          6           0      -15.131865    4.634555   -4.008008
     14          1           0      -14.053942    5.605763   -4.118402
     15          7           0      -15.834840   -1.971352   -1.446933
     16          6           0      -16.205498   -1.670461   -2.714751
     17          6           0      -16.050297   -2.918894   -3.491931
     18          6           0      -15.741048   -4.016076   -2.533468
     19          6           0      -15.903822   -3.335576   -1.274181
     20          6           0      -16.147365   -2.975715   -4.985618
     21          6           0      -15.369631   -5.452922   -2.722291
     22          8           0      -15.370739   -6.288554   -1.754669
     23          6           0      -15.086395   -5.882146   -4.103807
     24          7           0      -16.263797   -2.179965    1.542696
     25          6           0      -16.262172   -3.483403    1.242643
     26          6           0      -16.333818   -4.328575    2.479772
     27          6           0      -16.139234   -3.329135    3.709817
     28          6           0      -16.067201   -1.997396    2.922702
     29          6           0      -17.630977   -5.126610    2.670901
     30          6           0      -15.002065   -3.657459    4.709551
     31          6           0      -13.659951   -3.493528    4.032089
     32          7           0      -15.822927    0.715779    1.707343
     33          6           0      -15.961954    0.457191    3.078648
     34          6           0      -16.021760    1.763104    3.760619
     35          6           0      -15.929432    2.696826    2.730336
     36          6           0      -15.845371    2.017387    1.481501
     37          6           0      -16.204281    1.966481    5.156956
     38          6           0      -15.907038    4.110626    2.391922
     39          8           0      -15.853977    5.156733    3.040257
     40          6           0      -16.076160    4.251061    0.814740
     41          6           0      -15.027495    5.214296    0.329159
     42          8           0      -13.815685    4.920921    0.382202
     43          8           0      -15.619870    6.219256   -0.333932
     44          6           0      -14.632888    7.195462   -0.867824
     45          1           0      -17.185586   -0.470990   -4.154137
     46          1           0      -16.079472   -4.990663    0.003154
     47          1           0      -16.059441   -0.781914    4.664187
     48          1           0      -17.042016    4.052180   -2.169915
     49          1           0      -16.867699    2.098430   -4.194743
     50          1           0      -18.998594    2.797269   -2.210608
     51          1           0      -18.988867    1.088324   -2.745097
     52          1           0      -19.174755    2.329524   -3.951517
     53          1           0      -14.669454    2.729100   -3.500974
     54          1           0      -14.344800    3.885554   -2.148314
     55          1           0      -16.099623    5.136883   -4.003515
     56          1           0      -15.089602    4.136635   -4.976764
     57          1           0      -16.546513   -2.049236   -5.396548
     58          1           0      -16.899495   -3.726387   -5.227486
     59          1           0      -15.197735   -3.244292   -5.448653
     60          1           0      -15.963365   -5.698121   -4.724779
     61          1           0      -14.752017   -6.916682   -4.034691
     62          1           0      -14.287480   -5.260954   -4.509769
     63          1           0      -15.536705   -5.070775    2.493025
     64          1           0      -17.031855   -3.268748    4.332919
     65          1           0      -17.473251   -6.200482    2.773987
     66          1           0      -18.288779   -4.906862    1.830486
     67          1           0      -18.243275   -4.808514    3.514301
     68          1           0      -15.071979   -4.694481    5.036116
     69          1           0      -15.016174   -3.027888    5.599322
     70          1           0      -13.526355   -4.447149    3.522588
     71          1           0      -12.876488   -3.333971    4.773667
     72          1           0      -13.692207   -2.717223    3.267369
     73          1           0      -15.503358    2.749763    5.445306
     74          1           0      -16.025640    1.049102    5.717407
     75          1           0      -17.249653    2.273825    5.181305
     76          1           0      -17.085468    4.622161    0.639518
     77          1           0      -14.909976    8.176193   -0.481013
     78          1           0      -14.620547    7.063331   -1.949856
     79          1           0      -13.613656    7.105826   -0.490372
     80         12           0       15.948070   -0.819308    0.039922
     81          6           0       15.908736    2.761540    0.274565
     82          6           0       14.921566   -0.469536   -3.194047
     83          6           0       15.538510   -3.963905   -0.065839
     84          6           0       15.851412   -0.909889    3.522475
     85          7           0       15.507081    0.967087   -1.187507
     86          6           0       15.586775    2.277293   -1.010463
     87          6           0       15.384239    3.114343   -2.301932
     88          6           0       14.533901    2.047493   -3.149066
     89          6           0       15.039486    0.760908   -2.499633
     90          6           0       13.036276    2.146177   -2.910903
     91          6           0       16.741495    3.459171   -3.009717
     92          6           0       16.644793    4.529070   -4.099550
     93          1           0       17.760665    5.456281   -4.265625
     94          7           0       15.800538   -2.043622   -1.515023
     95          6           0       15.387877   -1.730284   -2.761140
     96          6           0       15.439802   -2.983860   -3.529266
     97          6           0       15.759164   -4.095170   -2.592400
     98          6           0       15.689767   -3.398456   -1.323586
     99          6           0       15.276792   -3.031611   -5.020762
    100          6           0       16.062610   -5.547731   -2.802589
    101          8           0       16.076340   -6.380568   -1.828416
    102          6           0       16.251116   -5.983419   -4.194032
    103          7           0       15.513752   -2.234498    1.499697
    104          6           0       15.441926   -3.542179    1.195174
    105          6           0       15.393304   -4.391017    2.443172
    106          6           0       15.692488   -3.391027    3.654829
    107          6           0       15.777799   -2.062684    2.871475
    108          6           0       14.075353   -5.121383    2.700005
    109          6           0       16.863487   -3.765920    4.603979
    110          6           0       18.178575   -3.667891    3.864845
    111          7           0       16.075840    0.629489    1.637651
    112          6           0       15.986764    0.379780    3.024666
    113          6           0       16.013568    1.690521    3.705601
    114          6           0       16.093825    2.620344    2.658003
    115          6           0       16.095137    1.938249    1.411310
    116          6           0       15.917803    1.900365    5.110206
    117          6           0       16.167006    4.024286    2.322919
    118          8           0       16.286666    5.065925    2.966664
    119          6           0       15.922890    4.184317    0.760492
    120          6           0       16.984571    5.100155    0.215890
    121          8           0       18.179971    4.757291    0.224018
    122          8           0       16.395110    6.129719   -0.418872
    123          6           0       17.407384    7.060077   -0.985913
    124          1           0       14.383795   -0.480546   -4.142493
    125          1           0       15.504380   -5.055540   -0.040644
    126          1           0       15.924023   -0.857724    4.610907
    127          1           0       14.811653    4.024324   -2.168333
    128          1           0       14.802900    2.074450   -4.201807
    129          1           0       12.799162    2.841283   -2.119222
    130          1           0       12.713990    1.147503   -2.646635
    131          1           0       12.521544    2.391897   -3.844177
    132          1           0       17.057052    2.600769   -3.616601
    133          1           0       17.485148    3.742285   -2.290381
    134          1           0       15.694427    5.074990   -4.058068
    135          1           0       16.626352    4.032446   -5.072705
    136          1           0       14.889197   -2.083531   -5.413604
    137          1           0       14.484448   -3.757651   -5.232746
    138          1           0       16.188665   -3.343620   -5.534373
    139          1           0       15.355251   -5.757828   -4.767614
    140          1           0       16.547130   -7.032552   -4.134194
    141          1           0       17.064249   -5.397549   -4.636968
    142          1           0       16.160169   -5.155562    2.420979
    143          1           0       14.830229   -3.301765    4.331861
    144          1           0       14.194960   -6.217134    2.795312
    145          1           0       13.390429   -4.882005    1.897437
    146          1           0       13.526488   -4.788274    3.579207
    147          1           0       16.768101   -4.804121    4.931358
    148          1           0       16.910669   -3.150041    5.495866
    149          1           0       18.242518   -4.629252    3.346395
    150          1           0       19.002528   -3.541017    4.564159
    151          1           0       18.142897   -2.882913    3.100513
    152          1           0       16.655827    2.649598    5.364109
    153          1           0       16.081231    0.977118    5.662183
    154          1           0       14.883373    2.246111    5.185672
    155          1           0       14.920851    4.593377    0.625682
    156          1           0       17.186244    8.054756   -0.586658
    157          1           0       17.348227    6.933190   -2.083249
    158          1           0       18.437138    6.931056   -0.673824
 ---------------------------------------------------------------------

 SCF Done:  E(RCAM-B3LYP) =  -4069.81176332     A.U. after   19 cycles

 Excitation energies and oscillator strengths:

 Excited State   1:      Singlet-A      1.6753 eV  740.07 nm  f=0.2124  <S**2>=0.000
     310 -> 316        0.16859
     311 -> 314       -0.16250
     312 -> 313        0.66653
     310 <- 316        0.10164
 This state for optimization and/or second-order correction.
 Total Energy, E(TD-HF/TD-DFT) =  -4069.75019682
 Copying the excited state density for this state as the 1-particle RhoCI density.

 Excited State   2:      Singlet-A      1.6801 eV  737.96 nm  f=0.5650  <S**2>=0.000
     309 -> 315        0.17061
     311 -> 314        0.66617
     312 -> 313        0.16245
     309 <- 315        0.10215

 Excited State   3:      Singlet-A      2.1861 eV  567.15 nm  f=0.0950  <S**2>=0.000
     310 -> 313        0.64209
     312 -> 316       -0.27294

 Excited State   4:      Singlet-A      2.1925 eV  565.49 nm  f=0.1051  <S**2>=0.000
     309 -> 314        0.64032
     311 -> 315       -0.27814

 Excited State   5:      Singlet-A      3.0664 eV  404.33 nm  f=0.0000  <S**2>=0.000
     311 -> 313        0.70711

 The electronic state is 1-A.
 Alpha  occ. eigenvalues --  -46.87798 -46.87660 -19.26348 -19.26285 -19.19160
 Alpha  occ. eigenvalues --  -19.19021 -19.18818 -19.18715 -19.18170 -19.18050
 Alpha  occ. eigenvalues --  -14.42497 -14.42452 -14.41451 -14.41359 -14.39405
 Alpha  occ. eigenvalues --  -14.39352 -14.38599 -14.38588 -10.39089 -10.39081
 Alpha  occ. eigenvalues --  -10.35451 -10.35393 -10.34390 -10.34227 -10.31754
 Alpha  occ. eigenvalues --  -10.31680 -10.31407 -10.31308 -10.31023 -10.30911
 Alpha  occ. eigenvalues --  -10.30571 -10.30509 -10.30398 -10.30360 -10.30208
 Alpha  occ. eigenvalues --  -10.30141 -10.29922 -10.29894 -10.29632 -10.29437
 Alpha  occ. eigenvalues --  -10.29401 -10.29256 -10.28751 -10.28719 -10.28655
 Alpha  occ. eigenvalues --  -10.28542 -10.28405 -10.28366 -10.28140 -10.28119
 Alpha  occ. eigenvalues --  -10.28001 -10.27794 -10.27729 -10.27669 -10.27586
 Alpha  occ. eigenvalues --  -10.27517 -10.27502 -10.27485 -10.27483 -10.27469
 Alpha  occ. eigenvalues --  -10.27465 -10.27450 -10.27405 -10.27375 -10.27159
 Alpha  occ. eigenvalues --  -10.27049 -10.26708 -10.26693 -10.26417 -10.26414
 Alpha  occ. eigenvalues --  -10.26236 -10.26184 -10.26138 -10.26023 -10.26021
 Alpha  occ. eigenvalues --  -10.25934 -10.25849 -10.25843 -10.25436 -10.25396
 Alpha  occ. eigenvalues --  -10.24872 -10.24834 -10.24789 -10.24732 -10.24690
 Alpha  occ. eigenvalues --  -10.24688  -3.16541  -3.16410  -1.91423  -1.91293
 Alpha  occ. eigenvalues --   -1.91009  -1.90881  -1.90851  -1.90718  -1.16642
 Alpha  occ. eigenvalues --   -1.16634  -1.08657  -1.08628  -1.07219  -1.06968
 Alpha  occ. eigenvalues --   -1.06945  -1.06643  -1.04583  -1.04495  -1.03762
 Alpha  occ. eigenvalues --   -1.03663  -1.03235  -1.03039  -1.02413  -1.02111
 Alpha  occ. eigenvalues --   -0.91987  -0.91974  -0.89521  -0.89494  -0.89190
 Alpha  occ. eigenvalues --   -0.89151  -0.88288  -0.88220  -0.87871  -0.87793
 Alpha  occ. eigenvalues --   -0.87684  -0.87675  -0.87276  -0.87121  -0.84999
 Alpha  occ. eigenvalues --   -0.84984  -0.83937  -0.83876  -0.82970  -0.82933
 Alpha  occ. eigenvalues --   -0.82653  -0.82651  -0.81596  -0.81587  -0.80598
 Alpha  occ. eigenvalues --   -0.80442  -0.78799  -0.78636  -0.77220  -0.77144
 Alpha  occ. eigenvalues --   -0.76936  -0.76898  -0.75925  -0.75838  -0.74899
 Alpha  occ. eigenvalues --   -0.74802  -0.72776  -0.72699  -0.71674  -0.71580
 Alpha  occ. eigenvalues --   -0.69908  -0.69758  -0.68875  -0.68827  -0.67643
 Alpha  occ. eigenvalues --   -0.67602  -0.67222  -0.67200  -0.65288  -0.65271
 Alpha  occ. eigenvalues --   -0.64855  -0.64770  -0.64653  -0.64622  -0.64271
 Alpha  occ. eigenvalues --   -0.64204  -0.62299  -0.62278  -0.60444  -0.60340
 Alpha  occ. eigenvalues --   -0.59806  -0.59796  -0.58993  -0.58989  -0.58505
 Alpha  occ. eigenvalues --   -0.58425  -0.57586  -0.57553  -0.57310  -0.57236
 Alpha  occ. eigenvalues --   -0.56311  -0.56204  -0.55980  -0.55886  -0.55522
 Alpha  occ. eigenvalues --   -0.55452  -0.55340  -0.55247  -0.54524  -0.54487
 Alpha  occ. eigenvalues --   -0.53912  -0.53897  -0.53301  -0.53228  -0.53224
 Alpha  occ. eigenvalues --   -0.53142  -0.52916  -0.52902  -0.52759  -0.52669
 Alpha  occ. eigenvalues --   -0.52439  -0.52401  -0.51915  -0.51884  -0.51659
 Alpha  occ. eigenvalues --   -0.51619  -0.51201  -0.51197  -0.50575  -0.50476
 Alpha  occ. eigenvalues --   -0.50033  -0.49980  -0.49921  -0.49867  -0.49517
 Alpha  occ. eigenvalues --   -0.49488  -0.49216  -0.49202  -0.49104  -0.49098
 Alpha  occ. eigenvalues --   -0.48594  -0.48558  -0.48463  -0.48447  -0.48375
 Alpha  occ. eigenvalues --   -0.48339  -0.47697  -0.47595  -0.47299  -0.47118
 Alpha  occ. eigenvalues --   -0.46798  -0.46709  -0.46557  -0.46554  -0.46360
 Alpha  occ. eigenvalues --   -0.46270  -0.46164  -0.46085  -0.45823  -0.45821
 Alpha  occ. eigenvalues --   -0.45208  -0.45202  -0.44579  -0.44514  -0.44509
 Alpha  occ. eigenvalues --   -0.44476  -0.44146  -0.44127  -0.44090  -0.44078
 Alpha  occ. eigenvalues --   -0.44021  -0.43939  -0.43552  -0.43496  -0.43387
 Alpha  occ. eigenvalues --   -0.43385  -0.43028  -0.42930  -0.42900  -0.42700
 Alpha  occ. eigenvalues --   -0.42656  -0.42554  -0.42011  -0.41964  -0.41705
 Alpha  occ. eigenvalues --   -0.41669  -0.41536  -0.41459  -0.41143  -0.40989
 Alpha  occ. eigenvalues --   -0.40871  -0.40826  -0.40723  -0.40699  -0.40572
 Alpha  occ. eigenvalues --   -0.40493  -0.40237  -0.40227  -0.39442  -0.39426
 Alpha  occ. eigenvalues --   -0.38470  -0.38350  -0.37751  -0.37654  -0.37322
 Alpha  occ. eigenvalues --   -0.37266  -0.37265  -0.37199  -0.36770  -0.36714
 Alpha  occ. eigenvalues --   -0.36217  -0.36194  -0.34287  -0.34253  -0.33861
 Alpha  occ. eigenvalues --   -0.33772  -0.33188  -0.33175  -0.31347  -0.31274
 Alpha  occ. eigenvalues --   -0.31037  -0.30973  -0.30030  -0.29954  -0.29451
 Alpha  occ. eigenvalues --   -0.29327  -0.29323  -0.29211  -0.24082  -0.24036
 Alpha  occ. eigenvalues --   -0.21129  -0.21117
 Alpha virt. eigenvalues --   -0.08792  -0.08776  -0.01751  -0.01684  -0.00060
 Alpha virt. eigenvalues --   -0.00029   0.02199   0.02208   0.03121   0.03226
 Alpha virt. eigenvalues --    0.04716   0.04730   0.05097   0.05166   0.06175

 Mulliken charges:
               1
     1  Mg   0.838772
     2  C   -0.002975
     3  C   -0.094129
     4  C   -0.045873
     5  C   -0.063958
     6  N   -0.256780
     7  C   -0.052462
     8  C   -0.014019
     9  C   -0.087002
    10  C    0.046324
    11  C    0.104812
    12  C    0.053473
    13  C   -0.071789
    14  H    0.036111
    15  N   -0.433144
    16  C    0.168420
    17  C   -0.177172
    18  C   -0.004008
    19  C    0.148712
    20  C    0.110181
    21  C    0.012273
    22  O   -0.249624
    23  C    0.062483
    24  N   -0.341173
    25  C    0.041256
    26  C   -0.028178
    27  C   -0.023983
    28  C    0.074865
    29  C    0.076163
    30  C    0.035119
    31  C   -0.004504
    32  N   -0.310470
    33  C    0.080415
    34  C   -0.169690
    35  C    0.008358
    36  C    0.082967
    37  C    0.127308
    38  C    0.046134
    39  O   -0.188412
    40  C   -0.005317
    41  C    0.212866
    42  O   -0.257107
    43  O   -0.304795
    44  C    0.157695
    45  H   -0.017614
    46  H   -0.016837
    47  H   -0.041473
    48  H    0.000947
    49  H   -0.004049
    50  H    0.025483
    51  H    0.016450
    52  H    0.016653
    53  H    0.011188
    54  H    0.044124
    55  H    0.017880
    56  H    0.017930
    57  H    0.005865
    58  H    0.026821
    59  H    0.039522
    60  H    0.037345
    61  H    0.035640
    62  H    0.031479
    63  H    0.016553
    64  H    0.009472
    65  H    0.023214
    66  H    0.012545
    67  H    0.004764
    68  H    0.006374
    69  H    0.004748
    70  H    0.008774
    71  H    0.018160
    72  H    0.028970
    73  H    0.047593
    74  H    0.009124
    75  H    0.046019
    76  H    0.035156
    77  H    0.042963
    78  H    0.046383
    79  H    0.053690
    80  Mg   0.837866
    81  C   -0.016832
    82  C   -0.087769
    83  C   -0.045502
    84  C   -0.064872
    85  N   -0.254557
    86  C   -0.049844
    87  C   -0.015074
    88  C   -0.090506
    89  C    0.045754
    90  C    0.114363
    91  C    0.062523
    92  C   -0.077897
    93  H    0.034896
    94  N   -0.423495
    95  C    0.162905
    96  C   -0.174614
    97  C   -0.007816
    98  C    0.152121
    99  C    0.099360
   100  C    0.015567
   101  O   -0.253176
   102  C    0.061194
   103  N   -0.350061
   104  C    0.037524
   105  C   -0.019840
   106  C   -0.034829
   107  C    0.088931
   108  C    0.073643
   109  C    0.034735
   110  C   -0.007682
   111  N   -0.324116
   112  C    0.078451
   113  C   -0.163112
   114  C    0.002270
   115  C    0.096188
   116  C    0.131483
   117  C    0.042392
   118  O   -0.187830
   119  C    0.000933
   120  C    0.211255
   121  O   -0.251025
   122  O   -0.305623
   123  C    0.152034
   124  H   -0.019664
   125  H   -0.015568
   126  H   -0.040427
   127  H   -0.000619
   128  H   -0.004341
   129  H    0.022506
   130  H    0.014445
   131  H    0.016288
   132  H    0.013907
   133  H    0.037674
   134  H    0.020808
   135  H    0.019578
   136  H    0.008759
   137  H    0.026143
   138  H    0.039780
   139  H    0.038250
   140  H    0.036391
   141  H    0.033889
   142  H    0.014395
   143  H    0.012462
   144  H    0.025141
   145  H    0.011660
   146  H    0.005721
   147  H    0.006273
   148  H    0.003669
   149  H    0.010927
   150  H    0.017934
   151  H    0.030092
   152  H    0.046015
   153  H    0.008521
   154  H    0.047010
   155  H    0.035078
   156  H    0.043938
   157  H    0.049480
   158  H    0.053570
 Sum of Mulliken charges =  -0.00000

 Dipole moment (field-independent basis, Debye):
    X=             -4.2479    Y=             -2.3213    Z=             -7.6649  Tot=              9.0656
 Quadrupole moment (field-independent basis, Debye-Ang):
   XX=           -523.7585   YY=           -551.0639   ZZ=           -447.5396
   XY=             -4.2552   XZ=              3.6015   YZ=            -48.8756

 Normal termination of Gaussian 16 at Sun Sep 12 20:21:17 2021.
