 Gaussian 16, Revision A.03,
 Gaussian 16:  ES64L-G16RevA.03 25-Dec-2016

 -----------------------------------
 #p cam-b3lyp/Def2SVP td=(nstates=5)
 -----------------------------------

 --------------------------------
 TDDFT excited states in gaussian
 --------------------------------
 Symbolic Z-matrix:
 Charge =  0 Multiplicity = 1

                         Standard orientation:
 ---------------------------------------------------------------------
 Center     Atomic      Atomic             Coordinates (Angstroms)
 Number     Number       Type             X           Y           Z
 ---------------------------------------------------------------------
      1         12           0        4.539211    0.445471    1.273120
      2          6           0        5.258124   -2.500367   -0.628830
      3          6           0        6.122420    2.227826   -1.168134
      4          6           0        4.318537    2.996564    3.143909
      5          6           0        4.047187   -1.631819    4.027832
      6          7           0        5.522790   -0.171211   -0.611799
      7          6           0        5.677314   -1.324359   -1.254873
      8          6           0        6.258581   -1.157934   -2.690772
      9          6           0        6.993671    0.244449   -2.503792
     10          6           0        6.141719    0.818034   -1.385265
     11          6           0        8.431427    0.117725   -2.010536
     12          6           0        5.137070   -1.076111   -3.780381
     13          6           0        5.616704   -1.241128   -5.225398
     14          1           0        4.758204   -1.935314   -6.173255
     15          7           0        4.685912    2.367618    0.841057
     16          6           0        5.356529    2.914485   -0.201294
     17          6           0        5.165617    4.376381   -0.086861
     18          6           0        4.489091    4.646612    1.212132
     19          6           0        4.494419    3.333111    1.803794
     20          6           0        5.561229    5.344301   -1.159415
     21          6           0        3.936396    5.893106    1.827691
     22          8           0        3.599841    5.951801    3.059706
     23          6           0        3.881256    7.084761    0.961690
     24          7           0        4.442691    0.683120    3.344797
     25          6           0        4.291517    1.893168    3.894264
     26          6           0        3.965279    1.792697    5.354885
     27          6           0        3.683965    0.246897    5.639697
     28          6           0        3.995246   -0.313280    4.229883
     29          6           0        5.046572    2.300654    6.318625
     30          6           0        2.325511   -0.111984    6.292556
     31          6           0        1.199003    0.179171    5.326478
     32          7           0        4.454474   -1.694448    1.626122
     33          6           0        4.260725   -2.339007    2.856439
     34          6           0        4.388830   -3.787141    2.610344
     35          6           0        4.666433   -3.884121    1.248222
     36          6           0        4.735011   -2.577986    0.684661
     37          6           0        4.306994   -4.810340    3.595636
     38          6           0        4.945443   -4.786219    0.142677
     39          8           0        4.929425   -6.009239   -0.003817
     40          6           0        5.460046   -3.921804   -1.091744
     41          6           0        4.706645   -4.377822   -2.311475
     42          8           0        3.479160   -4.178895   -2.416714
     43          8           0        5.579665   -4.758411   -3.256742
     44          6           0        4.897930   -5.194818   -4.504516
     45          1           0        6.796880    2.860525   -1.748425
     46          1           0        4.128295    3.844323    3.805385
     47          1           0        3.822697   -2.345225    4.822886
     48          1           0        6.981090   -1.921347   -2.979919
     49          1           0        6.916931    0.866231   -3.395543
     50          1           0        8.672286   -0.911564   -1.745073
     51          1           0        8.496154    0.762159   -1.133605
     52          1           0        9.128816    0.532114   -2.739033
     53          1           0        4.754989   -0.056357   -3.827031
     54          1           0        4.348239   -1.801255   -3.577312
     55          1           0        6.630839   -1.639645   -5.265688
     56          1           0        5.696775   -0.250848   -5.673879
     57          1           0        6.182581    4.869702   -1.917849
     58          1           0        6.214823    6.083191   -0.696203
     59          1           0        4.698168    5.842517   -1.601272
     60          1           0        4.886363    7.323169    0.613161
     61          1           0        3.376009    7.855537    1.542620
     62          1           0        3.296461    6.848158    0.072317
     63          1           0        3.072980    2.368639    5.596792
     64          1           0        4.424810   -0.186567    6.311955
     65          1           0        4.698210    3.081189    6.995466
     66          1           0        5.891850    2.646834    5.724524
     67          1           0        5.513108    1.528694    6.930050
     68          1           0        2.156118    0.501229    7.176989
     69          1           0        2.256173   -1.156895    6.595217
     70          1           0        1.021130    1.243841    5.473691
     71          1           0        0.314862   -0.403949    5.586241
     72          1           0        1.515800    0.041653    4.292449
     73          1           0        3.698407   -5.603642    3.161746
     74          1           0        3.868626   -4.435524    4.520271
     75          1           0        5.360111   -5.067935    3.707196
     76          1           0        6.530344   -4.106114   -1.179001
     77          1           0        5.244167   -6.205086   -4.722948
     78          1           0        5.089992   -4.422071   -5.249082
     79          1           0        3.821729   -5.356754   -4.434462
     80         12           0       -4.139405    0.486074   -1.094207
     81          6           0       -6.615378   -1.622120    0.423732
     82          6           0       -6.495283    2.951847   -1.160573
     83          6           0       -2.131776    2.220542   -2.834457
     84          6           0       -2.393878   -2.409106   -1.940826
     85          7           0       -6.246923    0.537318   -0.424854
     86          6           0       -7.061763   -0.304100    0.193509
     87          6           0       -8.402626    0.324215    0.659228
     88          6           0       -8.470653    1.544906   -0.382002
     89          6           0       -6.977542    1.719476   -0.651865
     90          6           0       -9.153336    1.182519   -1.690425
     91          6           0       -8.340030    0.836084    2.141142
     92          6           0       -9.696596    1.178037    2.761240
     93          1           0       -9.901425    0.905371    4.181168
     94          7           0       -4.102859    2.438612   -1.447540
     95          6           0       -5.147297    3.292352   -1.408187
     96          6           0       -4.602203    4.611568   -1.764169
     97          6           0       -3.183224    4.436853   -2.177310
     98          6           0       -3.088293    2.990840   -2.189298
     99          6           0       -5.387206    5.882733   -1.618141
    100          6           0       -2.095789    5.409930   -2.519061
    101          8           0       -1.007364    5.033174   -3.081407
    102          6           0       -2.381054    6.828977   -2.261326
    103          7           0       -2.609990   -0.022519   -2.407441
    104          6           0       -1.856365    0.925615   -2.991402
    105          6           0       -0.650999    0.321957   -3.671920
    106          6           0       -0.622725   -1.210582   -3.215741
    107          6           0       -1.924279   -1.251473   -2.385265
    108          6           0       -0.641099    0.398536   -5.198495
    109          6           0        0.688228   -1.725966   -2.561176
    110          6           0        0.892073   -1.059250   -1.219790
    111          7           0       -4.325675   -1.623547   -0.666603
    112          6           0       -3.501612   -2.666512   -1.143292
    113          6           0       -4.092646   -3.936931   -0.675178
    114          6           0       -5.241381   -3.543089    0.027523
    115          6           0       -5.369024   -2.128471   -0.017799
    116          6           0       -3.593363   -5.240010   -0.955913
    117          6           0       -6.380808   -4.003102    0.788304
    118          8           0       -6.751680   -5.092054    1.224615
    119          6           0       -7.389843   -2.788711    0.971351
    120          6           0       -7.800679   -2.740110    2.417510
    121          8           0       -6.967645   -2.477318    3.302727
    122          8           0       -9.142683   -2.796242    2.496459
    123          6           0       -9.599167   -2.740038    3.910768
    124          1           0       -7.219962    3.718282   -1.436811
    125          1           0       -1.351457    2.778321   -3.357398
    126          1           0       -1.856044   -3.349348   -2.079987
    127          1           0       -9.269330   -0.314852    0.540101
    128          1           0       -8.881140    2.437761    0.082389
    129          1           0       -9.375687    0.127470   -1.750134
    130          1           0       -8.461675    1.468234   -2.472101
    131          1           0      -10.043743    1.801085   -1.834974
    132          1           0       -7.870430    1.828031    2.157799
    133          1           0       -7.824187    0.132868    2.765663
    134          1           0      -10.531516    0.783092    2.169735
    135          1           0       -9.831455    2.261790    2.724939
    136          1           0       -6.452276    5.680730   -1.450111
    137          1           0       -5.356804    6.390556   -2.588214
    138          1           0       -4.973347    6.548367   -0.857658
    139          1           0       -3.264325    7.127224   -2.821096
    140          1           0       -1.453192    7.358926   -2.485172
    141          1           0       -2.625486    6.949535   -1.200035
    142          1           0        0.261141    0.803749   -3.341826
    143          1           0       -0.771273   -1.891754   -4.066499
    144          1           0        0.251883    0.910585   -5.604037
    145          1           0       -1.545057    0.897878   -5.521074
    146          1           0       -0.711841   -0.560170   -5.709454
    147          1           0        1.550189   -1.455904   -3.176185
    148          1           0        0.711085   -2.802620   -2.429707
    149          1           0        1.356892   -0.105346   -1.486431
    150          1           0        1.549385   -1.656509   -0.591087
    151          1           0       -0.068551   -0.835526   -0.741449
    152          1           0       -3.646105   -5.799488   -0.031407
    153          1           0       -2.576450   -5.201722   -1.340879
    154          1           0       -4.308533   -5.563096   -1.717106
    155          1           0       -8.239032   -2.965883    0.310252
    156          1           0      -10.223670   -3.622634    4.080233
    157          1           0      -10.081163   -1.751509    4.030063
    158          1           0       -8.849759   -2.859510    4.684430
 ---------------------------------------------------------------------

 SCF Done:  E(RCAM-B3LYP) =  -4069.81580318     A.U. after   19 cycles

 Excitation energies and oscillator strengths:

 Excited State   1:      Singlet-A      1.6432 eV  754.54 nm  f=0.0045  <S**2>=0.000
     309 -> 315       -0.11147
     310 -> 316        0.12266
     311 -> 313       -0.46014
     312 -> 314        0.51118
 This state for optimization and/or second-order correction.
 Total Energy, E(TD-HF/TD-DFT) =  -4069.75541750
 Copying the excited state density for this state as the 1-particle RhoCI density.

 Excited State   2:      Singlet-A      1.7032 eV  727.94 nm  f=0.6892  <S**2>=0.000
     309 -> 315        0.13518
     310 -> 316        0.12042
     311 -> 313        0.50867
     312 -> 314        0.45777

 Excited State   3:      Singlet-A      2.1808 eV  568.52 nm  f=0.0703  <S**2>=0.000
     309 -> 313        0.19198
     310 -> 314        0.61508
     312 -> 316       -0.25664

 Excited State   4:      Singlet-A      2.1967 eV  564.41 nm  f=0.1208  <S**2>=0.000
     309 -> 313        0.61114
     310 -> 314       -0.18859
     311 -> 315       -0.26794

 Excited State   5:      Singlet-A      2.3858 eV  519.67 nm  f=0.0000  <S**2>=0.000
     312 -> 313        0.70652

 The electronic state is 1-A.
 Alpha  occ. eigenvalues --  -46.87738 -46.87357 -19.26629 -19.26172 -19.19522
 Alpha  occ. eigenvalues --  -19.18970 -19.18708 -19.18559 -19.18211 -19.17806
 Alpha  occ. eigenvalues --  -14.42421 -14.42209 -14.41390 -14.41015 -14.39336
 Alpha  occ. eigenvalues --  -14.39064 -14.38562 -14.38295 -10.39484 -10.38893
 Alpha  occ. eigenvalues --  -10.35336 -10.35245 -10.34449 -10.33982 -10.31976
 Alpha  occ. eigenvalues --  -10.31606 -10.31409 -10.31011 -10.30911 -10.30779
 Alpha  occ. eigenvalues --  -10.30543 -10.30460 -10.30104 -10.30087 -10.30043
 Alpha  occ. eigenvalues --  -10.29875 -10.29755 -10.29580 -10.29532 -10.29169
 Alpha  occ. eigenvalues --  -10.29145 -10.29104 -10.28850 -10.28735 -10.28505
 Alpha  occ. eigenvalues --  -10.28497 -10.28351 -10.28161 -10.28143 -10.27912
 Alpha  occ. eigenvalues --  -10.27738 -10.27719 -10.27684 -10.27514 -10.27423
 Alpha  occ. eigenvalues --  -10.27380 -10.27371 -10.27348 -10.27302 -10.27293
 Alpha  occ. eigenvalues --  -10.27257 -10.27202 -10.27190 -10.26951 -10.26926
 Alpha  occ. eigenvalues --  -10.26860 -10.26816 -10.26505 -10.26337 -10.26256
 Alpha  occ. eigenvalues --  -10.26229 -10.25991 -10.25940 -10.25819 -10.25758
 Alpha  occ. eigenvalues --  -10.25520 -10.25433 -10.25347 -10.25110 -10.24956
 Alpha  occ. eigenvalues --  -10.24807 -10.24739 -10.24596 -10.24442 -10.24388
 Alpha  occ. eigenvalues --  -10.23887  -3.16471  -3.16107  -1.91351  -1.90989
 Alpha  occ. eigenvalues --   -1.90940  -1.90782  -1.90577  -1.90415  -1.16987
 Alpha  occ. eigenvalues --   -1.16462  -1.08699  -1.08417  -1.07107  -1.07063
 Alpha  occ. eigenvalues --   -1.06822  -1.06753  -1.04564  -1.04214  -1.03709
 Alpha  occ. eigenvalues --   -1.03356  -1.03183  -1.02709  -1.02366  -1.01799
 Alpha  occ. eigenvalues --   -0.92001  -0.91707  -0.89437  -0.89249  -0.89047
 Alpha  occ. eigenvalues --   -0.88882  -0.88199  -0.87822  -0.87705  -0.87654
 Alpha  occ. eigenvalues --   -0.87471  -0.87377  -0.87165  -0.86889  -0.85028
 Alpha  occ. eigenvalues --   -0.84749  -0.83857  -0.83366  -0.82851  -0.82677
 Alpha  occ. eigenvalues --   -0.82660  -0.82352  -0.81685  -0.81324  -0.80609
 Alpha  occ. eigenvalues --   -0.80173  -0.78714  -0.78360  -0.77189  -0.76982
 Alpha  occ. eigenvalues --   -0.76856  -0.76555  -0.75961  -0.75575  -0.74843
 Alpha  occ. eigenvalues --   -0.74433  -0.72726  -0.72369  -0.71660  -0.71290
 Alpha  occ. eigenvalues --   -0.69776  -0.69120  -0.68894  -0.68551  -0.67631
 Alpha  occ. eigenvalues --   -0.67320  -0.67260  -0.66989  -0.65346  -0.65019
 Alpha  occ. eigenvalues --   -0.64886  -0.64628  -0.64454  -0.64346  -0.64194
 Alpha  occ. eigenvalues --   -0.63678  -0.62427  -0.61978  -0.60349  -0.60056
 Alpha  occ. eigenvalues --   -0.59828  -0.59541  -0.58974  -0.58672  -0.58505
 Alpha  occ. eigenvalues --   -0.58105  -0.57732  -0.57305  -0.57263  -0.56872
 Alpha  occ. eigenvalues --   -0.56332  -0.56108  -0.55904  -0.55645  -0.55493
 Alpha  occ. eigenvalues --   -0.55354  -0.55230  -0.54880  -0.54588  -0.54069
 Alpha  occ. eigenvalues --   -0.53968  -0.53679  -0.53269  -0.53223  -0.53023
 Alpha  occ. eigenvalues --   -0.52965  -0.52846  -0.52676  -0.52622  -0.52483
 Alpha  occ. eigenvalues --   -0.52296  -0.51882  -0.51685  -0.51621  -0.51489
 Alpha  occ. eigenvalues --   -0.51440  -0.51200  -0.50830  -0.50419  -0.50259
 Alpha  occ. eigenvalues --   -0.49956  -0.49846  -0.49739  -0.49553  -0.49384
 Alpha  occ. eigenvalues --   -0.49264  -0.49200  -0.49127  -0.48965  -0.48828
 Alpha  occ. eigenvalues --   -0.48646  -0.48453  -0.48357  -0.48316  -0.48150
 Alpha  occ. eigenvalues --   -0.48011  -0.47673  -0.47305  -0.47249  -0.46850
 Alpha  occ. eigenvalues --   -0.46768  -0.46611  -0.46388  -0.46343  -0.46266
 Alpha  occ. eigenvalues --   -0.46142  -0.45933  -0.45880  -0.45748  -0.45530
 Alpha  occ. eigenvalues --   -0.45131  -0.44846  -0.44618  -0.44470  -0.44291
 Alpha  occ. eigenvalues --   -0.44161  -0.44147  -0.44056  -0.43987  -0.43899
 Alpha  occ. eigenvalues --   -0.43722  -0.43642  -0.43574  -0.43389  -0.43233
 Alpha  occ. eigenvalues --   -0.43093  -0.43019  -0.42910  -0.42691  -0.42598
 Alpha  occ. eigenvalues --   -0.42556  -0.42122  -0.41970  -0.41712  -0.41556
 Alpha  occ. eigenvalues --   -0.41495  -0.41370  -0.41128  -0.41085  -0.40879
 Alpha  occ. eigenvalues --   -0.40773  -0.40711  -0.40550  -0.40490  -0.40399
 Alpha  occ. eigenvalues --   -0.40325  -0.40040  -0.39849  -0.39294  -0.38789
 Alpha  occ. eigenvalues --   -0.38403  -0.37885  -0.37850  -0.37412  -0.37299
 Alpha  occ. eigenvalues --   -0.37256  -0.36978  -0.36950  -0.36788  -0.36514
 Alpha  occ. eigenvalues --   -0.36227  -0.35814  -0.34282  -0.34129  -0.33940
 Alpha  occ. eigenvalues --   -0.33649  -0.33164  -0.32865  -0.31248  -0.31119
 Alpha  occ. eigenvalues --   -0.31016  -0.30676  -0.30084  -0.29708  -0.29382
 Alpha  occ. eigenvalues --   -0.29274  -0.29066  -0.28924  -0.24055  -0.23728
 Alpha  occ. eigenvalues --   -0.21081  -0.20807
 Alpha virt. eigenvalues --   -0.08722  -0.08504  -0.01697  -0.01378  -0.00002
 Alpha virt. eigenvalues --    0.00191   0.02208   0.02492   0.03034   0.03872
 Alpha virt. eigenvalues --    0.04668   0.04711   0.05013   0.05369   0.05989

 Mulliken charges:
               1
     1  Mg   0.833298
     2  C   -0.006449
     3  C   -0.092928
     4  C   -0.045160
     5  C   -0.062921
     6  N   -0.256358
     7  C   -0.055471
     8  C   -0.010870
     9  C   -0.087268
    10  C    0.046002
    11  C    0.104742
    12  C    0.038568
    13  C   -0.071434
    14  H    0.034436
    15  N   -0.432844
    16  C    0.169167
    17  C   -0.174809
    18  C   -0.002530
    19  C    0.149286
    20  C    0.109483
    21  C    0.013547
    22  O   -0.249979
    23  C    0.060762
    24  N   -0.340512
    25  C    0.041802
    26  C   -0.028231
    27  C   -0.024006
    28  C    0.074611
    29  C    0.076221
    30  C    0.034924
    31  C   -0.005273
    32  N   -0.310850
    33  C    0.080939
    34  C   -0.169435
    35  C    0.006542
    36  C    0.080507
    37  C    0.127192
    38  C    0.044572
    39  O   -0.189002
    40  C   -0.005752
    41  C    0.216653
    42  O   -0.260719
    43  O   -0.303300
    44  C    0.157177
    45  H   -0.017717
    46  H   -0.016622
    47  H   -0.040896
    48  H    0.000397
    49  H   -0.003506
    50  H    0.025439
    51  H    0.017152
    52  H    0.016905
    53  H    0.012579
    54  H    0.052426
    55  H    0.018939
    56  H    0.019608
    57  H    0.005635
    58  H    0.026191
    59  H    0.044573
    60  H    0.036847
    61  H    0.034579
    62  H    0.036238
    63  H    0.016978
    64  H    0.009326
    65  H    0.023214
    66  H    0.012252
    67  H    0.004856
    68  H    0.006270
    69  H    0.005432
    70  H    0.008184
    71  H    0.021221
    72  H    0.029232
    73  H    0.047397
    74  H    0.010274
    75  H    0.045777
    76  H    0.035969
    77  H    0.044519
    78  H    0.047274
    79  H    0.052112
    80  Mg   0.837169
    81  C   -0.017711
    82  C   -0.088456
    83  C   -0.046043
    84  C   -0.064684
    85  N   -0.254667
    86  C   -0.049801
    87  C   -0.015106
    88  C   -0.090342
    89  C    0.045458
    90  C    0.114601
    91  C    0.062628
    92  C   -0.077505
    93  H    0.034095
    94  N   -0.423164
    95  C    0.162477
    96  C   -0.175280
    97  C   -0.008667
    98  C    0.152000
    99  C    0.099498
   100  C    0.014927
   101  O   -0.256286
   102  C    0.061730
   103  N   -0.350321
   104  C    0.037583
   105  C   -0.018866
   106  C   -0.039076
   107  C    0.088925
   108  C    0.075176
   109  C    0.040203
   110  C   -0.034325
   111  N   -0.324323
   112  C    0.079079
   113  C   -0.161706
   114  C    0.001743
   115  C    0.096642
   116  C    0.130321
   117  C    0.042382
   118  O   -0.188200
   119  C    0.000950
   120  C    0.211200
   121  O   -0.251395
   122  O   -0.305629
   123  C    0.152256
   124  H   -0.020749
   125  H   -0.017477
   126  H   -0.034640
   127  H   -0.001094
   128  H   -0.004937
   129  H    0.022121
   130  H    0.014320
   131  H    0.015491
   132  H    0.013979
   133  H    0.037453
   134  H    0.020566
   135  H    0.019354
   136  H    0.008357
   137  H    0.024870
   138  H    0.039076
   139  H    0.038253
   140  H    0.032870
   141  H    0.034718
   142  H    0.012752
   143  H    0.011999
   144  H    0.021277
   145  H    0.010061
   146  H    0.005214
   147  H    0.006258
   148  H    0.020912
   149  H    0.010645
   150  H    0.045136
   151  H    0.023827
   152  H    0.046106
   153  H    0.014006
   154  H    0.045928
   155  H    0.034476
   156  H    0.043561
   157  H    0.049259
   158  H    0.053179
 Sum of Mulliken charges =  -0.00000

 Dipole moment (field-independent basis, Debye):
    X=              0.9219    Y=              6.6191    Z=             -3.1193  Tot=              7.3751
 Quadrupole moment (field-independent basis, Debye-Ang):
   XX=           -449.8766   YY=           -539.1066   ZZ=           -484.1861
   XY=            -24.1789   XZ=            -13.8250   YZ=              0.3786

 Normal termination of Gaussian 16 at Thu Sep  9 14:59:03 2021.
