 Gaussian 16, Revision A.03,
 Gaussian 16:  ES64L-G16RevA.03 25-Dec-2016

 -----------------------------------
 #p cam-b3lyp/Def2SVP td=(nstates=5)
 -----------------------------------

 --------------------------------
 TDDFT excited states in gaussian
 --------------------------------
 Symbolic Z-matrix:
 Charge =  0 Multiplicity = 1

                         Standard orientation:
 ---------------------------------------------------------------------
 Center     Atomic      Atomic             Coordinates (Angstroms)
 Number     Number       Type             X           Y           Z
 ---------------------------------------------------------------------
      1         12           0        5.049985    0.695586   -0.118810
      2          6           0        5.434926   -2.605144   -1.448929
      3          6           0        5.879763    1.877380   -3.210394
      4          6           0        5.160793    3.603302    1.141955
      5          6           0        5.369425   -0.705978    3.055972
      6          7           0        5.568235   -0.332837   -2.009421
      7          6           0        5.621295   -1.601685   -2.402333
      8          6           0        5.818906   -1.764816   -3.939119
      9          6           0        6.499855   -0.358451   -4.256047
     10          6           0        5.921484    0.454876   -3.111534
     11          6           0        8.019678   -0.374789   -4.128097
     12          6           0        4.459755   -1.927526   -4.699360
     13          6           0        4.574857   -2.415338   -6.146476
     14          1           0        3.547513   -3.302877   -6.670106
     15          7           0        4.980148    2.470470   -0.983539
     16          6           0        5.340917    2.766440   -2.255362
     17          6           0        5.104919    4.217044   -2.418875
     18          6           0        4.757464    4.775005   -1.082444
     19          6           0        4.980716    3.628646   -0.239000
     20          6           0        5.169245    4.917198   -3.741523
     21          6           0        4.307345    6.129717   -0.634917
     22          8           0        4.283691    6.465532    0.598470
     23          6           0        3.974611    7.095672   -1.697583
     24          7           0        5.456706    1.394323    1.805763
     25          6           0        5.380604    2.697500    2.097178
     26          6           0        5.432216    2.929742    3.578170
     27          6           0        5.314864    1.488709    4.255965
     28          6           0        5.297367    0.624315    2.971136
     29          6           0        6.689154    3.638796    4.101009
     30          6           0        4.182040    1.290037    5.294069
     31          6           0        2.837241    1.359130    4.605710
     32          7           0        5.172048   -1.309461    0.703342
     33          6           0        5.324434   -1.659586    2.052736
     34          6           0        5.466323   -3.126281    2.105103
     35          6           0        5.402818   -3.528554    0.772441
     36          6           0        5.258416   -2.383246   -0.061652
     37          6           0        5.686921   -3.900843    3.278058
     38          6           0        5.448087   -4.657400   -0.142717
     39          8           0        5.462960   -5.881918   -0.009193
     40          6           0        5.593070   -4.094905   -1.625419
     41          6           0        4.587084   -4.811979   -2.483968
     42          8           0        3.362815   -4.638433   -2.315409
     43          8           0        5.218222   -5.398285   -3.512778
     44          6           0        4.273546   -6.102775   -4.420212
     45          1           0        6.353997    2.361105   -4.066579
     46          1           0        5.094380    4.578869    1.628058
     47          1           0        5.388038   -1.221195    4.018083
     48          1           0        6.487796   -2.575788   -4.227794
     49          1           0        6.170903    0.046554   -5.212856
     50          1           0        8.374495   -1.318436   -3.713902
     51          1           0        8.264338    0.450528   -3.459153
     52          1           0        8.491285   -0.137225   -5.081997
     53          1           0        4.023039   -0.943453   -4.869480
     54          1           0        3.786509   -2.586016   -4.149400
     55          1           0        5.567586   -2.815537   -6.354413
     56          1           0        4.487283   -1.551851   -6.805962
     57          1           0        5.608331    4.282120   -4.509914
     58          1           0        5.875924    5.739634   -3.632383
     59          1           0        4.197818    5.305434   -4.048010
     60          1           0        4.847565    7.246559   -2.332982
     61          1           0        3.587737    7.978971   -1.190667
     62          1           0        3.201574    6.666351   -2.335585
     63          1           0        4.597601    3.547899    3.906387
     64          1           0        6.221598    1.215832    4.796378
     65          1           0        6.477258    4.552778    4.656386
     66          1           0        7.340816    3.839783    3.251167
     67          1           0        7.333924    3.023198    4.727688
     68          1           0        4.203792    2.087288    6.036272
     69          1           0        4.246862    0.340429    5.825382
     70          1           0        2.643620    2.430081    4.556660
     71          1           0        2.078101    0.852055    5.202193
     72          1           0        2.895108    0.991199    3.581130
     73          1           0        5.034003   -4.769809    3.197037
     74          1           0        5.471434   -3.326035    4.178483
     75          1           0        6.747284   -4.129631    3.172499
     76          1           0        6.616823   -4.297153   -1.938703
     77          1           0        4.609427   -7.137251   -4.492857
     78          1           0        4.232835   -5.518273   -5.339507
     79          1           0        3.258691   -6.241723   -4.045909
     80         12           0       -5.508780    0.138690   -0.174342
     81          6           0       -4.023078   -1.185585    2.811953
     82          6           0       -4.908232    3.250908    1.085812
     83          6           0       -7.209314    1.329903   -2.573653
     84          6           0       -6.991914   -2.978580   -0.652540
     85          7           0       -4.578950    0.815992    1.714815
     86          6           0       -3.995547    0.223055    2.745544
     87          6           0       -3.275841    1.191695    3.721915
     88          6           0       -4.105918    2.526263    3.392088
     89          6           0       -4.532747    2.201480    1.962058
     90          6           0       -5.357167    2.681811    4.240343
     91          6           0       -1.753913    1.362786    3.380616
     92          6           0       -0.923613    2.046377    4.469221
     93          1           0        0.453955    1.606786    4.672992
     94          7           0       -5.568037    1.977898   -0.917571
     95          6           0       -5.270128    3.125802   -0.273490
     96          6           0       -5.490772    4.203873   -1.249834
     97          6           0       -6.100982    3.612581   -2.471608
     98          6           0       -6.340849    2.257590   -2.017128
     99          6           0       -5.058569    5.621077   -1.008703
    100          6           0       -6.427805    4.177086   -3.820953
    101          8           0       -7.172840    3.546939   -4.652011
    102          6           0       -5.926956    5.529958   -4.104445
    103          7           0       -7.065533   -0.630688   -1.317569
    104          6           0       -7.591515    0.075434   -2.333757
    105          6           0       -8.501114   -0.782290   -3.180717
    106          6           0       -8.286395   -2.279460   -2.661119
    107          6           0       -7.313950   -2.004922   -1.493055
    108          6           0       -9.988017   -0.432558   -3.124114
    109          6           0       -7.886797   -3.341888   -3.721425
    110          6           0       -6.497358   -3.053615   -4.242704
    111          7           0       -5.381285   -1.804439    0.761617
    112          6           0       -6.108586   -2.965462    0.419347
    113          6           0       -5.764882   -4.003228    1.412982
    114          6           0       -4.872033   -3.361893    2.284764
    115          6           0       -4.688923   -2.013283    1.875841
    116          6           0       -6.297929   -5.322358    1.456464
    117          6           0       -4.051030   -3.516017    3.464122
    118          8           0       -3.739151   -4.460670    4.188074
    119          6           0       -3.562755   -2.077422    3.931489
    120          6           0       -2.085454   -2.154134    4.203909
    121          8           0       -1.283083   -2.376143    3.280037
    122          8           0       -1.847202   -1.739647    5.461606
    123          6           0       -0.394235   -1.787153    5.775381
    124          1           0       -4.973189    4.262980    1.486291
    125          1           0       -7.737163    1.657947   -3.472106
    126          1           0       -7.336753   -4.005732   -0.789368
    127          1           0       -3.378909    0.939325    4.770466
    128          1           0       -3.465280    3.404135    3.408724
    129          1           0       -5.545384    1.807029    4.844882
    130          1           0       -6.168247    2.840639    3.541805
    131          1           0       -5.294193    3.593470    4.841388
    132          1           0       -1.648522    2.099272    2.573630
    133          1           0       -1.311604    0.418728    3.128121
    134          1           0       -1.457468    2.093629    5.426151
    135          1           0       -0.780214    3.093121    4.190340
    136          1           0       -4.789693    5.786392    0.041905
    137          1           0       -5.937848    6.254863   -1.167011
    138          1           0       -4.265470    5.940932   -1.687927
    139          1           0       -6.319957    6.222990   -3.364359
    140          1           0       -6.184252    5.724228   -5.147488
    141          1           0       -4.837313    5.530918   -3.989118
    142          1           0       -8.220390   -0.729234   -4.225447
    143          1           0       -9.203814   -2.691776   -2.215956
    144          1           0      -10.421784   -0.208479   -4.116947
    145          1           0      -10.115746    0.407882   -2.454877
    146          1           0      -10.623493   -1.189731   -2.668000
    147          1           0       -8.558251   -3.289277   -4.581969
    148          1           0       -7.921686   -4.359689   -3.347473
    149          1           0       -6.674880   -2.297664   -5.013497
    150          1           0       -6.052962   -3.952142   -4.666015
    151          1           0       -5.873683   -2.593690   -3.467365
    152          1           0       -5.468265   -5.986947    1.657602
    153          1           0       -6.797968   -5.580005    0.525141
    154          1           0       -7.002544   -5.220741    2.286203
    155          1           0       -4.130497   -1.812857    4.824381
    156          1           0       -0.281228   -2.402651    6.673195
    157          1           0       -0.068706   -0.732118    5.843679
    158          1           0        0.252130   -2.308329    5.078933
 ---------------------------------------------------------------------

 SCF Done:  E(RCAM-B3LYP) =  -4069.80818230     A.U. after   19 cycles

 Excitation energies and oscillator strengths:

 Excited State   1:      Singlet-A      1.6554 eV  748.96 nm  f=0.0073  <S**2>=0.000
     309 -> 315       -0.11116
     310 -> 316        0.12593
     311 -> 313       -0.45374
     312 -> 314        0.51616
 This state for optimization and/or second-order correction.
 Total Energy, E(TD-HF/TD-DFT) =  -4069.74734718
 Copying the excited state density for this state as the 1-particle RhoCI density.

 Excited State   2:      Singlet-A      1.6972 eV  730.54 nm  f=0.7118  <S**2>=0.000
     309 -> 315        0.13446
     310 -> 316        0.11768
     311 -> 313        0.51410
     312 -> 314        0.45206

 Excited State   3:      Singlet-A      2.1822 eV  568.15 nm  f=0.0427  <S**2>=0.000
     309 -> 313        0.29716
     310 -> 314        0.57157
     311 -> 315       -0.12381
     312 -> 316       -0.23885

 Excited State   4:      Singlet-A      2.1928 eV  565.41 nm  f=0.1460  <S**2>=0.000
     309 -> 313        0.56776
     310 -> 314       -0.29452
     311 -> 315       -0.24807
     312 -> 316        0.12857

 Excited State   5:      Singlet-A      2.5227 eV  491.48 nm  f=0.0000  <S**2>=0.000
     312 -> 313        0.70692

 The electronic state is 1-A.
 Alpha  occ. eigenvalues --  -46.87757 -46.87443 -19.26198 -19.26092 -19.18922
 Alpha  occ. eigenvalues --  -19.18861 -19.18802 -19.18569 -19.18045 -19.17828
 Alpha  occ. eigenvalues --  -14.42410 -14.42264 -14.41453 -14.41153 -14.39375
 Alpha  occ. eigenvalues --  -14.39144 -14.38522 -14.38378 -10.38878 -10.38862
 Alpha  occ. eigenvalues --  -10.35498 -10.35251 -10.34263 -10.34005 -10.31737
 Alpha  occ. eigenvalues --  -10.31488 -10.31340 -10.31063 -10.30866 -10.30787
 Alpha  occ. eigenvalues --  -10.30513 -10.30480 -10.30261 -10.30187 -10.30134
 Alpha  occ. eigenvalues --  -10.29956 -10.29928 -10.29688 -10.29596 -10.29241
 Alpha  occ. eigenvalues --  -10.29237 -10.29192 -10.28667 -10.28418 -10.28385
 Alpha  occ. eigenvalues --  -10.28306 -10.28192 -10.28046 -10.27853 -10.27809
 Alpha  occ. eigenvalues --  -10.27794 -10.27737 -10.27701 -10.27691 -10.27597
 Alpha  occ. eigenvalues --  -10.27560 -10.27479 -10.27444 -10.27352 -10.27352
 Alpha  occ. eigenvalues --  -10.27302 -10.27268 -10.27262 -10.27213 -10.27036
 Alpha  occ. eigenvalues --  -10.26835 -10.26587 -10.26566 -10.26499 -10.26326
 Alpha  occ. eigenvalues --  -10.26245 -10.26174 -10.26038 -10.25979 -10.25790
 Alpha  occ. eigenvalues --  -10.25751 -10.25731 -10.25632 -10.25552 -10.25306
 Alpha  occ. eigenvalues --  -10.25258 -10.24786 -10.24756 -10.24660 -10.24562
 Alpha  occ. eigenvalues --  -10.24488  -3.16498  -3.16192  -1.91379  -1.91074
 Alpha  occ. eigenvalues --   -1.90968  -1.90809  -1.90663  -1.90500  -1.16469
 Alpha  occ. eigenvalues --   -1.16438  -1.08489  -1.08432  -1.07269  -1.06826
 Alpha  occ. eigenvalues --   -1.06718  -1.06430  -1.04536  -1.04263  -1.03755
 Alpha  occ. eigenvalues --   -1.03447  -1.03203  -1.02832  -1.02381  -1.01899
 Alpha  occ. eigenvalues --   -0.91906  -0.91769  -0.89664  -0.89303  -0.89117
 Alpha  occ. eigenvalues --   -0.88844  -0.88398  -0.88035  -0.87799  -0.87641
 Alpha  occ. eigenvalues --   -0.87570  -0.87433  -0.87273  -0.86946  -0.84936
 Alpha  occ. eigenvalues --   -0.84701  -0.84137  -0.83704  -0.83041  -0.82785
 Alpha  occ. eigenvalues --   -0.82624  -0.82413  -0.81502  -0.81413  -0.80552
 Alpha  occ. eigenvalues --   -0.80243  -0.78776  -0.78442  -0.77302  -0.76917
 Alpha  occ. eigenvalues --   -0.76897  -0.76638  -0.75861  -0.75622  -0.74982
 Alpha  occ. eigenvalues --   -0.74629  -0.72766  -0.72484  -0.71655  -0.71373
 Alpha  occ. eigenvalues --   -0.70237  -0.69581  -0.68839  -0.68556  -0.67616
 Alpha  occ. eigenvalues --   -0.67393  -0.67163  -0.66871  -0.65249  -0.65004
 Alpha  occ. eigenvalues --   -0.64856  -0.64623  -0.64569  -0.64437  -0.64340
 Alpha  occ. eigenvalues --   -0.64016  -0.62210  -0.62108  -0.60464  -0.60160
 Alpha  occ. eigenvalues --   -0.59743  -0.59527  -0.58974  -0.58780  -0.58481
 Alpha  occ. eigenvalues --   -0.58221  -0.57498  -0.57344  -0.57302  -0.57048
 Alpha  occ. eigenvalues --   -0.56278  -0.56009  -0.55861  -0.55750  -0.55570
 Alpha  occ. eigenvalues --   -0.55432  -0.55269  -0.55067  -0.54565  -0.54310
 Alpha  occ. eigenvalues --   -0.53826  -0.53607  -0.53354  -0.53199  -0.53045
 Alpha  occ. eigenvalues --   -0.52960  -0.52921  -0.52786  -0.52683  -0.52605
 Alpha  occ. eigenvalues --   -0.52469  -0.52226  -0.51831  -0.51667  -0.51554
 Alpha  occ. eigenvalues --   -0.51399  -0.51195  -0.51008  -0.50644  -0.50322
 Alpha  occ. eigenvalues --   -0.50280  -0.49921  -0.49761  -0.49685  -0.49483
 Alpha  occ. eigenvalues --   -0.49272  -0.49166  -0.49038  -0.48990  -0.48833
 Alpha  occ. eigenvalues --   -0.48587  -0.48476  -0.48424  -0.48335  -0.48202
 Alpha  occ. eigenvalues --   -0.48166  -0.47717  -0.47397  -0.47290  -0.46957
 Alpha  occ. eigenvalues --   -0.46885  -0.46518  -0.46488  -0.46433  -0.46215
 Alpha  occ. eigenvalues --   -0.46129  -0.46081  -0.45894  -0.45768  -0.45627
 Alpha  occ. eigenvalues --   -0.45372  -0.45018  -0.44628  -0.44510  -0.44310
 Alpha  occ. eigenvalues --   -0.44244  -0.44183  -0.44043  -0.43953  -0.43904
 Alpha  occ. eigenvalues --   -0.43889  -0.43739  -0.43451  -0.43381  -0.43376
 Alpha  occ. eigenvalues --   -0.43183  -0.43064  -0.42895  -0.42754  -0.42692
 Alpha  occ. eigenvalues --   -0.42532  -0.42366  -0.42111  -0.41716  -0.41670
 Alpha  occ. eigenvalues --   -0.41492  -0.41451  -0.41197  -0.41110  -0.40933
 Alpha  occ. eigenvalues --   -0.40869  -0.40771  -0.40676  -0.40602  -0.40521
 Alpha  occ. eigenvalues --   -0.40319  -0.40143  -0.39863  -0.39612  -0.39231
 Alpha  occ. eigenvalues --   -0.38575  -0.38093  -0.37695  -0.37437  -0.37197
 Alpha  occ. eigenvalues --   -0.37171  -0.37034  -0.36838  -0.36606  -0.36329
 Alpha  occ. eigenvalues --   -0.36075  -0.35807  -0.34246  -0.34027  -0.33623
 Alpha  occ. eigenvalues --   -0.33588  -0.33136  -0.32961  -0.31391  -0.31127
 Alpha  occ. eigenvalues --   -0.31005  -0.30759  -0.29900  -0.29731  -0.29423
 Alpha  occ. eigenvalues --   -0.29241  -0.29132  -0.28995  -0.24046  -0.23821
 Alpha  occ. eigenvalues --   -0.21102  -0.20902
 Alpha virt. eigenvalues --   -0.08741  -0.08584  -0.01744  -0.01478  -0.00039
 Alpha virt. eigenvalues --    0.00164   0.02263   0.02422   0.03178   0.03511
 Alpha virt. eigenvalues --    0.04759   0.05070   0.05282   0.05388   0.06264

 Mulliken charges:
               1
     1  Mg   0.841028
     2  C   -0.001799
     3  C   -0.093718
     4  C   -0.046648
     5  C   -0.064669
     6  N   -0.256534
     7  C   -0.051987
     8  C   -0.014131
     9  C   -0.087021
    10  C    0.046187
    11  C    0.104857
    12  C    0.053432
    13  C   -0.071858
    14  H    0.036790
    15  N   -0.432890
    16  C    0.168071
    17  C   -0.177306
    18  C   -0.004709
    19  C    0.148543
    20  C    0.110220
    21  C    0.011416
    22  O   -0.251074
    23  C    0.062804
    24  N   -0.340727
    25  C    0.040663
    26  C   -0.028614
    27  C   -0.025911
    28  C    0.073960
    29  C    0.076233
    30  C    0.056839
    31  C   -0.048107
    32  N   -0.311210
    33  C    0.082553
    34  C   -0.167340
    35  C    0.009588
    36  C    0.085107
    37  C    0.126847
    38  C    0.048168
    39  O   -0.186844
    40  C   -0.006169
    41  C    0.212678
    42  O   -0.254320
    43  O   -0.305381
    44  C    0.157505
    45  H   -0.017699
    46  H   -0.018027
    47  H   -0.042748
    48  H    0.001117
    49  H   -0.004006
    50  H    0.025505
    51  H    0.016123
    52  H    0.016557
    53  H    0.011209
    54  H    0.045410
    55  H    0.017606
    56  H    0.017684
    57  H    0.006104
    58  H    0.026443
    59  H    0.038880
    60  H    0.037797
    61  H    0.034390
    62  H    0.030823
    63  H    0.015439
    64  H    0.010134
    65  H    0.022726
    66  H    0.013372
    67  H    0.004856
    68  H    0.006555
    69  H    0.001823
    70  H    0.020208
    71  H    0.035136
    72  H    0.040062
    73  H    0.050488
    74  H    0.007510
    75  H    0.045817
    76  H    0.034902
    77  H    0.042765
    78  H    0.045882
    79  H    0.054812
    80  Mg   0.838275
    81  C   -0.016410
    82  C   -0.087559
    83  C   -0.045927
    84  C   -0.065097
    85  N   -0.254795
    86  C   -0.048837
    87  C   -0.013929
    88  C   -0.090369
    89  C    0.045878
    90  C    0.114549
    91  C    0.065851
    92  C   -0.094561
    93  H    0.044048
    94  N   -0.423294
    95  C    0.162573
    96  C   -0.175085
    97  C   -0.008479
    98  C    0.152006
    99  C    0.099549
   100  C    0.014987
   101  O   -0.253879
   102  C    0.061561
   103  N   -0.350143
   104  C    0.037390
   105  C   -0.019623
   106  C   -0.034827
   107  C    0.089125
   108  C    0.073878
   109  C    0.034824
   110  C   -0.007609
   111  N   -0.324412
   112  C    0.079165
   113  C   -0.162336
   114  C    0.002563
   115  C    0.097235
   116  C    0.131217
   117  C    0.043676
   118  O   -0.187481
   119  C    0.000268
   120  C    0.211599
   121  O   -0.248016
   122  O   -0.306521
   123  C    0.149043
   124  H   -0.019872
   125  H   -0.016297
   126  H   -0.040606
   127  H   -0.002048
   128  H   -0.003337
   129  H    0.021867
   130  H    0.013740
   131  H    0.015830
   132  H    0.012813
   133  H    0.034153
   134  H    0.015108
   135  H    0.016369
   136  H    0.009243
   137  H    0.025516
   138  H    0.038686
   139  H    0.038252
   140  H    0.035441
   141  H    0.032983
   142  H    0.013895
   143  H    0.012085
   144  H    0.024538
   145  H    0.011504
   146  H    0.005337
   147  H    0.005603
   148  H    0.003718
   149  H    0.010196
   150  H    0.017987
   151  H    0.031047
   152  H    0.047170
   153  H    0.008379
   154  H    0.046393
   155  H    0.034473
   156  H    0.043059
   157  H    0.051453
   158  H    0.055078
 Sum of Mulliken charges =  -0.00000

 Dipole moment (field-independent basis, Debye):
    X=              1.6776    Y=              6.5334    Z=             -2.2100  Tot=              7.0981
 Quadrupole moment (field-independent basis, Debye-Ang):
   XX=           -484.9764   YY=           -531.6839   ZZ=           -472.0920
   XY=             14.5529   XZ=            -18.9082   YZ=             22.1786

 Normal termination of Gaussian 16 at Fri Sep 10 15:28:19 2021.
