 Gaussian 16, Revision A.03,
 Gaussian 16:  ES64L-G16RevA.03 25-Dec-2016

 -----------------------------------
 #p cam-b3lyp/Def2SVP td=(nstates=5)
 -----------------------------------

 --------------------------------
 TDDFT excited states in gaussian
 --------------------------------
 Symbolic Z-matrix:
 Charge =  0 Multiplicity = 1

                         Standard orientation:
 ---------------------------------------------------------------------
 Center     Atomic      Atomic             Coordinates (Angstroms)
 Number     Number       Type             X           Y           Z
 ---------------------------------------------------------------------
      1         12           0       -3.833796    0.360939   -0.877309
      2          6           0       -4.031049   -2.967580    0.424329
      3          6           0       -5.439905    1.401402    1.947743
      4          6           0       -4.077407    3.231131   -2.203685
      5          6           0       -3.293629   -1.056232   -4.015064
      6          7           0       -4.587033   -0.738452    0.890350
      7          6           0       -4.546375   -2.004248    1.294429
      8          6           0       -5.033992   -2.200550    2.761082
      9          6           0       -5.951590   -0.903806    2.896975
     10          6           0       -5.265335   -0.012643    1.876776
     11          6           0       -7.395071   -1.130267    2.459275
     12          6           0       -3.852714   -2.176714    3.788576
     13          6           0       -4.197428   -2.682675    5.192332
     14          1           0       -3.189426   -3.421561    5.937534
     15          7           0       -4.188038    2.124199   -0.059827
     16          6           0       -4.841561    2.361176    1.102944
     17          6           0       -4.845179    3.829697    1.276481
     18          6           0       -4.307918    4.436841    0.027153
     19          6           0       -4.192637    3.274630   -0.816264
     20          6           0       -5.277339    4.507835    2.540252
     21          6           0       -3.964371    5.843025   -0.350675
     22          8           0       -3.731754    6.184753   -1.560504
     23          6           0       -3.994366    6.840727    0.734099
     24          7           0       -3.924451    1.005652   -2.860680
     25          6           0       -3.968518    2.308157   -3.161551
     26          6           0       -3.743332    2.538052   -4.626604
     27          6           0       -3.292153    1.130493   -5.230730
     28          6           0       -3.423297    0.270770   -3.949345
     29          6           0       -4.949499    3.068320   -5.413996
     30          6           0       -1.952491    1.095888   -6.008245
     31          6           0       -0.801912    1.347632   -5.059620
     32          7           0       -3.507501   -1.637703   -1.658336
     33          6           0       -3.327582   -1.999146   -3.001341
     34          6           0       -3.253637   -3.471074   -3.046382
     35          6           0       -3.413312   -3.866996   -1.719884
     36          6           0       -3.602893   -2.716722   -0.901824
     37          6           0       -3.118328   -4.263150   -4.220580
     38          6           0       -3.492485   -4.995555   -0.806680
     39          8           0       -3.311795   -6.209640   -0.910808
     40          6           0       -4.017127   -4.465698    0.600384
     41          6           0       -3.122532   -5.040331    1.664717
     42          8           0       -1.925394   -4.697782    1.747702
     43          8           0       -3.866963   -5.713443    2.555383
     44          6           0       -3.043610   -6.284355    3.654612
     45          1           0       -6.142872    1.810553    2.676011
     46          1           0       -4.045717    4.208783   -2.689103
     47          1           0       -3.041817   -1.564453   -4.947670
     48          1           0       -5.630882   -3.097860    2.925339
     49          1           0       -5.886613   -0.461642    3.890952
     50          1           0       -7.523913   -2.112033    2.003801
     51          1           0       -7.606275   -0.343701    1.734568
     52          1           0       -8.082087   -0.964993    3.289618
     53          1           0       -3.599480   -1.142385    4.021165
     54          1           0       -2.996537   -2.732783    3.405076
     55          1           0       -5.147448   -3.217741    5.201014
     56          1           0       -4.367338   -1.818545    5.834680
     57          1           0       -5.775092    3.814316    3.216874
     58          1           0       -6.051721    5.224768    2.268129
     59          1           0       -4.452933    5.025644    3.030721
     60          1           0       -4.992302    6.865990    1.172316
     61          1           0       -3.635320    7.771570    0.296529
     62          1           0       -3.319062    6.519787    1.527768
     63          1           0       -2.951348    3.267598   -4.790768
     64          1           0       -4.021183    0.737018   -5.939508
     65          1           0       -4.754104    4.005501   -5.935741
     66          1           0       -5.784366    3.172882   -4.721641
     67          1           0       -5.360031    2.372205   -6.144957
     68          1           0       -1.928746    1.885938   -6.758046
     69          1           0       -1.775331    0.149016   -6.518440
     70          1           0       -0.770948    2.434844   -4.997620
     71          1           0        0.126409    0.953652   -5.474603
     72          1           0       -1.020004    0.970349   -4.060331
     73          1           0       -2.383836   -5.033487   -3.985912
     74          1           0       -2.801568   -3.659713   -5.070951
     75          1           0       -4.136083   -4.637361   -4.330114
     76          1           0       -5.046098   -4.809537    0.700959
     77          1           0       -3.242588   -7.355765    3.681492
     78          1           0       -3.274615   -5.704249    4.548210
     79          1           0       -1.963962   -6.279350    3.500747
     80         12           0        3.899900    1.038507    0.811548
     81          6           0        4.366568   -1.974569   -1.081259
     82          6           0        2.626859   -0.904825    3.309032
     83          6           0        3.061630    3.700716    2.320635
     84          6           0        4.123839    2.794304   -2.190578
     85          7           0        3.589153   -1.145317    0.974717
     86          6           0        3.861380   -2.196853    0.216747
     87          6           0        3.651623   -3.566166    0.917127
     88          6           0        2.588387   -3.106909    2.029550
     89          6           0        2.975265   -1.633852    2.144034
     90          6           0        1.147299   -3.186675    1.553890
     91          6           0        4.969404   -4.110555    1.572188
     92          6           0        4.914649   -5.577807    2.003380
     93          1           0        6.124492   -6.385843    1.877607
     94          7           0        3.441203    1.343967    2.718078
     95          6           0        2.957875    0.438156    3.593954
     96          6           0        2.766842    1.164067    4.859148
     97          6           0        3.021058    2.609667    4.613539
     98          6           0        3.167383    2.610334    3.171773
     99          6           0        2.457653    0.472738    6.155258
    100          6           0        3.104350    3.797200    5.524043
    101          8           0        3.098258    4.995718    5.069789
    102          6           0        3.099049    3.518206    6.967526
    103          7           0        3.419556    2.947249    0.141983
    104          6           0        3.143294    3.935513    1.010859
    105          6           0        3.099607    5.275841    0.316589
    106          6           0        3.644939    5.011104   -1.163310
    107          6           0        3.833733    3.479816   -1.093271
    108          6           0        1.725653    5.941360    0.240937
    109          6           0        4.839624    5.882134   -1.639429
    110          6           0        6.079532    5.534829   -0.847347
    111          7           0        4.373458    0.556477   -1.240637
    112          6           0        4.383946    1.438433   -2.343411
    113          6           0        4.652038    0.626239   -3.547935
    114          6           0        4.756928   -0.685558   -3.061422
    115          6           0        4.547526   -0.693227   -1.655862
    116          6           0        4.719595    1.115340   -4.882969
    117          6           0        4.986638   -2.066944   -3.418774
    118          8           0        5.306462   -2.655645   -4.450714
    119          6           0        4.618739   -2.979711   -2.170617
    120          6           0        5.737575   -3.964785   -1.969722
    121          8           0        6.871076   -3.574904   -1.638425
    122          8           0        5.234695   -5.212632   -1.988608
    123          6           0        6.304625   -6.224813   -1.782322
    124          1           0        2.004694   -1.392872    4.059767
    125          1           0        2.883083    4.662677    2.806664
    126          1           0        4.306082    3.280335   -3.151428
    127          1           0        3.222388   -4.336982    0.288346
    128          1           0        2.757129   -3.619871    2.972814
    129          1           0        1.082585   -3.427484    0.503195
    130          1           0        0.719855   -2.211150    1.745479
    131          1           0        0.583959   -3.889665    2.174191
    132          1           0        5.107054   -3.632245    2.550463
    133          1           0        5.809523   -3.955670    0.923470
    134          1           0        4.054926   -6.103037    1.569836
    135          1           0        4.736833   -5.616450    3.080841
    136          1           0        2.165911   -0.572396    5.994089
    137          1           0        1.558054    0.946009    6.563435
    138          1           0        3.266033    0.562844    6.884005
    139          1           0        2.191325    2.978983    7.227785
    140          1           0        3.255145    4.483829    7.452377
    141          1           0        3.937901    2.852063    7.198176
    142          1           0        3.750678    5.987775    0.808901
    143          1           0        2.871005    5.197922   -1.922227
    144          1           0        1.704852    6.951991    0.690680
    145          1           0        1.006039    5.294733    0.725249
    146          1           0        1.312954    6.035988   -0.762019
    147          1           0        4.636629    6.939150   -1.450541
    148          1           0        5.054150    5.779551   -2.697935
    149          1           0        5.963543    6.127422    0.065050
    150          1           0        6.975860    5.822136   -1.393319
    151          1           0        6.077500    4.477932   -0.556449
    152          1           0        5.572748    0.638162   -5.346574
    153          1           0        4.808756    2.199474   -4.905177
    154          1           0        3.753198    0.775062   -5.264486
    155          1           0        3.672812   -3.474543   -2.394124
    156          1           0        6.258720   -6.915520   -2.629971
    157          1           0        6.124707   -6.648980   -0.776610
    158          1           0        7.332544   -5.886536   -1.840584
 ---------------------------------------------------------------------

 SCF Done:  E(RCAM-B3LYP) =  -4069.81504668     A.U. after   18 cycles

 Excitation energies and oscillator strengths:

 Excited State   1:      Singlet-A      1.6492 eV  751.77 nm  f=0.1288  <S**2>=0.000
     309 -> 315       -0.10642
     310 -> 316        0.12731
     311 -> 313       -0.43625
     312 -> 314        0.53127
 This state for optimization and/or second-order correction.
 Total Energy, E(TD-HF/TD-DFT) =  -4069.75443881
 Copying the excited state density for this state as the 1-particle RhoCI density.

 Excited State   2:      Singlet-A      1.6907 eV  733.33 nm  f=0.5338  <S**2>=0.000
     309 -> 315        0.13830
     310 -> 316        0.11018
     311 -> 313        0.52895
     312 -> 314        0.43436

 Excited State   3:      Singlet-A      2.1782 eV  569.20 nm  f=0.0626  <S**2>=0.000
     309 -> 313       -0.24319
     310 -> 314        0.59784
     312 -> 316       -0.24344

 Excited State   4:      Singlet-A      2.1817 eV  568.28 nm  f=0.0001  <S**2>=0.000
     312 -> 313        0.70693

 Excited State   5:      Singlet-A      2.1970 eV  564.32 nm  f=0.1235  <S**2>=0.000
     309 -> 313        0.59240
     310 -> 314        0.23895
     311 -> 315       -0.26100
     312 -> 316       -0.10579

 The electronic state is 1-A.
 Alpha  occ. eigenvalues --  -46.87995 -46.87282 -19.26957 -19.25920 -19.19877
 Alpha  occ. eigenvalues --  -19.18967 -19.18757 -19.18518 -19.18467 -19.17714
 Alpha  occ. eigenvalues --  -14.42666 -14.42024 -14.41641 -14.40994 -14.39595
 Alpha  occ. eigenvalues --  -14.38996 -14.38796 -14.38235 -10.39812 -10.38680
 Alpha  occ. eigenvalues --  -10.35593 -10.35204 -10.34706 -10.33879 -10.32323
 Alpha  occ. eigenvalues --  -10.31646 -10.31346 -10.31159 -10.30785 -10.30784
 Alpha  occ. eigenvalues --  -10.30705 -10.30546 -10.30360 -10.30112 -10.30074
 Alpha  occ. eigenvalues --  -10.29994 -10.29825 -10.29800 -10.29561 -10.29425
 Alpha  occ. eigenvalues --  -10.29093 -10.29089 -10.29085 -10.29021 -10.28595
 Alpha  occ. eigenvalues --  -10.28398 -10.28096 -10.28025 -10.27990 -10.27960
 Alpha  occ. eigenvalues --  -10.27930 -10.27770 -10.27662 -10.27659 -10.27616
 Alpha  occ. eigenvalues --  -10.27601 -10.27587 -10.27566 -10.27260 -10.27217
 Alpha  occ. eigenvalues --  -10.27201 -10.27174 -10.27160 -10.27138 -10.27086
 Alpha  occ. eigenvalues --  -10.27066 -10.26628 -10.26483 -10.26477 -10.26304
 Alpha  occ. eigenvalues --  -10.26250 -10.26187 -10.26103 -10.25963 -10.25884
 Alpha  occ. eigenvalues --  -10.25643 -10.25584 -10.25557 -10.25113 -10.25052
 Alpha  occ. eigenvalues --  -10.24987 -10.24754 -10.24532 -10.24497 -10.24352
 Alpha  occ. eigenvalues --  -10.24194  -3.16737  -3.16033  -1.91618  -1.91205
 Alpha  occ. eigenvalues --   -1.91047  -1.90915  -1.90502  -1.90341  -1.17321
 Alpha  occ. eigenvalues --   -1.16220  -1.08960  -1.08318  -1.07412  -1.07366
 Alpha  occ. eigenvalues --   -1.06779  -1.06542  -1.04809  -1.04035  -1.03957
 Alpha  occ. eigenvalues --   -1.03431  -1.03267  -1.02687  -1.02612  -1.01740
 Alpha  occ. eigenvalues --   -0.92252  -0.91580  -0.89690  -0.89488  -0.89167
 Alpha  occ. eigenvalues --   -0.88448  -0.88358  -0.88056  -0.87899  -0.87894
 Alpha  occ. eigenvalues --   -0.87474  -0.87430  -0.87238  -0.86867  -0.85274
 Alpha  occ. eigenvalues --   -0.84393  -0.84116  -0.83573  -0.83114  -0.82921
 Alpha  occ. eigenvalues --   -0.82717  -0.82094  -0.81964  -0.81182  -0.80867
 Alpha  occ. eigenvalues --   -0.80051  -0.78969  -0.78331  -0.77440  -0.77249
 Alpha  occ. eigenvalues --   -0.76753  -0.76345  -0.76222  -0.75152  -0.75090
 Alpha  occ. eigenvalues --   -0.74412  -0.72970  -0.72313  -0.71904  -0.71054
 Alpha  occ. eigenvalues --   -0.70034  -0.69439  -0.69145  -0.68258  -0.67883
 Alpha  occ. eigenvalues --   -0.67508  -0.67259  -0.66724  -0.65596  -0.65153
 Alpha  occ. eigenvalues --   -0.64884  -0.64722  -0.64446  -0.64369  -0.64161
 Alpha  occ. eigenvalues --   -0.63852  -0.62715  -0.61887  -0.60605  -0.60070
 Alpha  occ. eigenvalues --   -0.60057  -0.59226  -0.59177  -0.58767  -0.58594
 Alpha  occ. eigenvalues --   -0.58042  -0.58024  -0.57517  -0.57164  -0.56913
 Alpha  occ. eigenvalues --   -0.56618  -0.56378  -0.55850  -0.55769  -0.55630
 Alpha  occ. eigenvalues --   -0.55467  -0.55093  -0.54911  -0.54878  -0.54215
 Alpha  occ. eigenvalues --   -0.54130  -0.53549  -0.53491  -0.53358  -0.53122
 Alpha  occ. eigenvalues --   -0.52943  -0.52896  -0.52737  -0.52564  -0.52527
 Alpha  occ. eigenvalues --   -0.52164  -0.52118  -0.52037  -0.51900  -0.51610
 Alpha  occ. eigenvalues --   -0.51456  -0.51140  -0.50790  -0.50693  -0.50244
 Alpha  occ. eigenvalues --   -0.50204  -0.50096  -0.49790  -0.49628  -0.49518
 Alpha  occ. eigenvalues --   -0.49486  -0.49375  -0.49001  -0.48939  -0.48788
 Alpha  occ. eigenvalues --   -0.48718  -0.48612  -0.48368  -0.48074  -0.48050
 Alpha  occ. eigenvalues --   -0.47939  -0.47926  -0.47510  -0.47120  -0.47019
 Alpha  occ. eigenvalues --   -0.46872  -0.46779  -0.46606  -0.46393  -0.46276
 Alpha  occ. eigenvalues --   -0.46142  -0.45957  -0.45831  -0.45733  -0.45386
 Alpha  occ. eigenvalues --   -0.45334  -0.44877  -0.44856  -0.44721  -0.44412
 Alpha  occ. eigenvalues --   -0.44310  -0.44243  -0.44156  -0.44057  -0.43865
 Alpha  occ. eigenvalues --   -0.43780  -0.43632  -0.43563  -0.43392  -0.43286
 Alpha  occ. eigenvalues --   -0.43198  -0.43133  -0.42817  -0.42797  -0.42524
 Alpha  occ. eigenvalues --   -0.42425  -0.42242  -0.42232  -0.41959  -0.41810
 Alpha  occ. eigenvalues --   -0.41584  -0.41374  -0.41243  -0.41133  -0.41025
 Alpha  occ. eigenvalues --   -0.40931  -0.40739  -0.40578  -0.40501  -0.40378
 Alpha  occ. eigenvalues --   -0.40207  -0.39785  -0.39635  -0.39561  -0.39123
 Alpha  occ. eigenvalues --   -0.38655  -0.38114  -0.37963  -0.37564  -0.37507
 Alpha  occ. eigenvalues --   -0.37289  -0.37152  -0.36856  -0.36645  -0.36482
 Alpha  occ. eigenvalues --   -0.36377  -0.35797  -0.34579  -0.34432  -0.33846
 Alpha  occ. eigenvalues --   -0.33467  -0.33414  -0.32802  -0.31503  -0.31265
 Alpha  occ. eigenvalues --   -0.31072  -0.30557  -0.30340  -0.29638  -0.29610
 Alpha  occ. eigenvalues --   -0.29526  -0.29032  -0.28883  -0.24300  -0.23650
 Alpha  occ. eigenvalues --   -0.21326  -0.20725
 Alpha virt. eigenvalues --   -0.08975  -0.08446  -0.01945  -0.01320  -0.00258
 Alpha virt. eigenvalues --    0.00318   0.01957   0.02385   0.02633   0.03687
 Alpha virt. eigenvalues --    0.04407   0.04444   0.05280   0.05578   0.05770

 Mulliken charges:
               1
     1  Mg   0.839501
     2  C   -0.005211
     3  C   -0.094177
     4  C   -0.045434
     5  C   -0.062659
     6  N   -0.256946
     7  C   -0.052992
     8  C   -0.014168
     9  C   -0.087063
    10  C    0.046359
    11  C    0.104662
    12  C    0.053323
    13  C   -0.071289
    14  H    0.032313
    15  N   -0.433355
    16  C    0.169203
    17  C   -0.176169
    18  C   -0.003179
    19  C    0.148981
    20  C    0.109808
    21  C    0.012476
    22  O   -0.249899
    23  C    0.061726
    24  N   -0.341009
    25  C    0.041727
    26  C   -0.028315
    27  C   -0.023912
    28  C    0.074589
    29  C    0.076049
    30  C    0.034653
    31  C   -0.005205
    32  N   -0.310428
    33  C    0.080112
    34  C   -0.169270
    35  C    0.007564
    36  C    0.082840
    37  C    0.127371
    38  C    0.044641
    39  O   -0.189000
    40  C   -0.005637
    41  C    0.217367
    42  O   -0.255358
    43  O   -0.302395
    44  C    0.157201
    45  H   -0.017289
    46  H   -0.016529
    47  H   -0.040142
    48  H    0.000805
    49  H   -0.004088
    50  H    0.025565
    51  H    0.017230
    52  H    0.017099
    53  H    0.011769
    54  H    0.040542
    55  H    0.019358
    56  H    0.018942
    57  H    0.005655
    58  H    0.027239
    59  H    0.041711
    60  H    0.037484
    61  H    0.035905
    62  H    0.033945
    63  H    0.016417
    64  H    0.009998
    65  H    0.023461
    66  H    0.012544
    67  H    0.005329
    68  H    0.006430
    69  H    0.006263
    70  H    0.007361
    71  H    0.019699
    72  H    0.030202
    73  H    0.047810
    74  H    0.010902
    75  H    0.046138
    76  H    0.036555
    77  H    0.045161
    78  H    0.047493
    79  H    0.050939
    80  Mg   0.835853
    81  C   -0.017072
    82  C   -0.088030
    83  C   -0.047322
    84  C   -0.065695
    85  N   -0.255916
    86  C   -0.047196
    87  C   -0.015196
    88  C   -0.091957
    89  C    0.047462
    90  C    0.119461
    91  C    0.062361
    92  C   -0.076947
    93  H    0.031361
    94  N   -0.423483
    95  C    0.163262
    96  C   -0.175621
    97  C   -0.009301
    98  C    0.152444
    99  C    0.100120
   100  C    0.014251
   101  O   -0.254719
   102  C    0.061629
   103  N   -0.350580
   104  C    0.037877
   105  C   -0.019818
   106  C   -0.034569
   107  C    0.088945
   108  C    0.072711
   109  C    0.034972
   110  C   -0.007477
   111  N   -0.324057
   112  C    0.078481
   113  C   -0.164499
   114  C    0.001916
   115  C    0.096098
   116  C    0.131496
   117  C    0.041204
   118  O   -0.189254
   119  C    0.001636
   120  C    0.211067
   121  O   -0.251998
   122  O   -0.304372
   123  C    0.152612
   124  H   -0.018661
   125  H   -0.017606
   126  H   -0.041762
   127  H    0.002930
   128  H   -0.008781
   129  H    0.023308
   130  H    0.006233
   131  H    0.030276
   132  H    0.012040
   133  H    0.035672
   134  H    0.024072
   135  H    0.018200
   136  H    0.009037
   137  H    0.023222
   138  H    0.038806
   139  H    0.036703
   140  H    0.035084
   141  H    0.034137
   142  H    0.013321
   143  H    0.012908
   144  H    0.023049
   145  H    0.009788
   146  H    0.010296
   147  H    0.005738
   148  H    0.003067
   149  H    0.010363
   150  H    0.017120
   151  H    0.030511
   152  H    0.045337
   153  H    0.008055
   154  H    0.044774
   155  H    0.037476
   156  H    0.043208
   157  H    0.050292
   158  H    0.052345
 Sum of Mulliken charges =  -0.00000

 Dipole moment (field-independent basis, Debye):
    X=             -6.2720    Y=              1.2055    Z=              5.6055  Tot=              8.4979
 Quadrupole moment (field-independent basis, Debye-Ang):
   XX=           -517.7377   YY=           -528.2159   ZZ=           -473.0351
   XY=             -3.3456   XZ=             -3.3854   YZ=            -30.8431

 Normal termination of Gaussian 16 at Fri Sep  3 17:46:15 2021.
