 Gaussian 16, Revision A.03,
 Gaussian 16:  ES64L-G16RevA.03 25-Dec-2016

 -----------------------------------
 #p cam-b3lyp/Def2SVP td=(nstates=5)
 -----------------------------------

 --------------------------------
 TDDFT excited states in gaussian
 --------------------------------
 Symbolic Z-matrix:
 Charge =  0 Multiplicity = 1

                         Standard orientation:
 ---------------------------------------------------------------------
 Center     Atomic      Atomic             Coordinates (Angstroms)
 Number     Number       Type             X           Y           Z
 ---------------------------------------------------------------------
      1         12           0       15.973524   -0.636891    0.006055
      2          6           0       16.145622    2.770007   -1.078215
      3          6           0       16.854368    0.463401    3.113552
      4          6           0       16.271549   -3.671519    0.877166
      5          6           0       16.226690   -1.561551   -3.344552
      6          7           0       16.415060    1.384443    0.793394
      7          6           0       16.387255    2.613860    0.288488
      8          6           0       16.564403    3.727448    1.363622
      9          6           0       17.328649    2.881767    2.478409
     10          6           0       16.808985    1.497609    2.132030
     11          6           0       18.845380    2.891492    2.317358
     12          6           0       15.192877    4.266152    1.893191
     13          6           0       15.268250    5.568340    2.695676
     14          1           0       14.184766    6.531575    2.570825
     15          7           0       16.007565   -1.456495    1.803259
     16          6           0       16.377581   -0.856448    2.960115
     17          6           0       16.230370   -1.881190    4.016010
     18          6           0       15.926692   -3.178959    3.351428
     19          6           0       16.084369   -2.821680    1.964753
     20          6           0       16.329092   -1.575243    5.479021
     21          6           0       15.563849   -4.529743    3.882333
     22          8           0       15.568985   -5.574217    3.145026
     23          6           0       15.284352   -4.614334    5.327244
     24          7           0       16.435086   -2.378251   -1.048582
     25          6           0       16.441347   -3.570705   -0.442777
     26          6           0       16.516837   -4.689107   -1.439480
     27          6           0       16.315323   -4.017217   -2.873951
     28          6           0       16.236203   -2.535272   -2.431401
     29          6           0       17.818469   -5.502585   -1.435275
     30          6           0       15.179207   -4.583358   -3.762289
     31          6           0       13.836758   -4.268074   -3.141381
     32          7           0       15.977147    0.389668   -1.906328
     33          6           0       16.116468   -0.191525   -3.174980
     34          6           0       16.168033    0.911457   -4.152138
     35          6           0       16.071162    2.065747   -3.377492
     36          6           0       15.992180    1.707403   -2.001394
     37          6           0       16.348126    0.772756   -5.556689
     38          6           0       16.040802    3.519284   -3.390295
     39          8           0       15.981051    4.377652   -4.271844
     40          6           0       16.210497    4.037198   -1.894035
     41          6           0       15.156649    5.083422   -1.652935
     42          8           0       13.946529    4.779307   -1.630842
     43          8           0       15.743727    6.221944   -1.253373
     44          6           0       14.751527    7.292755   -0.968662
     45          1           0       17.351915    0.660335    4.065185
     46          1           0       16.268560   -4.735172    1.124292
     47          1           0       16.219793   -1.776166   -4.414760
     48          1           0       17.180145    4.569932    1.048173
     49          1           0       17.019047    3.161802    3.485111
     50          1           0       19.144061    3.372654    1.386126
     51          1           0       19.144799    1.843236    2.317333
     52          1           0       19.324497    3.339942    3.188057
     53          1           0       14.816538    3.594344    2.664620
     54          1           0       14.483931    4.388295    1.073555
     55          1           0       16.233050    6.060004    2.567866
     56          1           0       15.229758    5.318765    3.756067
     57          1           0       16.723181   -0.574804    5.653262
     58          1           0       17.085812   -2.241216    5.893224
     59          1           0       15.381460   -1.729288    5.995349
     60          1           0       16.160781   -4.281071    5.883442
     61          1           0       14.955967   -5.636772    5.510646
     62          1           0       14.482179   -3.917889    5.573074
     63          1           0       15.724065   -5.416899   -1.271379
     64          1           0       17.207023   -4.104151   -3.495230
     65          1           0       17.666933   -6.570430   -1.275745
     66          1           0       18.475720   -5.082882   -0.674248
     67          1           0       18.428150   -5.394143   -2.331905
     68          1           0       15.254894   -5.668144   -3.829041
     69          1           0       15.188846   -4.187116   -4.777744
     70          1           0       13.709192   -5.071223   -2.416460
     71          1           0       13.051719   -4.296522   -3.897763
     72          1           0       13.865153   -3.329968   -2.586731
     73          1           0       15.642380    1.459433   -6.023986
     74          1           0       16.174354   -0.253742   -5.878725
     75          1           0       17.391661    1.070837   -5.656877
     76          1           0       17.217774    4.445126   -1.815861
     77          1           0       15.022534    8.152611   -1.581390
     78          1           0       14.740918    7.425654    0.113295
     79          1           0       13.732503    7.109094   -1.311001
     80         12           0      -15.778053   -0.872557    0.157779
     81          6           0      -17.482405    2.246075   -0.340572
     82          6           0      -13.487866    0.846440    2.011068
     83          6           0      -14.014253   -3.508746    0.241251
     84          6           0      -17.506548   -2.099977   -2.608349
     85          7           0      -15.614735    1.266876    0.694817
     86          6           0      -16.354311    2.348259    0.499904
     87          6           0      -15.902499    3.591469    1.312213
     88          6           0      -14.363080    3.189666    1.530449
     89          6           0      -14.492311    1.670325    1.443290
     90          6           0      -13.453904    3.656974    0.406023
     91          6           0      -16.661821    3.720519    2.679252
     92          6           0      -16.497375    5.070267    3.381313
     93          1           0      -17.630421    5.608587    4.128907
     94          7           0      -14.300641   -1.391197    1.377144
     95          6           0      -13.486066   -0.564700    2.066099
     96          6           0      -12.554700   -1.436437    2.798749
     97          6           0      -12.780243   -2.839740    2.357638
     98          6           0      -13.713199   -2.627225    1.269278
     99          6           0      -11.628236   -0.924986    3.863408
    100          6           0      -12.235328   -4.154256    2.828092
    101          8           0      -12.385436   -5.228548    2.145300
    102          6           0      -11.440734   -4.129710    4.064822
    103          7           0      -15.600030   -2.491406   -1.134498
    104          6           0      -14.799956   -3.529892   -0.835575
    105          6           0      -15.042518   -4.691763   -1.769164
    106          6           0      -16.347177   -4.303318   -2.608556
    107          6           0      -16.591828   -2.883070   -2.053164
    108          6           0      -13.900201   -5.023544   -2.729073
    109          6           0      -17.523801   -5.317151   -2.589783
    110          6           0      -18.125296   -5.384143   -1.204462
    111          7           0      -17.364672   -0.162595   -1.125439
    112          6           0      -17.920652   -0.825977   -2.241191
    113          6           0      -18.888409    0.101892   -2.861637
    114          6           0      -18.810843    1.258415   -2.071105
    115          6           0      -17.847070    1.072327   -1.043484
    116          6           0      -19.655320   -0.156519   -4.032608
    117          6           0      -19.317425    2.598208   -1.878670
    118          8           0      -20.211549    3.270703   -2.390543
    119          6           0      -18.388400    3.343392   -0.826046
    120          6           0      -19.277421    4.016108    0.183709
    121          8           0      -19.989146    3.341179    0.948256
    122          8           0      -18.980029    5.327582    0.228211
    123          6           0      -19.828117    6.035973    1.223577
    124          1           0      -12.594568    1.322230    2.416690
    125          1           0      -13.512512   -4.477988    0.289151
    126          1           0      -18.157008   -2.443580   -3.415502
    127          1           0      -15.969242    4.531801    0.778263
    128          1           0      -14.013192    3.486679    2.515705
    129          1           0      -14.013340    4.080771   -0.414690
    130          1           0      -12.912491    2.778178    0.080994
    131          1           0      -12.700565    4.348969    0.793279
    132          1           0      -16.183126    3.064923    3.418014
    133          1           0      -17.704765    3.500984    2.557985
    134          1           0      -16.079651    5.833836    2.713913
    135          1           0      -15.747115    4.962863    4.168456
    136          1           0      -11.567434    0.170264    3.851521
    137          1           0      -10.619107   -1.255959    3.595116
    138          1           0      -11.874017   -1.309122    4.855733
    139          1           0      -10.593613   -3.460083    3.936554
    140          1           0      -11.214298   -5.174241    4.287467
    141          1           0      -12.056061   -3.708571    4.867697
    142          1           0      -15.239949   -5.599995   -1.213080
    143          1           0      -16.123364   -4.187793   -3.679257
    144          1           0      -13.544412   -6.067359   -2.639915
    145          1           0      -13.090385   -4.329080   -2.548923
    146          1           0      -14.118548   -4.855631   -3.782319
    147          1           0      -17.161473   -6.322132   -2.819753
    148          1           0      -18.305433   -5.085014   -3.305427
    149          1           0      -17.465702   -6.083933   -0.682619
    150          1           0      -19.145331   -5.760572   -1.247521
    151          1           0      -18.048671   -4.416596   -0.694922
    152          1           0      -20.657861    0.197612   -3.832627
    153          1           0      -19.649755   -1.214585   -4.286057
    154          1           0      -19.105033    0.443293   -4.762456
    155          1           0      -17.778885    4.060632   -1.377080
    156          1           0      -20.326452    6.853958    0.694187
    157          1           0      -19.149056    6.311961    2.052106
    158          1           0      -20.677033    5.499474    1.630944
 ---------------------------------------------------------------------

 SCF Done:  E(RCAM-B3LYP) =  -4069.81177602     A.U. after   19 cycles

 Excitation energies and oscillator strengths:

 Excited State   1:      Singlet-A      1.6755 eV  740.00 nm  f=0.3057  <S**2>=0.000
     310 -> 316        0.17113
     311 -> 313       -0.11473
     312 -> 314        0.67639
     310 <- 316        0.10316
 This state for optimization and/or second-order correction.
 Total Energy, E(TD-HF/TD-DFT) =  -4069.75020393
 Copying the excited state density for this state as the 1-particle RhoCI density.

 Excited State   2:      Singlet-A      1.6800 eV  738.02 nm  f=0.4741  <S**2>=0.000
     309 -> 315        0.17312
     311 -> 313        0.67603
     312 -> 314        0.11469
     309 <- 315        0.10366

 Excited State   3:      Singlet-A      2.1861 eV  567.15 nm  f=0.0951  <S**2>=0.000
     310 -> 314        0.64210
     312 -> 316       -0.27295

 Excited State   4:      Singlet-A      2.1926 eV  565.48 nm  f=0.1050  <S**2>=0.000
     309 -> 313        0.64032
     311 -> 315       -0.27816

 Excited State   5:      Singlet-A      3.0621 eV  404.89 nm  f=0.0000  <S**2>=0.000
     312 -> 313        0.70710

 The electronic state is 1-A.
 Alpha  occ. eigenvalues --  -46.87814 -46.87660 -19.26351 -19.26306 -19.19162
 Alpha  occ. eigenvalues --  -19.19042 -19.18832 -19.18713 -19.18188 -19.18052
 Alpha  occ. eigenvalues --  -14.42497 -14.42468 -14.41467 -14.41359 -14.39421
 Alpha  occ. eigenvalues --  -14.39352 -14.38605 -14.38600 -10.39101 -10.39092
 Alpha  occ. eigenvalues --  -10.35465 -10.35391 -10.34408 -10.34229 -10.31758
 Alpha  occ. eigenvalues --  -10.31702 -10.31423 -10.31308 -10.31023 -10.30927
 Alpha  occ. eigenvalues --  -10.30588 -10.30525 -10.30398 -10.30361 -10.30224
 Alpha  occ. eigenvalues --  -10.30141 -10.29938 -10.29895 -10.29648 -10.29436
 Alpha  occ. eigenvalues --  -10.29401 -10.29272 -10.28769 -10.28718 -10.28655
 Alpha  occ. eigenvalues --  -10.28562 -10.28405 -10.28383 -10.28139 -10.28135
 Alpha  occ. eigenvalues --  -10.28001 -10.27811 -10.27745 -10.27668 -10.27602
 Alpha  occ. eigenvalues --  -10.27518 -10.27516 -10.27499 -10.27483 -10.27467
 Alpha  occ. eigenvalues --  -10.27465 -10.27464 -10.27422 -10.27375 -10.27177
 Alpha  occ. eigenvalues --  -10.27051 -10.26727 -10.26693 -10.26427 -10.26414
 Alpha  occ. eigenvalues --  -10.26252 -10.26199 -10.26139 -10.26036 -10.26021
 Alpha  occ. eigenvalues --  -10.25934 -10.25860 -10.25852 -10.25449 -10.25395
 Alpha  occ. eigenvalues --  -10.24873 -10.24851 -10.24805 -10.24733 -10.24703
 Alpha  occ. eigenvalues --  -10.24690  -3.16557  -3.16410  -1.91439  -1.91293
 Alpha  occ. eigenvalues --   -1.91025  -1.90881  -1.90867  -1.90718  -1.16654
 Alpha  occ. eigenvalues --   -1.16644  -1.08660  -1.08646  -1.07233  -1.06965
 Alpha  occ. eigenvalues --   -1.06947  -1.06664  -1.04599  -1.04495  -1.03778
 Alpha  occ. eigenvalues --   -1.03663  -1.03251  -1.03039  -1.02429  -1.02111
 Alpha  occ. eigenvalues --   -0.91990  -0.91987  -0.89536  -0.89495  -0.89207
 Alpha  occ. eigenvalues --   -0.89150  -0.88303  -0.88220  -0.87888  -0.87794
 Alpha  occ. eigenvalues --   -0.87691  -0.87684  -0.87292  -0.87119  -0.85001
 Alpha  occ. eigenvalues --   -0.84999  -0.83953  -0.83876  -0.82984  -0.82931
 Alpha  occ. eigenvalues --   -0.82667  -0.82652  -0.81605  -0.81597  -0.80615
 Alpha  occ. eigenvalues --   -0.80443  -0.78815  -0.78635  -0.77236  -0.77144
 Alpha  occ. eigenvalues --   -0.76953  -0.76898  -0.75942  -0.75838  -0.74915
 Alpha  occ. eigenvalues --   -0.74802  -0.72792  -0.72699  -0.71690  -0.71580
 Alpha  occ. eigenvalues --   -0.69923  -0.69758  -0.68892  -0.68827  -0.67659
 Alpha  occ. eigenvalues --   -0.67602  -0.67239  -0.67200  -0.65305  -0.65272
 Alpha  occ. eigenvalues --   -0.64872  -0.64770  -0.64654  -0.64639  -0.64286
 Alpha  occ. eigenvalues --   -0.64204  -0.62317  -0.62279  -0.60459  -0.60339
 Alpha  occ. eigenvalues --   -0.59823  -0.59796  -0.59005  -0.58993  -0.58522
 Alpha  occ. eigenvalues --   -0.58426  -0.57604  -0.57555  -0.57326  -0.57237
 Alpha  occ. eigenvalues --   -0.56328  -0.56204  -0.55999  -0.55887  -0.55538
 Alpha  occ. eigenvalues --   -0.55452  -0.55357  -0.55248  -0.54542  -0.54488
 Alpha  occ. eigenvalues --   -0.53914  -0.53912  -0.53316  -0.53241  -0.53228
 Alpha  occ. eigenvalues --   -0.53142  -0.52934  -0.52903  -0.52774  -0.52667
 Alpha  occ. eigenvalues --   -0.52454  -0.52402  -0.51932  -0.51886  -0.51658
 Alpha  occ. eigenvalues --   -0.51636  -0.51214  -0.51202  -0.50590  -0.50474
 Alpha  occ. eigenvalues --   -0.50048  -0.49979  -0.49936  -0.49867  -0.49533
 Alpha  occ. eigenvalues --   -0.49487  -0.49233  -0.49202  -0.49115  -0.49104
 Alpha  occ. eigenvalues --   -0.48611  -0.48558  -0.48478  -0.48463  -0.48376
 Alpha  occ. eigenvalues --   -0.48338  -0.47713  -0.47594  -0.47314  -0.47118
 Alpha  occ. eigenvalues --   -0.46815  -0.46709  -0.46574  -0.46553  -0.46377
 Alpha  occ. eigenvalues --   -0.46271  -0.46180  -0.46086  -0.45841  -0.45823
 Alpha  occ. eigenvalues --   -0.45218  -0.45208  -0.44596  -0.44525  -0.44514
 Alpha  occ. eigenvalues --   -0.44476  -0.44162  -0.44127  -0.44107  -0.44078
 Alpha  occ. eigenvalues --   -0.44038  -0.43939  -0.43554  -0.43514  -0.43404
 Alpha  occ. eigenvalues --   -0.43386  -0.43045  -0.42931  -0.42902  -0.42718
 Alpha  occ. eigenvalues --   -0.42673  -0.42554  -0.42027  -0.41965  -0.41722
 Alpha  occ. eigenvalues --   -0.41669  -0.41553  -0.41459  -0.41159  -0.40989
 Alpha  occ. eigenvalues --   -0.40888  -0.40841  -0.40722  -0.40698  -0.40588
 Alpha  occ. eigenvalues --   -0.40493  -0.40255  -0.40227  -0.39457  -0.39426
 Alpha  occ. eigenvalues --   -0.38486  -0.38350  -0.37768  -0.37654  -0.37337
 Alpha  occ. eigenvalues --   -0.37283  -0.37266  -0.37199  -0.36772  -0.36733
 Alpha  occ. eigenvalues --   -0.36217  -0.36211  -0.34304  -0.34254  -0.33863
 Alpha  occ. eigenvalues --   -0.33791  -0.33204  -0.33176  -0.31362  -0.31272
 Alpha  occ. eigenvalues --   -0.31053  -0.30973  -0.30047  -0.29956  -0.29467
 Alpha  occ. eigenvalues --   -0.29340  -0.29327  -0.29212  -0.24098  -0.24036
 Alpha  occ. eigenvalues --   -0.21145  -0.21117
 Alpha virt. eigenvalues --   -0.08792  -0.08792  -0.01767  -0.01684  -0.00076
 Alpha virt. eigenvalues --   -0.00028   0.02182   0.02207   0.03102   0.03227
 Alpha virt. eigenvalues --    0.04699   0.04730   0.05077   0.05164   0.06156

 Mulliken charges:
               1
     1  Mg   0.838655
     2  C   -0.002974
     3  C   -0.094138
     4  C   -0.045845
     5  C   -0.063938
     6  N   -0.256765
     7  C   -0.052491
     8  C   -0.014000
     9  C   -0.087005
    10  C    0.046312
    11  C    0.104809
    12  C    0.053469
    13  C   -0.071781
    14  H    0.036051
    15  N   -0.433134
    16  C    0.168432
    17  C   -0.177148
    18  C   -0.004002
    19  C    0.148704
    20  C    0.110173
    21  C    0.012284
    22  O   -0.249592
    23  C    0.062477
    24  N   -0.341126
    25  C    0.041227
    26  C   -0.028163
    27  C   -0.023988
    28  C    0.074845
    29  C    0.076155
    30  C    0.035114
    31  C   -0.004504
    32  N   -0.310462
    33  C    0.080406
    34  C   -0.169712
    35  C    0.008345
    36  C    0.082987
    37  C    0.127315
    38  C    0.046113
    39  O   -0.188449
    40  C   -0.005345
    41  C    0.212883
    42  O   -0.257144
    43  O   -0.304779
    44  C    0.157702
    45  H   -0.017596
    46  H   -0.016812
    47  H   -0.041472
    48  H    0.000944
    49  H   -0.004049
    50  H    0.025484
    51  H    0.016470
    52  H    0.016668
    53  H    0.011184
    54  H    0.044095
    55  H    0.017898
    56  H    0.017943
    57  H    0.005869
    58  H    0.026853
    59  H    0.039527
    60  H    0.037362
    61  H    0.035674
    62  H    0.031467
    63  H    0.016566
    64  H    0.009484
    65  H    0.023241
    66  H    0.012552
    67  H    0.004777
    68  H    0.006401
    69  H    0.004741
    70  H    0.008792
    71  H    0.018147
    72  H    0.028951
    73  H    0.047556
    74  H    0.009127
    75  H    0.046029
    76  H    0.035167
    77  H    0.042953
    78  H    0.046391
    79  H    0.053644
    80  Mg   0.837852
    81  C   -0.016788
    82  C   -0.087798
    83  C   -0.045488
    84  C   -0.064863
    85  N   -0.254586
    86  C   -0.049846
    87  C   -0.015091
    88  C   -0.090504
    89  C    0.045770
    90  C    0.114356
    91  C    0.062527
    92  C   -0.077902
    93  H    0.034873
    94  N   -0.423476
    95  C    0.162938
    96  C   -0.174589
    97  C   -0.007794
    98  C    0.152119
    99  C    0.099338
   100  C    0.015593
   101  O   -0.253162
   102  C    0.061197
   103  N   -0.350046
   104  C    0.037524
   105  C   -0.019842
   106  C   -0.034817
   107  C    0.088889
   108  C    0.073632
   109  C    0.034745
   110  C   -0.007677
   111  N   -0.324110
   112  C    0.078456
   113  C   -0.163143
   114  C    0.002248
   115  C    0.096156
   116  C    0.131492
   117  C    0.042372
   118  O   -0.187882
   119  C    0.000904
   120  C    0.211264
   121  O   -0.251034
   122  O   -0.305628
   123  C    0.152030
   124  H   -0.019607
   125  H   -0.015542
   126  H   -0.040464
   127  H   -0.000633
   128  H   -0.004322
   129  H    0.022474
   130  H    0.014470
   131  H    0.016338
   132  H    0.013906
   133  H    0.037667
   134  H    0.020812
   135  H    0.019594
   136  H    0.008783
   137  H    0.026219
   138  H    0.039780
   139  H    0.038300
   140  H    0.036411
   141  H    0.033866
   142  H    0.014396
   143  H    0.012439
   144  H    0.025166
   145  H    0.011690
   146  H    0.005702
   147  H    0.006276
   148  H    0.003642
   149  H    0.010936
   150  H    0.017917
   151  H    0.030092
   152  H    0.045988
   153  H    0.008507
   154  H    0.046957
   155  H    0.035051
   156  H    0.043914
   157  H    0.049500
   158  H    0.053565
 Sum of Mulliken charges =  -0.00000

 Dipole moment (field-independent basis, Debye):
    X=              6.0964    Y=              0.7167    Z=              5.7553  Tot=              8.4145
 Quadrupole moment (field-independent basis, Debye-Ang):
   XX=           -589.9033   YY=           -512.0324   ZZ=           -479.7790
   XY=              5.2731   XZ=             44.9937   YZ=             58.2107

 Normal termination of Gaussian 16 at Sun Sep 12 20:43:48 2021.
