 Gaussian 16, Revision A.03,
 Gaussian 16:  ES64L-G16RevA.03 25-Dec-2016

 -----------------------------------
 #p cam-b3lyp/Def2SVP td=(nstates=5)
 -----------------------------------

 --------------------------------
 TDDFT excited states in gaussian
 --------------------------------
 Symbolic Z-matrix:
 Charge =  0 Multiplicity = 1

                         Standard orientation:
 ---------------------------------------------------------------------
 Center     Atomic      Atomic             Coordinates (Angstroms)
 Number     Number       Type             X           Y           Z
 ---------------------------------------------------------------------
      1         12           0       -3.859949    0.349177   -0.778945
      2          6           0       -3.952270   -3.048208    0.344205
      3          6           0       -5.391197    1.202367    2.148581
      4          6           0       -4.200465    3.281360   -1.937812
      5          6           0       -3.397174   -0.884885   -4.005180
      6          7           0       -4.533966   -0.859339    0.949012
      7          6           0       -4.456483   -2.144050    1.281709
      8          6           0       -4.891784   -2.429293    2.750219
      9          6           0       -5.828369   -1.160757    2.986061
     10          6           0       -5.192789   -0.201919    1.994803
     11          6           0       -7.281023   -1.392559    2.582866
     12          6           0       -3.677947   -2.437023    3.739295
     13          6           0       -3.966761   -3.025096    5.123532
     14          1           0       -2.921188   -3.782530    5.794663
     15          7           0       -4.219804    2.058052    0.144689
     16          6           0       -4.838963    2.218423    1.338929
     17          6           0       -4.864176    3.675027    1.592602
     18          6           0       -4.379749    4.359681    0.361882
     19          6           0       -4.270717    3.247386   -0.547123
     20          6           0       -5.267009    4.274865    2.904726
     21          6           0       -4.075050    5.790949    0.050817
     22          8           0       -3.888810    6.202290   -1.145296
     23          6           0       -4.087845    6.727690    1.188971
     24          7           0       -4.027868    1.098258   -2.720160
     25          6           0       -4.106041    2.413963   -2.947739
     26          6           0       -3.933555    2.727313   -4.404448
     27          6           0       -3.476419    1.363977   -5.098777
     28          6           0       -3.549267    0.433703   -3.862835
     29          6           0       -5.174660    3.274724   -5.122784
     30          6           0       -2.162686    1.398772   -5.919335
     31          6           0       -0.986363    1.622211   -4.995519
     32          7           0       -3.522441   -1.597229   -1.678188
     33          6           0       -3.380170   -1.881752   -3.044014
     34          6           0       -3.280383   -3.347277   -3.171877
     35          6           0       -3.388882   -3.817546   -1.864620
     36          6           0       -3.572774   -2.717310   -0.979207
     37          6           0       -3.169120   -4.071753   -4.391380
     38          6           0       -3.416924   -4.995231   -1.012489
     39          8           0       -3.217211   -6.197973   -1.188613
     40          6           0       -3.904693   -4.553060    0.437474
     41          6           0       -2.964989   -5.166090    1.439701
     42          8           0       -1.772345   -4.804223    1.503100
     43          8           0       -3.667027   -5.901418    2.315474
     44          6           0       -2.797433   -6.514071    3.355001
     45          1           0       -6.077280    1.557122    2.920190
     46          1           0       -4.202973    4.284282   -2.369761
     47          1           0       -3.166812   -1.336678   -4.971756
     48          1           0       -5.466146   -3.346145    2.884068
     49          1           0       -5.738919   -0.771779    4.000170
     50          1           0       -7.406516   -2.350668    2.078684
     51          1           0       -7.530579   -0.572406    1.909395
     52          1           0       -7.943268   -1.286471    3.442490
     53          1           0       -3.436472   -1.411848    4.019950
     54          1           0       -2.824673   -2.953981    3.298836
     55          1           0       -4.905862   -3.579084    5.133200
     56          1           0       -4.131461   -2.200620    5.817299
     57          1           0       -5.729217    3.535766    3.557904
     58          1           0       -6.063136    4.989549    2.697075
     59          1           0       -4.436668    4.782066    3.396267
     60          1           0       -5.071101    6.708882    1.659507
     61          1           0       -3.760785    7.687960    0.791777
     62          1           0       -3.380910    6.378106    1.941954
     63          1           0       -3.161116    3.480649   -4.553605
     64          1           0       -4.220958    0.994654   -5.804424
     65          1           0       -5.014024    4.242542   -5.598421
     66          1           0       -5.988066    3.324655   -4.399480
     67          1           0       -5.596030    2.610954   -5.877287
     68          1           0       -2.178354    2.228547   -6.625150
     69          1           0       -1.984847    0.484692   -6.485975
     70          1           0       -0.973601    2.704882   -4.875130
     71          1           0       -0.065049    1.270245   -5.460827
     72          1           0       -1.164362    1.187060   -4.011931
     73          1           0       -2.413094   -4.838539   -4.222758
     74          1           0       -2.891824   -3.416873   -5.217118
     75          1           0       -4.182793   -4.460141   -4.488727
     76          1           0       -4.923219   -4.922722    0.551834
     77          1           0       -2.975454   -7.589196    3.329536
     78          1           0       -3.009625   -5.987980    4.285919
     79          1           0       -1.723719   -6.478763    3.167300
     80         12           0        3.911040    1.092371    0.697775
     81          6           0        4.322527   -2.047580   -0.990547
     82          6           0        2.681491   -0.664950    3.350064
     83          6           0        3.118170    3.858114    2.035480
     84          6           0        4.080117    2.634397   -2.423001
     85          7           0        3.592946   -1.072846    1.018594
     86          6           0        3.843828   -2.176113    0.329966
     87          6           0        3.642130   -3.492218    1.127935
     88          6           0        2.604973   -2.950124    2.227626
     89          6           0        3.001534   -1.475199    2.231501
     90          6           0        1.153763   -3.053393    1.788695
     91          6           0        4.970754   -3.998364    1.791700
     92          6           0        4.917832   -5.431821    2.324756
     93          1           0        6.120708   -6.254407    2.230278
     94          7           0        3.494342    1.532186    2.587619
     95          6           0        3.025150    0.692385    3.534120
     96          6           0        2.864558    1.505452    4.749561
     97          6           0        3.120722    2.928892    4.398943
     98          6           0        3.236491    2.828688    2.957892
     99          6           0        2.579438    0.907626    6.096681
    100          6           0        3.229176    4.176109    5.222884
    101          8           0        3.219447    5.340267    4.686734
    102          6           0        3.253044    3.997864    6.682048
    103          7           0        3.426146    2.953161   -0.092564
    104          6           0        3.173267    4.001033    0.711148
    105          6           0        3.121566    5.290278   -0.073434
    106          6           0        3.634124    4.920099   -1.542396
    107          6           0        3.816727    3.396163   -1.370156
    108          6           0        1.749652    5.957783   -0.166561
    109          6           0        4.822783    5.748328   -2.102555
    110          6           0        6.077438    5.448777   -1.314199
    111          7           0        4.338648    0.466222   -1.325382
    112          6           0        4.330175    1.269553   -2.486704
    113          6           0        4.568672    0.374110   -3.637242
    114          6           0        4.677296   -0.901456   -3.063116
    115          6           0        4.497669   -0.810346   -1.656370
    116          6           0        4.610374    0.769072   -5.004123
    117          6           0        4.892501   -2.305733   -3.328392
    118          8           0        5.187474   -2.966588   -4.323378
    119          6           0        4.546568   -3.127422   -2.012502
    120          6           0        5.664489   -4.103377   -1.766979
    121          8           0        6.806680   -3.698776   -1.487173
    122          8           0        5.155108   -5.346276   -1.688740
    123          6           0        6.224115   -6.348589   -1.434942
    124          1           0        2.072948   -1.095777    4.145637
    125          1           0        2.954747    4.852577    2.457158
    126          1           0        4.244410    3.051477   -3.418863
    127          1           0        3.195848   -4.301984    0.563235
    128          1           0        2.791096   -3.397559    3.200523
    129          1           0        1.065625   -3.366024    0.758829
    130          1           0        0.735341   -2.064206    1.920932
    131          1           0        0.600189   -3.708060    2.467879
    132          1           0        5.131452   -3.454297    2.731333
    133          1           0        5.797715   -3.894233    1.116481
    134          1           0        4.046517   -5.980288    1.946670
    135          1           0        4.762668   -5.394553    3.405755
    136          1           0        2.279144   -0.144271    6.014552
    137          1           0        1.691052    1.413821    6.489611
    138          1           0        3.403509    1.042814    6.800465
    139          1           0        2.348361    3.483841    6.997919
    140          1           0        3.424186    4.993745    7.095334
    141          1           0        4.093266    3.343932    6.940918
    142          1           0        3.786452    6.030404    0.354626
    143          1           0        2.845237    5.058854   -2.296213
    144          1           0        1.743410    6.997262    0.212272
    145          1           0        1.037237    5.350921    0.376315
    146          1           0        1.316291    5.985325   -1.164884
    147          1           0        4.629102    6.817175   -1.983335
    148          1           0        5.014338    5.571248   -3.155613
    149          1           0        5.983742    6.103916   -0.442933
    150          1           0        6.963425    5.691787   -1.897305
    151          1           0        6.076300    4.414616   -0.950644
    152          1           0        5.451141    0.255423   -5.451104
    153          1           0        4.704455    1.848452   -5.103391
    154          1           0        3.634443    0.409395   -5.340941
    155          1           0        3.593675   -3.630451   -2.181411
    156          1           0        6.156841   -7.096074   -2.231451
    157          1           0        6.063414   -6.700868   -0.398693
    158          1           0        7.252248   -6.021789   -1.537893
 ---------------------------------------------------------------------

 SCF Done:  E(RCAM-B3LYP) =  -4069.81453637     A.U. after   19 cycles

 Excitation energies and oscillator strengths:

 Excited State   1:      Singlet-A      1.6462 eV  753.16 nm  f=0.0975  <S**2>=0.000
     309 -> 315       -0.10783
     310 -> 316        0.12537
     311 -> 313       -0.44384
     312 -> 314        0.52525
 This state for optimization and/or second-order correction.
 Total Energy, E(TD-HF/TD-DFT) =  -4069.75404050
 Copying the excited state density for this state as the 1-particle RhoCI density.

 Excited State   2:      Singlet-A      1.6950 eV  731.47 nm  f=0.5695  <S**2>=0.000
     309 -> 315        0.13756
     310 -> 316        0.11298
     311 -> 313        0.52266
     312 -> 314        0.44164

 Excited State   3:      Singlet-A      2.1776 eV  569.36 nm  f=0.0528  <S**2>=0.000
     309 -> 313       -0.25767
     310 -> 314        0.59210
     311 -> 315        0.10499
     312 -> 316       -0.24079

 Excited State   4:      Singlet-A      2.1881 eV  566.64 nm  f=0.0005  <S**2>=0.000
     312 -> 313        0.70601

 Excited State   5:      Singlet-A      2.1977 eV  564.15 nm  f=0.1291  <S**2>=0.000
     309 -> 313        0.58563
     310 -> 314        0.25217
     311 -> 315       -0.25887
     312 -> 316       -0.11211

 The electronic state is 1-A.
 Alpha  occ. eigenvalues --  -46.87985 -46.87291 -19.26905 -19.25901 -19.19800
 Alpha  occ. eigenvalues --  -19.18944 -19.18744 -19.18520 -19.18436 -19.17705
 Alpha  occ. eigenvalues --  -14.42658 -14.42042 -14.41633 -14.41001 -14.39583
 Alpha  occ. eigenvalues --  -14.39005 -14.38782 -14.38241 -10.39745 -10.38666
 Alpha  occ. eigenvalues --  -10.35570 -10.35206 -10.34674 -10.33868 -10.32282
 Alpha  occ. eigenvalues --  -10.31635 -10.31331 -10.31149 -10.30807 -10.30772
 Alpha  occ. eigenvalues --  -10.30690 -10.30560 -10.30357 -10.30102 -10.30077
 Alpha  occ. eigenvalues --  -10.30004 -10.29810 -10.29809 -10.29560 -10.29415
 Alpha  occ. eigenvalues --  -10.29101 -10.29098 -10.29081 -10.29028 -10.28580
 Alpha  occ. eigenvalues --  -10.28394 -10.28130 -10.28032 -10.27984 -10.27973
 Alpha  occ. eigenvalues --  -10.27922 -10.27754 -10.27669 -10.27644 -10.27623
 Alpha  occ. eigenvalues --  -10.27599 -10.27590 -10.27531 -10.27279 -10.27227
 Alpha  occ. eigenvalues --  -10.27219 -10.27200 -10.27179 -10.27166 -10.27073
 Alpha  occ. eigenvalues --  -10.27070 -10.26609 -10.26472 -10.26454 -10.26309
 Alpha  occ. eigenvalues --  -10.26272 -10.26180 -10.26130 -10.25937 -10.25888
 Alpha  occ. eigenvalues --  -10.25647 -10.25594 -10.25559 -10.25065 -10.25032
 Alpha  occ. eigenvalues --  -10.24977 -10.24783 -10.24536 -10.24500 -10.24353
 Alpha  occ. eigenvalues --  -10.24328  -3.16727  -3.16042  -1.91608  -1.91195
 Alpha  occ. eigenvalues --   -1.91037  -1.90925  -1.90511  -1.90350  -1.17265
 Alpha  occ. eigenvalues --   -1.16203  -1.08925  -1.08306  -1.07343  -1.07342
 Alpha  occ. eigenvalues --   -1.06782  -1.06529  -1.04799  -1.04050  -1.03948
 Alpha  occ. eigenvalues --   -1.03419  -1.03277  -1.02693  -1.02601  -1.01747
 Alpha  occ. eigenvalues --   -0.92232  -0.91582  -0.89688  -0.89484  -0.89171
 Alpha  occ. eigenvalues --   -0.88448  -0.88397  -0.88038  -0.87892  -0.87891
 Alpha  occ. eigenvalues --   -0.87482  -0.87416  -0.87254  -0.86876  -0.85267
 Alpha  occ. eigenvalues --   -0.84420  -0.84114  -0.83566  -0.83103  -0.82905
 Alpha  occ. eigenvalues --   -0.82722  -0.82115  -0.81940  -0.81184  -0.80851
 Alpha  occ. eigenvalues --   -0.80055  -0.78955  -0.78341  -0.77434  -0.77237
 Alpha  occ. eigenvalues --   -0.76758  -0.76361  -0.76209  -0.75180  -0.75085
 Alpha  occ. eigenvalues --   -0.74408  -0.72958  -0.72325  -0.71894  -0.71063
 Alpha  occ. eigenvalues --   -0.70043  -0.69440  -0.69136  -0.68281  -0.67869
 Alpha  occ. eigenvalues --   -0.67499  -0.67263  -0.66748  -0.65585  -0.65133
 Alpha  occ. eigenvalues --   -0.64875  -0.64735  -0.64444  -0.64375  -0.64176
 Alpha  occ. eigenvalues --   -0.63856  -0.62687  -0.61881  -0.60594  -0.60062
 Alpha  occ. eigenvalues --   -0.60062  -0.59213  -0.59202  -0.58749  -0.58600
 Alpha  occ. eigenvalues --   -0.58046  -0.57983  -0.57506  -0.57158  -0.56910
 Alpha  occ. eigenvalues --   -0.56587  -0.56360  -0.55859  -0.55739  -0.55611
 Alpha  occ. eigenvalues --   -0.55464  -0.55100  -0.54902  -0.54859  -0.54208
 Alpha  occ. eigenvalues --   -0.54123  -0.53527  -0.53474  -0.53347  -0.53138
 Alpha  occ. eigenvalues --   -0.52929  -0.52902  -0.52742  -0.52576  -0.52533
 Alpha  occ. eigenvalues --   -0.52177  -0.52114  -0.52054  -0.51888  -0.51616
 Alpha  occ. eigenvalues --   -0.51442  -0.51156  -0.50799  -0.50680  -0.50254
 Alpha  occ. eigenvalues --   -0.50200  -0.50090  -0.49768  -0.49619  -0.49516
 Alpha  occ. eigenvalues --   -0.49478  -0.49362  -0.49015  -0.48918  -0.48797
 Alpha  occ. eigenvalues --   -0.48699  -0.48601  -0.48377  -0.48079  -0.48046
 Alpha  occ. eigenvalues --   -0.47956  -0.47923  -0.47499  -0.47132  -0.47013
 Alpha  occ. eigenvalues --   -0.46856  -0.46786  -0.46588  -0.46384  -0.46282
 Alpha  occ. eigenvalues --   -0.46117  -0.45965  -0.45866  -0.45732  -0.45386
 Alpha  occ. eigenvalues --   -0.45350  -0.44855  -0.44844  -0.44714  -0.44390
 Alpha  occ. eigenvalues --   -0.44308  -0.44228  -0.44157  -0.44066  -0.43835
 Alpha  occ. eigenvalues --   -0.43781  -0.43628  -0.43567  -0.43425  -0.43268
 Alpha  occ. eigenvalues --   -0.43170  -0.43136  -0.42820  -0.42811  -0.42512
 Alpha  occ. eigenvalues --   -0.42445  -0.42244  -0.42231  -0.41947  -0.41805
 Alpha  occ. eigenvalues --   -0.41588  -0.41364  -0.41246  -0.41129  -0.41012
 Alpha  occ. eigenvalues --   -0.40951  -0.40742  -0.40574  -0.40508  -0.40387
 Alpha  occ. eigenvalues --   -0.40220  -0.39860  -0.39662  -0.39573  -0.39127
 Alpha  occ. eigenvalues --   -0.38657  -0.38110  -0.37964  -0.37545  -0.37503
 Alpha  occ. eigenvalues --   -0.37252  -0.37165  -0.36867  -0.36668  -0.36473
 Alpha  occ. eigenvalues --   -0.36367  -0.35801  -0.34533  -0.34390  -0.33855
 Alpha  occ. eigenvalues --   -0.33458  -0.33401  -0.32810  -0.31482  -0.31251
 Alpha  occ. eigenvalues --   -0.31074  -0.30566  -0.30308  -0.29621  -0.29600
 Alpha  occ. eigenvalues --   -0.29508  -0.29039  -0.28887  -0.24289  -0.23658
 Alpha  occ. eigenvalues --   -0.21315  -0.20735
 Alpha virt. eigenvalues --   -0.08961  -0.08453  -0.01935  -0.01328  -0.00240
 Alpha virt. eigenvalues --    0.00307   0.01978   0.02385   0.02636   0.03681
 Alpha virt. eigenvalues --    0.04397   0.04459   0.05256   0.05590   0.05760

 Mulliken charges:
               1
     1  Mg   0.839296
     2  C   -0.004988
     3  C   -0.094419
     4  C   -0.045450
     5  C   -0.062733
     6  N   -0.256854
     7  C   -0.053136
     8  C   -0.014085
     9  C   -0.086962
    10  C    0.046221
    11  C    0.104684
    12  C    0.052708
    13  C   -0.071122
    14  H    0.032157
    15  N   -0.433365
    16  C    0.169119
    17  C   -0.176297
    18  C   -0.003073
    19  C    0.148934
    20  C    0.109865
    21  C    0.012743
    22  O   -0.249897
    23  C    0.061755
    24  N   -0.340951
    25  C    0.041619
    26  C   -0.028290
    27  C   -0.023939
    28  C    0.074590
    29  C    0.076061
    30  C    0.034757
    31  C   -0.004597
    32  N   -0.310466
    33  C    0.080201
    34  C   -0.168899
    35  C    0.007778
    36  C    0.082719
    37  C    0.127296
    38  C    0.044851
    39  O   -0.188652
    40  C   -0.005760
    41  C    0.215768
    42  O   -0.256035
    43  O   -0.302679
    44  C    0.156986
    45  H   -0.017388
    46  H   -0.016570
    47  H   -0.040257
    48  H    0.000898
    49  H   -0.004289
    50  H    0.025618
    51  H    0.017239
    52  H    0.017025
    53  H    0.011315
    54  H    0.041717
    55  H    0.019496
    56  H    0.018741
    57  H    0.005447
    58  H    0.027265
    59  H    0.041385
    60  H    0.037252
    61  H    0.036160
    62  H    0.034088
    63  H    0.016268
    64  H    0.009988
    65  H    0.023416
    66  H    0.012615
    67  H    0.005285
    68  H    0.006319
    69  H    0.006069
    70  H    0.007213
    71  H    0.018564
    72  H    0.030453
    73  H    0.048361
    74  H    0.010684
    75  H    0.046080
    76  H    0.036380
    77  H    0.045107
    78  H    0.047133
    79  H    0.051438
    80  Mg   0.835959
    81  C   -0.016977
    82  C   -0.088160
    83  C   -0.047242
    84  C   -0.065767
    85  N   -0.255859
    86  C   -0.047049
    87  C   -0.015177
    88  C   -0.092455
    89  C    0.047570
    90  C    0.121964
    91  C    0.062378
    92  C   -0.076943
    93  H    0.031581
    94  N   -0.423476
    95  C    0.163261
    96  C   -0.175835
    97  C   -0.009246
    98  C    0.152369
    99  C    0.100187
   100  C    0.014187
   101  O   -0.254552
   102  C    0.061635
   103  N   -0.350598
   104  C    0.037907
   105  C   -0.019878
   106  C   -0.034409
   107  C    0.089015
   108  C    0.073175
   109  C    0.034936
   110  C   -0.007479
   111  N   -0.324130
   112  C    0.078649
   113  C   -0.164380
   114  C    0.002257
   115  C    0.096045
   116  C    0.131227
   117  C    0.041494
   118  O   -0.188875
   119  C    0.001457
   120  C    0.210919
   121  O   -0.252177
   122  O   -0.304046
   123  C    0.152676
   124  H   -0.019796
   125  H   -0.017371
   126  H   -0.041858
   127  H    0.004143
   128  H   -0.009133
   129  H    0.028565
   130  H    0.005298
   131  H    0.024828
   132  H    0.011997
   133  H    0.035888
   134  H    0.023876
   135  H    0.017877
   136  H    0.008705
   137  H    0.023132
   138  H    0.038855
   139  H    0.036600
   140  H    0.035154
   141  H    0.034114
   142  H    0.013318
   143  H    0.012387
   144  H    0.023663
   145  H    0.010561
   146  H    0.009535
   147  H    0.005834
   148  H    0.002896
   149  H    0.010470
   150  H    0.017106
   151  H    0.030481
   152  H    0.045501
   153  H    0.007913
   154  H    0.044929
   155  H    0.038733
   156  H    0.043421
   157  H    0.050018
   158  H    0.052252
 Sum of Mulliken charges =  -0.00000

 Dipole moment (field-independent basis, Debye):
    X=             -6.1030    Y=              1.2445    Z=              5.9021  Tot=              8.5808
 Quadrupole moment (field-independent basis, Debye-Ang):
   XX=           -518.0731   YY=           -533.0269   ZZ=           -467.8670
   XY=             -0.8603   XZ=             -2.9920   YZ=            -34.9015

 Normal termination of Gaussian 16 at Thu Sep  9 08:49:49 2021.
