 Gaussian 16, Revision A.03,
 Gaussian 16:  ES64L-G16RevA.03 25-Dec-2016

 -----------------------------------
 #p cam-b3lyp/Def2SVP td=(nstates=5)
 -----------------------------------

 --------------------------------
 TDDFT excited states in gaussian
 --------------------------------
 Symbolic Z-matrix:
 Charge =  0 Multiplicity = 1

                         Standard orientation:
 ---------------------------------------------------------------------
 Center     Atomic      Atomic             Coordinates (Angstroms)
 Number     Number       Type             X           Y           Z
 ---------------------------------------------------------------------
      1         12           0       -7.659791   -1.040781    0.359993
      2          6           0       -8.014562    2.515834    0.168052
      3          6           0       -8.631366   -1.164848   -2.908603
      4          6           0       -7.793448   -4.197433    0.632582
      5          6           0       -7.827985   -0.722504    3.826413
      6          7           0       -8.222841    0.542886   -1.080708
      7          6           0       -8.260017    1.871273   -1.046418
      8          6           0       -8.510361    2.518539   -2.441319
      9          6           0       -9.236021    1.294399   -3.160274
     10          6           0       -8.635352    0.152055   -2.360167
     11          6           0      -10.749247    1.285581   -2.969040
     12          6           0       -7.176748    2.900598   -3.167432
     13          6           0       -7.333578    3.826020   -4.377536
     14          1           0       -6.305357    4.823034   -4.634582
     15          7           0       -7.664470   -2.447458   -1.027122
     16          6           0       -8.079000   -2.318048   -2.310362
     17          6           0       -7.883989   -3.643057   -2.937261
     18          6           0       -7.500803   -4.602154   -1.864230
     19          6           0       -7.665218   -3.782622   -0.690896
     20          6           0       -8.013916   -3.883666   -4.410006
     21          6           0       -7.066989   -6.033662   -1.891093
     22          8           0       -7.005785   -6.745833   -0.831074
     23          6           0       -6.796987   -6.613457   -3.219242
     24          7           0       -8.011669   -2.312804    1.977329
     25          6           0       -7.956049   -3.641576    1.835008
     26          6           0       -7.958403   -4.333812    3.165701
     27          6           0       -7.781619   -3.185872    4.261481
     28          6           0       -7.790966   -1.956832    3.319332
     29          6           0       -9.211754   -5.158938    3.488640
     30          6           0       -6.606753   -3.341286    5.259457
     31          6           0       -5.290366   -3.201678    4.528202
     32          7           0       -7.703355    0.598162    1.782319
     33          6           0       -7.797317    0.500895    3.178164
     34          6           0       -7.902035    1.875605    3.700920
     35          6           0       -7.878246    2.681493    2.564335
     36          6           0       -7.792234    1.860830    1.403557
     37          6           0       -8.060511    2.237606    5.067768
     38          6           0       -7.930300    4.043822    2.059154
     39          8           0       -7.910921    5.161751    2.576214
     40          6           0       -8.143431    3.985627    0.482127
     41          6           0       -7.153011    4.928240   -0.145454
     42          8           0       -5.927849    4.696657   -0.093357
     43          8           0       -7.807550    5.819095   -0.906043
     44          6           0       -6.880489    6.766053   -1.581308
     45          1           0       -9.148375   -1.344792   -3.853199
     46          1           0       -7.732469   -5.277790    0.779376
     47          1           0       -7.798674   -0.541164    4.902382
     48          1           0       -9.169872    3.386461   -2.427860
     49          1           0       -8.952462    1.212430   -4.209368
     50          1           0      -11.065824    2.051462   -2.261136
     51          1           0      -10.988682    0.292630   -2.587975
     52          1           0      -11.261355    1.370067   -3.927885
     53          1           0       -6.770295    2.017610   -3.660575
     54          1           0       -6.468062    3.341733   -2.465657
     55          1           0       -8.323457    4.282435   -4.404621
     56          1           0       -7.291139    3.217305   -5.280788
     57          1           0       -8.465794   -3.031807   -4.916650
     58          1           0       -8.735554   -4.690175   -4.538421
     59          1           0       -7.064055   -4.164313   -4.865345
     60          1           0       -7.696202   -6.544128   -3.831742
     61          1           0       -6.412881   -7.616508   -3.037032
     62          1           0       -6.038021   -6.011389   -3.719674
     63          1           0       -7.127252   -5.033441    3.244021
     64          1           0       -8.660959   -3.089913    4.898840
     65          1           0       -9.001397   -6.204629    3.714437
     66          1           0       -9.899019   -5.071045    2.647669
     67          1           0       -9.817994   -4.768593    4.305659
     68          1           0       -6.620115   -4.333451    5.709321
     69          1           0       -6.629141   -2.610296    6.067790
     70          1           0       -5.124373   -4.202992    4.132414
     71          1           0       -4.497772   -2.919813    5.222145
     72          1           0       -5.377260   -2.525351    3.677604
     73          1           0       -7.390429    3.079819    5.239924
     74          1           0       -7.825691    1.403150    5.728182
     75          1           0       -9.118273    2.499646    5.085927
     76          1           0       -9.172936    4.288422    0.293562
     77          1           0       -7.193977    7.773195   -1.306307
     78          1           0       -6.887798    6.505150   -2.639741
     79          1           0       -5.849453    6.767205   -1.225917
     80         12           0        8.197219   -0.385559   -0.136137
     81          6           0        6.636066    2.842078    0.019576
     82          6           0        6.223475   -1.044377   -2.838895
     83          6           0        9.222148   -3.386440   -0.028262
     84          6           0        9.178762    0.083322    3.174819
     85          7           0        6.667234    0.822841   -1.180739
     86          6           0        6.202360    2.058122   -1.069804
     87          6           0        5.278526    2.504709   -2.234559
     88          6           0        4.786486    1.055339   -2.720468
     89          6           0        5.978443    0.222955   -2.252429
     90          6           0        3.546189    0.565327   -1.991858
     91          6           0        6.064431    3.254057   -3.367188
     92          6           0        5.185481    3.986861   -4.383145
     93          1           0        5.666702    5.249359   -4.937219
     94          7           0        8.161736   -1.805381   -1.522279
     95          6           0        7.307098   -1.906539   -2.561825
     96          6           0        7.684401   -3.136888   -3.274596
     97          6           0        8.725160   -3.840673   -2.476962
     98          6           0        8.728473   -3.031025   -1.275071
     99          6           0        7.129795   -3.499570   -4.621551
    100          6           0        9.567739   -5.050683   -2.745596
    101          8           0       10.236863   -5.625230   -1.815548
    102          6           0        9.512731   -5.598343   -4.108876
    103          7           0        8.889829   -1.584043    1.415080
    104          6           0        9.322799   -2.835400    1.181503
    105          6           0       10.026765   -3.403636    2.390600
    106          6           0       10.189676   -2.180038    3.407388
    107          6           0        9.439384   -1.088877    2.612505
    108          6           0        9.313560   -4.558104    3.094117
    109          6           0       11.625713   -1.870998    3.912319
    110          6           0       12.476821   -1.365221    2.769860
    111          7           0        8.128454    1.234221    1.292034
    112          6           0        8.571882    1.208912    2.632492
    113          6           0        8.210046    2.508162    3.235357
    114          6           0        7.555567    3.195888    2.202313
    115          6           0        7.494678    2.374934    1.043933
    116          6           0        8.448052    2.894270    4.584578
    117          6           0        6.892966    4.425612    1.831607
    118          8           0        6.718712    5.516130    2.373948
    119          6           0        6.156291    4.203325    0.440819
    120          6           0        6.485588    5.369157   -0.450773
    121          8           0        7.651590    5.557543   -0.840085
    122          8           0        5.341649    5.939388   -0.871014
    123          6           0        5.616110    7.093996   -1.767330
    124          1           0        5.495122   -1.437012   -3.548970
    125          1           0        9.687483   -4.373073    0.030855
    126          1           0        9.536576    0.344336    4.173077
    127          1           0        4.427847    3.105054   -1.935054
    128          1           0        4.692707    1.012279   -3.802458
    129          1           0        3.268270    1.223444   -1.182060
    130          1           0        3.796658   -0.416666   -1.612362
    131          1           0        2.727286    0.414495   -2.701076
    132          1           0        6.535777    2.513514   -4.026112
    133          1           0        6.778232    3.936412   -2.948257
    134          1           0        4.150681    4.089785   -4.034514
    135          1           0        5.105519    3.370043   -5.281567
    136          1           0        6.263928   -2.877886   -4.880727
    137          1           0        6.721367   -4.512447   -4.537009
    138          1           0        7.889080   -3.489059   -5.406438
    139          1           0        8.486206   -5.863706   -4.350306
    140          1           0       10.248427   -6.404686   -4.129782
    141          1           0        9.808873   -4.813228   -4.813512
    142          1           0       11.009564   -3.774731    2.126989
    143          1           0        9.619691   -2.341689    4.334105
    144          1           0        9.931313   -5.473038    3.167285
    145          1           0        8.391985   -4.762788    2.565590
    146          1           0        8.959188   -4.337860    4.099659
    147          1           0       12.104191   -2.783933    4.275295
    148          1           0       11.652937   -1.149358    4.721941
    149          1           0       12.807314   -2.286844    2.281522
    150          1           0       13.322303   -0.792872    3.146206
    151          1           0       11.872116   -0.807021    2.045714
    152          1           0        8.812527    3.912564    4.557338
    153          1           0        9.160058    2.229162    5.068763
    154          1           0        7.441426    2.789114    4.997994
    155          1           0        5.087058    4.132585    0.644076
    156          1           0        5.102838    7.960302   -1.338658
    157          1           0        5.300375    6.770158   -2.776872
    158          1           0        6.635971    7.456795   -1.819308
 ---------------------------------------------------------------------

 SCF Done:  E(RCAM-B3LYP) =  -4069.81167755     A.U. after   19 cycles

 Excitation energies and oscillator strengths:

 Excited State   1:      Singlet-A      1.6695 eV  742.63 nm  f=0.0137  <S**2>=0.000
     309 -> 315        0.10560
     310 -> 316       -0.13616
     311 -> 313        0.41898
     312 -> 314        0.54367
 This state for optimization and/or second-order correction.
 Total Energy, E(TD-HF/TD-DFT) =  -4069.75032384
 Copying the excited state density for this state as the 1-particle RhoCI density.

 Excited State   2:      Singlet-A      1.6854 eV  735.65 nm  f=0.7416  <S**2>=0.000
     309 -> 315        0.14020
     310 -> 316        0.10737
     311 -> 313        0.54281
     312 -> 314       -0.41842

 Excited State   3:      Singlet-A      2.1853 eV  567.35 nm  f=0.0682  <S**2>=0.000
     309 -> 313        0.12492
     310 -> 314        0.63048
     312 -> 316        0.26733

 Excited State   4:      Singlet-A      2.1927 eV  565.43 nm  f=0.1274  <S**2>=0.000
     309 -> 313        0.62850
     310 -> 314       -0.12398
     311 -> 315       -0.27321

 Excited State   5:      Singlet-A      2.7452 eV  451.64 nm  f=0.0000  <S**2>=0.000
     312 -> 313        0.70705

 The electronic state is 1-A.
 Alpha  occ. eigenvalues --  -46.87882 -46.87579 -19.26357 -19.26230 -19.19096
 Alpha  occ. eigenvalues --  -19.19053 -19.18908 -19.18652 -19.18237 -19.17949
 Alpha  occ. eigenvalues --  -14.42536 -14.42413 -14.41531 -14.41279 -14.39490
 Alpha  occ. eigenvalues --  -14.39273 -14.38669 -14.38516 -10.39155 -10.38981
 Alpha  occ. eigenvalues --  -10.35542 -10.35331 -10.34458 -10.34125 -10.31749
 Alpha  occ. eigenvalues --  -10.31639 -10.31487 -10.31219 -10.31000 -10.30938
 Alpha  occ. eigenvalues --  -10.30651 -10.30588 -10.30317 -10.30290 -10.30276
 Alpha  occ. eigenvalues --  -10.30069 -10.29996 -10.29814 -10.29712 -10.29361
 Alpha  occ. eigenvalues --  -10.29340 -10.29322 -10.28845 -10.28657 -10.28618
 Alpha  occ. eigenvalues --  -10.28574 -10.28450 -10.28320 -10.28207 -10.28040
 Alpha  occ. eigenvalues --  -10.27919 -10.27872 -10.27813 -10.27670 -10.27588
 Alpha  occ. eigenvalues --  -10.27584 -10.27570 -10.27518 -10.27487 -10.27452
 Alpha  occ. eigenvalues --  -10.27413 -10.27397 -10.27390 -10.27309 -10.27232
 Alpha  occ. eigenvalues --  -10.26938 -10.26820 -10.26608 -10.26518 -10.26369
 Alpha  occ. eigenvalues --  -10.26314 -10.26246 -10.26098 -10.26079 -10.25897
 Alpha  occ. eigenvalues --  -10.25895 -10.25857 -10.25763 -10.25497 -10.25334
 Alpha  occ. eigenvalues --  -10.24911 -10.24869 -10.24787 -10.24755 -10.24676
 Alpha  occ. eigenvalues --  -10.24611  -3.16626  -3.16329  -1.91507  -1.91212
 Alpha  occ. eigenvalues --   -1.91094  -1.90936  -1.90800  -1.90637  -1.16706
 Alpha  occ. eigenvalues --   -1.16527  -1.08694  -1.08553  -1.07309  -1.06905
 Alpha  occ. eigenvalues --   -1.06836  -1.06717  -1.04667  -1.04410  -1.03843
 Alpha  occ. eigenvalues --   -1.03582  -1.03317  -1.02959  -1.02493  -1.02030
 Alpha  occ. eigenvalues --   -0.92052  -0.91895  -0.89595  -0.89419  -0.89280
 Alpha  occ. eigenvalues --   -0.89055  -0.88361  -0.88149  -0.87942  -0.87760
 Alpha  occ. eigenvalues --   -0.87709  -0.87602  -0.87366  -0.87053  -0.85074
 Alpha  occ. eigenvalues --   -0.84912  -0.84008  -0.83804  -0.83059  -0.82870
 Alpha  occ. eigenvalues --   -0.82737  -0.82568  -0.81663  -0.81500  -0.80679
 Alpha  occ. eigenvalues --   -0.80355  -0.78883  -0.78561  -0.77301  -0.77063
 Alpha  occ. eigenvalues --   -0.77018  -0.76809  -0.76005  -0.75742  -0.74971
 Alpha  occ. eigenvalues --   -0.74726  -0.72853  -0.72617  -0.71752  -0.71494
 Alpha  occ. eigenvalues --   -0.69978  -0.69691  -0.68962  -0.68741  -0.67724
 Alpha  occ. eigenvalues --   -0.67520  -0.67320  -0.67122  -0.65376  -0.65180
 Alpha  occ. eigenvalues --   -0.64933  -0.64702  -0.64686  -0.64564  -0.64345
 Alpha  occ. eigenvalues --   -0.64128  -0.62373  -0.62180  -0.60529  -0.60269
 Alpha  occ. eigenvalues --   -0.59893  -0.59704  -0.59067  -0.58909  -0.58583
 Alpha  occ. eigenvalues --   -0.58340  -0.57659  -0.57452  -0.57387  -0.57158
 Alpha  occ. eigenvalues --   -0.56390  -0.56122  -0.56058  -0.55789  -0.55606
 Alpha  occ. eigenvalues --   -0.55411  -0.55370  -0.55165  -0.54596  -0.54401
 Alpha  occ. eigenvalues --   -0.53988  -0.53819  -0.53382  -0.53311  -0.53150
 Alpha  occ. eigenvalues --   -0.53056  -0.52995  -0.52851  -0.52814  -0.52598
 Alpha  occ. eigenvalues --   -0.52508  -0.52335  -0.51979  -0.51797  -0.51710
 Alpha  occ. eigenvalues --   -0.51575  -0.51272  -0.51113  -0.50671  -0.50416
 Alpha  occ. eigenvalues --   -0.50108  -0.50008  -0.49900  -0.49797  -0.49604
 Alpha  occ. eigenvalues --   -0.49408  -0.49296  -0.49180  -0.49114  -0.49008
 Alpha  occ. eigenvalues --   -0.48670  -0.48543  -0.48523  -0.48466  -0.48301
 Alpha  occ. eigenvalues --   -0.48264  -0.47780  -0.47513  -0.47379  -0.47044
 Alpha  occ. eigenvalues --   -0.46877  -0.46648  -0.46629  -0.46467  -0.46438
 Alpha  occ. eigenvalues --   -0.46236  -0.46193  -0.46002  -0.45893  -0.45727
 Alpha  occ. eigenvalues --   -0.45275  -0.45134  -0.44653  -0.44596  -0.44424
 Alpha  occ. eigenvalues --   -0.44392  -0.44225  -0.44176  -0.44100  -0.44037
 Alpha  occ. eigenvalues --   -0.44004  -0.43859  -0.43570  -0.43471  -0.43459
 Alpha  occ. eigenvalues --   -0.43299  -0.43105  -0.42836  -0.42804  -0.42774
 Alpha  occ. eigenvalues --   -0.42727  -0.42484  -0.42087  -0.41887  -0.41782
 Alpha  occ. eigenvalues --   -0.41625  -0.41578  -0.41375  -0.41222  -0.40958
 Alpha  occ. eigenvalues --   -0.40918  -0.40901  -0.40651  -0.40647  -0.40619
 Alpha  occ. eigenvalues --   -0.40416  -0.40340  -0.40143  -0.39512  -0.39360
 Alpha  occ. eigenvalues --   -0.38547  -0.38277  -0.37848  -0.37571  -0.37398
 Alpha  occ. eigenvalues --   -0.37356  -0.37189  -0.37113  -0.36787  -0.36669
 Alpha  occ. eigenvalues --   -0.36270  -0.36132  -0.34368  -0.34170  -0.33848
 Alpha  occ. eigenvalues --   -0.33759  -0.33268  -0.33093  -0.31437  -0.31210
 Alpha  occ. eigenvalues --   -0.31118  -0.30890  -0.30096  -0.29852  -0.29535
 Alpha  occ. eigenvalues --   -0.29400  -0.29251  -0.29126  -0.24164  -0.23953
 Alpha  occ. eigenvalues --   -0.21210  -0.21036
 Alpha virt. eigenvalues --   -0.08857  -0.08711  -0.01834  -0.01605  -0.00147
 Alpha virt. eigenvalues --    0.00048   0.02126   0.02297   0.03011   0.03299
 Alpha virt. eigenvalues --    0.04628   0.04814   0.05023   0.05273   0.06075

 Mulliken charges:
               1
     1  Mg   0.838251
     2  C   -0.003103
     3  C   -0.094415
     4  C   -0.045874
     5  C   -0.063818
     6  N   -0.256765
     7  C   -0.052547
     8  C   -0.013922
     9  C   -0.086941
    10  C    0.046133
    11  C    0.104793
    12  C    0.053568
    13  C   -0.071650
    14  H    0.035705
    15  N   -0.433126
    16  C    0.168200
    17  C   -0.177394
    18  C   -0.004145
    19  C    0.148580
    20  C    0.110203
    21  C    0.012076
    22  O   -0.249524
    23  C    0.062621
    24  N   -0.341114
    25  C    0.041212
    26  C   -0.028176
    27  C   -0.024085
    28  C    0.074880
    29  C    0.076130
    30  C    0.035103
    31  C   -0.004539
    32  N   -0.310530
    33  C    0.080464
    34  C   -0.169434
    35  C    0.008558
    36  C    0.083003
    37  C    0.127235
    38  C    0.046307
    39  O   -0.187880
    40  C   -0.005416
    41  C    0.213023
    42  O   -0.257272
    43  O   -0.304736
    44  C    0.157601
    45  H   -0.017633
    46  H   -0.016774
    47  H   -0.041172
    48  H    0.001148
    49  H   -0.004276
    50  H    0.025621
    51  H    0.016554
    52  H    0.016700
    53  H    0.010652
    54  H    0.043951
    55  H    0.018243
    56  H    0.017704
    57  H    0.005798
    58  H    0.026957
    59  H    0.038913
    60  H    0.037487
    61  H    0.035638
    62  H    0.030871
    63  H    0.016536
    64  H    0.009673
    65  H    0.023303
    66  H    0.012561
    67  H    0.004916
    68  H    0.006534
    69  H    0.004994
    70  H    0.008686
    71  H    0.018391
    72  H    0.028725
    73  H    0.048017
    74  H    0.009310
    75  H    0.046196
    76  H    0.035321
    77  H    0.043330
    78  H    0.046136
    79  H    0.053745
    80  Mg   0.837820
    81  C   -0.016793
    82  C   -0.087805
    83  C   -0.045617
    84  C   -0.064940
    85  N   -0.254566
    86  C   -0.049613
    87  C   -0.015225
    88  C   -0.090561
    89  C    0.045806
    90  C    0.114379
    91  C    0.062576
    92  C   -0.077770
    93  H    0.034508
    94  N   -0.423488
    95  C    0.162871
    96  C   -0.174756
    97  C   -0.007973
    98  C    0.152110
    99  C    0.099468
   100  C    0.015466
   101  O   -0.253340
   102  C    0.061254
   103  N   -0.350049
   104  C    0.037512
   105  C   -0.019805
   106  C   -0.034823
   107  C    0.088983
   108  C    0.073690
   109  C    0.034763
   110  C   -0.007646
   111  N   -0.324159
   112  C    0.078567
   113  C   -0.163112
   114  C    0.002496
   115  C    0.096170
   116  C    0.131467
   117  C    0.042581
   118  O   -0.187357
   119  C    0.000860
   120  C    0.211173
   121  O   -0.251370
   122  O   -0.305135
   123  C    0.152143
   124  H   -0.019923
   125  H   -0.015759
   126  H   -0.040513
   127  H    0.000277
   128  H   -0.004797
   129  H    0.023661
   130  H    0.014267
   131  H    0.016169
   132  H    0.013601
   133  H    0.037625
   134  H    0.021350
   135  H    0.019114
   136  H    0.008502
   137  H    0.025890
   138  H    0.039473
   139  H    0.038116
   140  H    0.036185
   141  H    0.033759
   142  H    0.014237
   143  H    0.012416
   144  H    0.024947
   145  H    0.011722
   146  H    0.005621
   147  H    0.006119
   148  H    0.003632
   149  H    0.010839
   150  H    0.017818
   151  H    0.030175
   152  H    0.046014
   153  H    0.008324
   154  H    0.047349
   155  H    0.036200
   156  H    0.044295
   157  H    0.049286
   158  H    0.053249
 Sum of Mulliken charges =  -0.00000

 Dipole moment (field-independent basis, Debye):
    X=             -4.6663    Y=             -4.1548    Z=             -6.2775  Tot=              8.8569
 Quadrupole moment (field-independent basis, Debye-Ang):
   XX=           -515.0912   YY=           -563.3487   ZZ=           -446.5090
   XY=             -6.5622   XZ=             29.0742   YZ=            -29.8832

 Normal termination of Gaussian 16 at Sun Sep 12 05:01:56 2021.
