 Gaussian 16, Revision A.03,
 Gaussian 16:  ES64L-G16RevA.03 25-Dec-2016

 -----------------------------------
 #p cam-b3lyp/Def2SVP td=(nstates=5)
 -----------------------------------

 --------------------------------
 TDDFT excited states in gaussian
 --------------------------------
 Symbolic Z-matrix:
 Charge =  0 Multiplicity = 1

                         Standard orientation:
 ---------------------------------------------------------------------
 Center     Atomic      Atomic             Coordinates (Angstroms)
 Number     Number       Type             X           Y           Z
 ---------------------------------------------------------------------
      1         12           0        4.410203   -0.519872   -0.572855
      2          6           0        4.556076    2.925438    0.386713
      3          6           0        5.684567   -1.275830    2.500838
      4          6           0        4.717047   -3.518596   -1.557804
      5          6           0        4.238012    0.561651   -3.881377
      6          7           0        5.002521    0.750998    1.140240
      7          6           0        4.952509    2.053179    1.402907
      8          6           0        5.288927    2.397936    2.884575
      9          6           0        6.153488    1.109899    3.252671
     10          6           0        5.554945    0.124930    2.263982
     11          6           0        7.640200    1.267235    2.950287
     12          6           0        4.006424    2.501239    3.776901
     13          6           0        4.215346    3.149212    5.148701
     14          1           0        3.154332    3.978103    5.700550
     15          7           0        4.631341   -2.190668    0.457867
     16          6           0        5.153303   -2.311551    1.702146
     17          6           0        5.100831   -3.753019    2.027871
     18          6           0        4.681717   -4.482278    0.798800
     19          6           0        4.685343   -3.415280   -0.169125
     20          6           0        5.380764   -4.298472    3.394571
     21          6           0        4.343391   -5.915625    0.535769
     22          8           0        4.229867   -6.381235   -0.649513
     23          6           0        4.233973   -6.792042    1.716008
     24          7           0        4.691167   -1.374063   -2.456748
     25          6           0        4.732824   -2.701761   -2.613160
     26          6           0        4.656274   -3.083569   -4.061712
     27          6           0        4.307260   -1.742190   -4.854584
     28          6           0        4.325790   -0.752481   -3.663618
     29          6           0        5.924099   -3.712454   -4.655963
     30          6           0        3.057628   -1.771336   -5.770002
     31          6           0        1.808011   -1.903486   -4.928521
     32          7           0        4.219111    1.388422   -1.589193
     33          6           0        4.190065    1.606885   -2.974149
     34          6           0        4.159264    3.066494   -3.180688
     35          6           0        4.189465    3.599511   -1.893510
     36          6           0        4.262667    2.540589   -0.943975
     37          6           0        4.168027    3.730465   -4.439060
     38          6           0        4.201783    4.817908   -1.100280
     39          8           0        4.064382    6.016421   -1.349642
     40          6           0        4.562496    4.433833    0.402451
     41          6           0        3.576604    5.131874    1.299147
     42          8           0        2.368911    4.817638    1.289257
     43          8           0        4.240906    5.885375    2.188800
     44          6           0        3.322095    6.582406    3.127995
     45          1           0        6.296693   -1.615028    3.338804
     46          1           0        4.711080   -4.541950   -1.938788
     47          1           0        4.098349    0.970933   -4.883592
     48          1           0        5.888326    3.298864    3.016762
     49          1           0        5.973493    0.777463    4.274830
     50          1           0        7.841287    2.192732    2.410899
     51          1           0        7.905680    0.404745    2.338629
     52          1           0        8.232087    1.181631    3.861944
     53          1           0        3.703629    1.501484    4.088133
     54          1           0        3.209706    3.025569    3.248086
     55          1           0        5.172741    3.668239    5.202688
     56          1           0        4.294760    2.356277    5.892441
     57          1           0        5.822742   -3.543958    4.044116
     58          1           0        6.160594   -5.051586    3.283243
     59          1           0        4.496480   -4.748842    3.845728
     60          1           0        5.179604   -6.784881    2.258483
     61          1           0        3.898760   -7.758977    1.342485
     62          1           0        3.487860   -6.378331    2.395057
     63          1           0        3.867240   -3.814858   -4.232200
     64          1           0        5.116351   -1.437366   -5.518759
     65          1           0        5.760225   -4.697069   -5.094580
     66          1           0        6.678977   -3.754599   -3.871314
     67          1           0        6.426679   -3.104482   -5.407761
     68          1           0        3.092062   -2.636547   -6.431191
     69          1           0        2.959317   -0.881917   -6.392512
     70          1           0        1.742672   -2.977282   -4.756693
     71          1           0        0.938678   -1.542613   -5.479195
     72          1           0        1.930038   -1.424811   -3.956684
     73          1           0        3.433150    4.532089   -4.366098
     74          1           0        3.926490    3.044305   -5.250509
     75          1           0        5.200976    4.075957   -4.477888
     76          1           0        5.583832    4.771417    0.575747
     77          1           0        3.544763    7.647541    3.063640
     78          1           0        3.443297    6.097794    4.096946
     79          1           0        2.264699    6.576726    2.861122
     80         12           0       -4.522510   -0.953132    0.465132
     81          6           0       -4.644798    2.320317   -1.000691
     82          6           0       -3.381718    0.529755    3.317195
     83          6           0       -3.975840   -3.851381    1.635052
     84          6           0       -4.563156   -2.251131   -2.768940
     85          7           0       -4.108452    1.160050    0.970389
     86          6           0       -4.250818    2.323539    0.353638
     87          6           0       -4.031888    3.563645    1.261252
     88          6           0       -3.103419    2.881827    2.380147
     89          6           0       -3.579798    1.436942    2.245803
     90          6           0       -1.622209    2.929612    2.043903
     91          6           0       -5.372796    4.098861    1.875680
     92          6           0       -5.277581    5.483987    2.519190
     93          1           0       -6.424175    6.381853    2.411404
     94          7           0       -4.260297   -1.553428    2.338484
     95          6           0       -3.811206   -0.814338    3.374503
     96          6           0       -3.778715   -1.721830    4.531896
     97          6           0       -4.088265   -3.098076    4.057718
     98          6           0       -4.099933   -2.886548    2.624118
     99          6           0       -3.553579   -1.241736    5.936266
    100          6           0       -4.320988   -4.393181    4.775167
    101          8           0       -4.338775   -5.513743    4.153193
    102          6           0       -4.434349   -4.320451    6.239183
    103          7           0       -4.087932   -2.777205   -0.432776
    104          6           0       -3.948379   -3.894024    0.302854
    105          6           0       -3.914321   -5.123550   -0.573215
    106          6           0       -4.304498   -4.617448   -2.039230
    107          6           0       -4.414368   -3.101887   -1.762838
    108          6           0       -2.578025   -5.863504   -0.629431
    109          6           0       -5.495989   -5.330024   -2.735844
    110          6           0       -6.783044   -5.013982   -2.008537
    111          7           0       -4.776259   -0.156977   -1.527307
    112          6           0       -4.732881   -0.872749   -2.743800
    113          6           0       -4.842866    0.116693   -3.835286
    114          6           0       -4.920056    1.351323   -3.173306
    115          6           0       -4.841936    1.147518   -1.769080
    116          6           0       -4.813030   -0.174569   -5.228265
    117          6           0       -5.039173    2.781550   -3.343494
    118          8           0       -5.228916    3.529510   -4.301768
    119          6           0       -4.739020    3.483116   -1.949186
    120          6           0       -5.815718    4.503851   -1.701509
    121          8           0       -6.994822    4.149128   -1.526946
    122          8           0       -5.245297    5.705008   -1.496019
    123          6           0       -6.272375    6.748452   -1.234972
    124          1           0       -2.805998    0.864333    4.180610
    125          1           0       -3.896431   -4.881885    1.988929
    126          1           0       -4.681909   -2.584073   -3.802246
    127          1           0       -3.504338    4.384144    0.789826
    128          1           0       -3.330484    3.267652    3.370579
    129          1           0       -1.447071    3.310493    1.048712
    130          1           0       -1.268768    1.910148    2.126466
    131          1           0       -1.081019    3.498797    2.805141
    132          1           0       -5.626792    3.498489    2.758733
    133          1           0       -6.156318    4.093855    1.143084
    134          1           0       -4.353713    6.005317    2.240570
    135          1           0       -5.198690    5.358948    3.601855
    136          1           0       -3.191015   -0.206548    5.954230
    137          1           0       -2.723193   -1.827506    6.345178
    138          1           0       -4.429850   -1.378155    6.573617
    139          1           0       -3.526388   -3.885897    6.650557
    140          1           0       -4.687728   -5.331716    6.563262
    141          1           0       -5.253028   -3.637921    6.493214
    142          1           0       -4.646493   -5.851690   -0.246362
    143          1           0       -3.474931   -4.748003   -2.749576
    144          1           0       -2.654744   -6.926297   -0.331659
    145          1           0       -1.871956   -5.341528    0.002658
    146          1           0       -2.079841   -5.844272   -1.597237
    147          1           0       -5.369924   -6.414390   -2.686684
    148          1           0       -5.605347   -5.065645   -3.782334
    149          1           0       -6.785067   -5.735204   -1.185783
    150          1           0       -7.639278   -5.160405   -2.663877
    151          1           0       -6.749822   -4.010948   -1.567551
    152          1           0       -5.591885    0.419680   -5.687348
    153          1           0       -4.959319   -1.236294   -5.415659
    154          1           0       -3.798125    0.149535   -5.473596
    155          1           0       -3.750627    3.939106   -2.017947
    156          1           0       -6.110020    7.546521   -1.966007
    157          1           0       -6.163508    7.014143   -0.166656
    158          1           0       -7.307519    6.492182   -1.428024
 ---------------------------------------------------------------------

 SCF Done:  E(RCAM-B3LYP) =  -4069.81240811     A.U. after   19 cycles

 Excitation energies and oscillator strengths:

 Excited State   1:      Singlet-A      1.6527 eV  750.17 nm  f=0.0734  <S**2>=0.000
     309 -> 315       -0.11023
     310 -> 316        0.12632
     311 -> 313       -0.44864
     312 -> 314        0.52075
 This state for optimization and/or second-order correction.
 Total Energy, E(TD-HF/TD-DFT) =  -4069.75167072
 Copying the excited state density for this state as the 1-particle RhoCI density.

 Excited State   2:      Singlet-A      1.6957 eV  731.18 nm  f=0.6178  <S**2>=0.000
     309 -> 315        0.13657
     310 -> 316        0.11540
     311 -> 313        0.51853
     312 -> 314        0.44676

 Excited State   3:      Singlet-A      2.1799 eV  568.76 nm  f=0.0453  <S**2>=0.000
     309 -> 313       -0.25185
     310 -> 314        0.59377
     311 -> 315        0.10378
     312 -> 316       -0.24524

 Excited State   4:      Singlet-A      2.1964 eV  564.49 nm  f=0.1371  <S**2>=0.000
     309 -> 313        0.58884
     310 -> 314        0.24795
     311 -> 315       -0.25945
     312 -> 316       -0.11014

 Excited State   5:      Singlet-A      2.3326 eV  531.52 nm  f=0.0000  <S**2>=0.000
     312 -> 313        0.70708

 The electronic state is 1-A.
 Alpha  occ. eigenvalues --  -46.87925 -46.87399 -19.26609 -19.26004 -19.19374
 Alpha  occ. eigenvalues --  -19.18895 -19.18844 -19.18567 -19.18318 -19.17782
 Alpha  occ. eigenvalues --  -14.42592 -14.42194 -14.41574 -14.41103 -14.39525
 Alpha  occ. eigenvalues --  -14.39105 -14.38715 -14.38342 -10.39405 -10.38767
 Alpha  occ. eigenvalues --  -10.35524 -10.35251 -10.34547 -10.33949 -10.32037
 Alpha  occ. eigenvalues --  -10.31557 -10.31428 -10.31068 -10.30976 -10.30713
 Alpha  occ. eigenvalues --  -10.30701 -10.30626 -10.30314 -10.30162 -10.30102
 Alpha  occ. eigenvalues --  -10.30040 -10.29912 -10.29746 -10.29649 -10.29364
 Alpha  occ. eigenvalues --  -10.29204 -10.29178 -10.28975 -10.28896 -10.28501
 Alpha  occ. eigenvalues --  -10.28310 -10.28308 -10.28256 -10.28139 -10.27908
 Alpha  occ. eigenvalues --  -10.27861 -10.27762 -10.27695 -10.27600 -10.27592
 Alpha  occ. eigenvalues --  -10.27576 -10.27554 -10.27549 -10.27378 -10.27360
 Alpha  occ. eigenvalues --  -10.27336 -10.27307 -10.27254 -10.27196 -10.27153
 Alpha  occ. eigenvalues --  -10.27027 -10.26709 -10.26438 -10.26398 -10.26337
 Alpha  occ. eigenvalues --  -10.26329 -10.26262 -10.26130 -10.25962 -10.25895
 Alpha  occ. eigenvalues --  -10.25696 -10.25679 -10.25522 -10.25152 -10.25126
 Alpha  occ. eigenvalues --  -10.24955 -10.24912 -10.24776 -10.24627 -10.24567
 Alpha  occ. eigenvalues --  -10.24445  -3.16668  -3.16149  -1.91550  -1.91137
 Alpha  occ. eigenvalues --   -1.91031  -1.90978  -1.90619  -1.90457  -1.16958
 Alpha  occ. eigenvalues --   -1.16305  -1.08788  -1.08382  -1.07294  -1.06974
 Alpha  occ. eigenvalues --   -1.06826  -1.06628  -1.04727  -1.04192  -1.03888
 Alpha  occ. eigenvalues --   -1.03396  -1.03356  -1.02792  -1.02537  -1.01854
 Alpha  occ. eigenvalues --   -0.92128  -0.91696  -0.89633  -0.89393  -0.89262
 Alpha  occ. eigenvalues --   -0.88690  -0.88399  -0.87988  -0.87975  -0.87823
 Alpha  occ. eigenvalues --   -0.87565  -0.87394  -0.87371  -0.86943  -0.85176
 Alpha  occ. eigenvalues --   -0.84631  -0.84054  -0.83651  -0.83053  -0.82820
 Alpha  occ. eigenvalues --   -0.82777  -0.82313  -0.81797  -0.81301  -0.80759
 Alpha  occ. eigenvalues --   -0.80167  -0.78903  -0.78425  -0.77365  -0.77131
 Alpha  occ. eigenvalues --   -0.76866  -0.76547  -0.76107  -0.75437  -0.75024
 Alpha  occ. eigenvalues --   -0.74534  -0.72896  -0.72440  -0.71817  -0.71243
 Alpha  occ. eigenvalues --   -0.70009  -0.69536  -0.69050  -0.68481  -0.67784
 Alpha  occ. eigenvalues --   -0.67416  -0.67355  -0.66909  -0.65483  -0.65020
 Alpha  occ. eigenvalues --   -0.64913  -0.64790  -0.64492  -0.64389  -0.64340
 Alpha  occ. eigenvalues --   -0.63960  -0.62523  -0.61983  -0.60545  -0.60138
 Alpha  occ. eigenvalues --   -0.59979  -0.59415  -0.59130  -0.58720  -0.58651
 Alpha  occ. eigenvalues --   -0.58156  -0.57792  -0.57439  -0.57255  -0.56998
 Alpha  occ. eigenvalues --   -0.56450  -0.56225  -0.55959  -0.55646  -0.55580
 Alpha  occ. eigenvalues --   -0.55496  -0.55205  -0.54993  -0.54712  -0.54219
 Alpha  occ. eigenvalues --   -0.54104  -0.53484  -0.53424  -0.53384  -0.53115
 Alpha  occ. eigenvalues --   -0.52998  -0.52877  -0.52858  -0.52628  -0.52542
 Alpha  occ. eigenvalues --   -0.52385  -0.52198  -0.52011  -0.51801  -0.51677
 Alpha  occ. eigenvalues --   -0.51350  -0.51329  -0.50924  -0.50651  -0.50316
 Alpha  occ. eigenvalues --   -0.50145  -0.50037  -0.49708  -0.49670  -0.49623
 Alpha  occ. eigenvalues --   -0.49367  -0.49271  -0.49182  -0.48921  -0.48776
 Alpha  occ. eigenvalues --   -0.48657  -0.48599  -0.48552  -0.48228  -0.48152
 Alpha  occ. eigenvalues --   -0.48102  -0.47844  -0.47428  -0.47299  -0.46939
 Alpha  occ. eigenvalues --   -0.46885  -0.46755  -0.46495  -0.46428  -0.46303
 Alpha  occ. eigenvalues --   -0.46167  -0.46031  -0.45995  -0.45831  -0.45519
 Alpha  occ. eigenvalues --   -0.45317  -0.44953  -0.44740  -0.44648  -0.44284
 Alpha  occ. eigenvalues --   -0.44251  -0.44251  -0.44171  -0.44159  -0.43862
 Alpha  occ. eigenvalues --   -0.43717  -0.43690  -0.43678  -0.43547  -0.43252
 Alpha  occ. eigenvalues --   -0.43172  -0.43053  -0.42959  -0.42776  -0.42629
 Alpha  occ. eigenvalues --   -0.42601  -0.42334  -0.42160  -0.41857  -0.41724
 Alpha  occ. eigenvalues --   -0.41700  -0.41373  -0.41289  -0.41126  -0.41048
 Alpha  occ. eigenvalues --   -0.40947  -0.40694  -0.40644  -0.40514  -0.40478
 Alpha  occ. eigenvalues --   -0.40375  -0.40170  -0.39871  -0.39544  -0.39217
 Alpha  occ. eigenvalues --   -0.38602  -0.38087  -0.37997  -0.37448  -0.37443
 Alpha  occ. eigenvalues --   -0.37332  -0.37002  -0.36981  -0.36863  -0.36468
 Alpha  occ. eigenvalues --   -0.36374  -0.35931  -0.34422  -0.34079  -0.33979
 Alpha  occ. eigenvalues --   -0.33558  -0.33326  -0.32916  -0.31430  -0.31174
 Alpha  occ. eigenvalues --   -0.31122  -0.30694  -0.30184  -0.29679  -0.29560
 Alpha  occ. eigenvalues --   -0.29440  -0.29116  -0.28971  -0.24216  -0.23767
 Alpha  occ. eigenvalues --   -0.21253  -0.20853
 Alpha virt. eigenvalues --   -0.08896  -0.08549  -0.01873  -0.01432  -0.00175
 Alpha virt. eigenvalues --    0.00203   0.02069   0.02447   0.02837   0.03523
 Alpha virt. eigenvalues --    0.04527   0.04774   0.05064   0.05486   0.05871

 Mulliken charges:
               1
     1  Mg   0.838752
     2  C   -0.004021
     3  C   -0.094613
     4  C   -0.045616
     5  C   -0.063260
     6  N   -0.256727
     7  C   -0.052989
     8  C   -0.013886
     9  C   -0.086945
    10  C    0.046011
    11  C    0.104732
    12  C    0.053492
    13  C   -0.070975
    14  H    0.032782
    15  N   -0.433238
    16  C    0.168575
    17  C   -0.176860
    18  C   -0.003399
    19  C    0.148778
    20  C    0.110050
    21  C    0.012716
    22  O   -0.249662
    23  C    0.062144
    24  N   -0.341053
    25  C    0.041378
    26  C   -0.028232
    27  C   -0.023983
    28  C    0.074612
    29  C    0.076084
    30  C    0.035002
    31  C   -0.004299
    32  N   -0.310462
    33  C    0.080231
    34  C   -0.168946
    35  C    0.008273
    36  C    0.082653
    37  C    0.127219
    38  C    0.045699
    39  O   -0.188314
    40  C   -0.005445
    41  C    0.213726
    42  O   -0.259862
    43  O   -0.303898
    44  C    0.157982
    45  H   -0.017548
    46  H   -0.016624
    47  H   -0.040689
    48  H    0.001044
    49  H   -0.004478
    50  H    0.025646
    51  H    0.016991
    52  H    0.016801
    53  H    0.010664
    54  H    0.042100
    55  H    0.019119
    56  H    0.018158
    57  H    0.005428
    58  H    0.027176
    59  H    0.040230
    60  H    0.037177
    61  H    0.036259
    62  H    0.032817
    63  H    0.016340
    64  H    0.009839
    65  H    0.023338
    66  H    0.012630
    67  H    0.005094
    68  H    0.006314
    69  H    0.005595
    70  H    0.007686
    71  H    0.018216
    72  H    0.029576
    73  H    0.048465
    74  H    0.009976
    75  H    0.046079
    76  H    0.035597
    77  H    0.044015
    78  H    0.046161
    79  H    0.051392
    80  Mg   0.837233
    81  C   -0.016670
    82  C   -0.087896
    83  C   -0.046571
    84  C   -0.065591
    85  N   -0.255149
    86  C   -0.047810
    87  C   -0.015413
    88  C   -0.091385
    89  C    0.046818
    90  C    0.116726
    91  C    0.062432
    92  C   -0.077365
    93  H    0.033028
    94  N   -0.423382
    95  C    0.163015
    96  C   -0.175566
    97  C   -0.008826
    98  C    0.152228
    99  C    0.099982
   100  C    0.014626
   101  O   -0.254013
   102  C    0.061504
   103  N   -0.350270
   104  C    0.037695
   105  C   -0.019819
   106  C   -0.034561
   107  C    0.089158
   108  C    0.073638
   109  C    0.034847
   110  C   -0.007527
   111  N   -0.324175
   112  C    0.078890
   113  C   -0.163782
   114  C    0.002657
   115  C    0.096114
   116  C    0.131474
   117  C    0.042266
   118  O   -0.188014
   119  C    0.000947
   120  C    0.210885
   121  O   -0.252012
   122  O   -0.304245
   123  C    0.152504
   124  H   -0.020134
   125  H   -0.016595
   126  H   -0.041426
   127  H    0.003197
   128  H   -0.006837
   129  H    0.032187
   130  H    0.010847
   131  H    0.019559
   132  H    0.012658
   133  H    0.036769
   134  H    0.022772
   135  H    0.018388
   136  H    0.008550
   137  H    0.023938
   138  H    0.039080
   139  H    0.036975
   140  H    0.035512
   141  H    0.033994
   142  H    0.013683
   143  H    0.012218
   144  H    0.024540
   145  H    0.011507
   146  H    0.007131
   147  H    0.005965
   148  H    0.003093
   149  H    0.010659
   150  H    0.017361
   151  H    0.030354
   152  H    0.045734
   153  H    0.007867
   154  H    0.045967
   155  H    0.039014
   156  H    0.043906
   157  H    0.049594
   158  H    0.052557
 Sum of Mulliken charges =  -0.00000

 Dipole moment (field-independent basis, Debye):
    X=              5.2478    Y=             -1.7613    Z=              6.4484  Tot=              8.4984
 Quadrupole moment (field-independent basis, Debye-Ang):
   XX=           -518.3705   YY=           -538.7358   ZZ=           -461.7243
   XY=             -3.0879   XZ=              1.3600   YZ=             37.9412

 Normal termination of Gaussian 16 at Sat Sep  4 00:02:48 2021.
