 Gaussian 16, Revision A.03,
 Gaussian 16:  ES64L-G16RevA.03 25-Dec-2016

 -----------------------------------
 #p cam-b3lyp/Def2SVP td=(nstates=5)
 -----------------------------------

 --------------------------------
 TDDFT excited states in gaussian
 --------------------------------
 Symbolic Z-matrix:
 Charge =  0 Multiplicity = 1

                         Standard orientation:
 ---------------------------------------------------------------------
 Center     Atomic      Atomic             Coordinates (Angstroms)
 Number     Number       Type             X           Y           Z
 ---------------------------------------------------------------------
      1         12           0        3.180714    1.675339    0.919634
      2          6           0        4.601389   -1.454586   -0.079099
      3          6           0        4.317263    2.962516   -2.029009
      4          6           0        2.338405    4.545398    1.973149
      5          6           0        3.170976    0.460468    4.186078
      6          7           0        4.302132    0.768538   -0.759884
      7          6           0        4.734008   -0.455673   -1.046172
      8          6           0        5.273255   -0.596069   -2.501120
      9          6           0        5.650337    0.928118   -2.777997
     10          6           0        4.674788    1.596586   -1.825432
     11          6           0        7.071695    1.289869   -2.359214
     12          6           0        4.175743   -1.104447   -3.495480
     13          6           0        4.695523   -1.577960   -4.855983
     14          1           0        4.037237   -2.701949   -5.504564
     15          7           0        2.868634    3.360244   -0.063498
     16          6           0        3.399824    3.710277   -1.259575
     17          6           0        2.864258    5.054188   -1.565766
     18          6           0        2.129649    5.536098   -0.363182
     19          6           0        2.442423    4.497575    0.584985
     20          6           0        3.028189    5.721653   -2.896693
     21          6           0        1.289130    6.746638   -0.105788
     22          8           0        0.935826    7.091124    1.073653
     23          6           0        0.959859    7.578924   -1.277079
     24          7           0        3.009257    2.491625    2.833247
     25          6           0        2.567997    3.741358    3.013367
     26          6           0        2.260395    4.009075    4.456851
     27          6           0        2.353401    2.597661    5.197805
     28          6           0        2.803694    1.729855    3.996797
     29          6           0        3.179321    5.016768    5.161224
     30          6           0        1.113369    2.146676    6.009810
     31          6           0       -0.040224    1.867880    5.072476
     32          7           0        3.605757   -0.220540    1.887120
     33          6           0        3.559039   -0.494860    3.261616
     34          6           0        4.031666   -1.879831    3.442022
     35          6           0        4.338185   -2.312220    2.153251
     36          6           0        4.098651   -1.255072    1.229480
     37          6           0        4.186503   -2.552116    4.686406
     38          6           0        4.835691   -3.413278    1.344538
     39          8           0        5.113615   -4.593307    1.563131
     40          6           0        5.141518   -2.862526   -0.117983
     41          6           0        4.531179   -3.822864   -1.102130
     42          8           0        3.292829   -3.953377   -1.184727
     43          8           0        5.479351   -4.256017   -1.947051
     44          6           0        4.934204   -5.190025   -2.968127
     45          1           0        4.827008    3.530866   -2.809444
     46          1           0        1.944569    5.484049    2.368455
     47          1           0        3.115257   -0.014649    5.167206
     48          1           0        6.160025   -1.222602   -2.598688
     49          1           0        5.436408    1.219990   -3.805989
     50          1           0        7.548627    0.471523   -1.819985
     51          1           0        6.971802    2.163399   -1.714653
     52          1           0        7.657327    1.617096   -3.218710
     53          1           0        3.561740   -0.262201   -3.814359
     54          1           0        3.580834   -1.897423   -3.040949
     55          1           0        5.775831   -1.724970   -4.840740
     56          1           0        4.541392   -0.776305   -5.578336
     57          1           0        3.752536    5.199131   -3.520262
     58          1           0        3.481744    6.695059   -2.711011
     59          1           0        2.075661    5.851918   -3.410556
     60          1           0        1.882459    7.927642   -1.741572
     61          1           0        0.279340    8.349530   -0.916649
     62          1           0        0.457508    6.959321   -2.020507
     63          1           0        1.253990    4.408705    4.574629
     64          1           0        3.169459    2.567936    5.920190
     65          1           0        2.647840    5.861256    5.600625
     66          1           0        3.923481    5.355087    4.440768
     67          1           0        3.810447    4.592100    5.941451
     68          1           0        0.793517    2.939497    6.685144
     69          1           0        1.292444    1.253373    6.608302
     70          1           0       -0.468624    2.856730    4.912845
     71          1           0       -0.762164    1.201356    5.545507
     72          1           0        0.310707    1.504946    4.106240
     73          1           0        3.789344   -3.556770    4.541822
     74          1           0        3.661977   -2.030147    5.486421
     75          1           0        5.269479   -2.514292    4.802971
     76          1           0        6.225696   -2.812224   -0.213637
     77          1           0        5.513823   -6.110897   -2.902781
     78          1           0        4.943755   -4.652365   -3.916408
     79          1           0        3.927134   -5.567471   -2.787341
     80         12           0       -4.236208   -0.689611   -0.626569
     81          6           0       -1.354272   -2.803199   -0.300691
     82          6           0       -2.164829    1.679140   -1.943027
     83          6           0       -6.661487    1.352965   -0.511035
     84          6           0       -5.823209   -2.727764    1.712880
     85          7           0       -2.059869   -0.681394   -1.021195
     86          6           0       -1.077618   -1.563431   -0.913775
     87          6           0        0.258447   -1.121166   -1.568684
     88          6           0        0.035748    0.468444   -1.519479
     89          6           0       -1.491150    0.501804   -1.530543
     90          6           0        0.518024    1.103952   -0.226082
     91          6           0        0.400068   -1.635942   -3.044139
     92          6           0        1.804245   -1.506355   -3.638469
     93          1           0        2.270648   -2.543358   -4.554751
     94          7           0       -4.513162    1.030284   -1.577275
     95          6           0       -3.560991    1.853292   -2.064423
     96          6           0       -4.278571    2.993917   -2.654516
     97          6           0       -5.724525    2.857040   -2.330182
     98          6           0       -5.685387    1.727801   -1.422773
     99          6           0       -3.601678    4.029176   -3.505105
    100          6           0       -6.939698    3.624515   -2.755052
    101          8           0       -8.067765    3.480627   -2.163798
    102          6           0       -6.748007    4.617492   -3.822171
    103          7           0       -5.911710   -0.558032    0.597244
    104          6           0       -6.837991    0.396626    0.400884
    105          6           0       -8.079707    0.128012    1.217198
    106          6           0       -7.887972   -1.340683    1.820323
    107          6           0       -6.466654   -1.645080    1.298239
    108          6           0       -8.354670    1.112643    2.353549
    109          6           0       -9.015752   -2.370535    1.537127
    110          6           0       -9.050873   -2.705209    0.063314
    111          7           0       -3.785201   -2.549600    0.375962
    112          6           0       -4.577512   -3.214288    1.337475
    113          6           0       -3.800430   -4.377069    1.813396
    114          6           0       -2.591027   -4.294459    1.106976
    115          6           0       -2.604838   -3.148903    0.266135
    116          6           0       -4.216784   -5.304377    2.809823
    117          6           0       -1.301645   -4.909908    0.889278
    118          8           0       -0.762822   -5.952051    1.259890
    119          6           0       -0.393400   -3.901233    0.062184
    120          6           0        0.249738   -4.668747   -1.060224
    121          8           0       -0.442363   -5.151109   -1.973965
    122          8           0        1.585094   -4.521345   -0.986364
    123          6           0        2.266936   -5.255521   -2.085408
    124          1           0       -1.571659    2.569291   -2.154367
    125          1           0       -7.567378    1.963572   -0.512411
    126          1           0       -6.287138   -3.466972    2.369411
    127          1           0        1.148083   -1.389401   -1.011587
    128          1           0        0.434125    0.950794   -2.408293
    129          1           0        0.824090    0.362864    0.497289
    130          1           0       -0.319359    1.676810    0.150310
    131          1           0        1.309812    1.829128   -0.434721
    132          1           0       -0.150029   -0.961575   -3.713004
    133          1           0        0.064831   -2.651501   -3.127175
    134          1           0        2.560136   -1.304362   -2.869848
    135          1           0        1.829777   -0.621187   -4.278655
    136          1           0       -2.509453    3.960251   -3.429718
    137          1           0       -3.842712    5.006097   -3.072225
    138          1           0       -3.941000    4.009071   -4.542955
    139          1           0       -6.003686    5.345565   -3.508516
    140          1           0       -7.745503    4.998663   -4.049288
    141          1           0       -6.339911    4.109823   -4.703270
    142          1           0       -8.963655    0.138270    0.591386
    143          1           0       -7.822813   -1.324995    2.918202
    144          1           0       -9.347009    1.596494    2.281280
    145          1           0       -7.568628    1.856034    2.358742
    146          1           0       -8.282620    0.693223    3.355595
    147          1           0       -9.990595   -1.941319    1.781252
    148          1           0       -8.915949   -3.288088    2.107338
    149          1           0       -9.640651   -1.887396   -0.361462
    150          1           0       -9.534053   -3.666442   -0.099830
    151          1           0       -8.048196   -2.651542   -0.376468
    152          1           0       -3.956728   -6.289639    2.446314
    153          1           0       -5.283242   -5.221902    3.008913
    154          1           0       -3.613739   -4.965004    3.656248
    155          1           0        0.344506   -3.485809    0.749568
    156          1           0        2.990330   -5.930687   -1.617932
    157          1           0        2.668231   -4.476786   -2.760909
    158          1           0        1.673516   -5.951227   -2.667039
 ---------------------------------------------------------------------

 SCF Done:  E(RCAM-B3LYP) =  -4069.57644466     A.U. after   19 cycles

 Excitation energies and oscillator strengths:

 Excited State   1:      Singlet-A      1.6234 eV  763.75 nm  f=0.0089  <S**2>=0.000
     309 -> 315        0.12787
     311 -> 313        0.53799
     312 -> 314       -0.43003
 This state for optimization and/or second-order correction.
 Total Energy, E(TD-HF/TD-DFT) =  -4069.51678740
 Copying the excited state density for this state as the 1-particle RhoCI density.

 Excited State   2:      Singlet-A      1.7113 eV  724.49 nm  f=0.6487  <S**2>=0.000
     309 -> 315        0.11654
     310 -> 316        0.14229
     311 -> 313        0.42603
     312 -> 314        0.53398

 Excited State   3:      Singlet-A      2.0185 eV  614.24 nm  f=0.0016  <S**2>=0.000
     312 -> 313        0.69942

 Excited State   4:      Singlet-A      2.1651 eV  572.66 nm  f=0.0500  <S**2>=0.000
     309 -> 313        0.54629
     310 -> 314        0.33619
     311 -> 315       -0.22730
     312 -> 316       -0.13433

 Excited State   5:      Singlet-A      2.1793 eV  568.91 nm  f=0.1443  <S**2>=0.000
     309 -> 313       -0.32894
     310 -> 314        0.54924
     311 -> 315        0.14528
     312 -> 316       -0.23358

 The electronic state is 1-A.
 Alpha  occ. eigenvalues --  -46.88248 -46.87240 -19.27358 -19.22974 -19.19330
 Alpha  occ. eigenvalues --  -19.18720 -19.18425 -19.18351 -19.17300 -19.16870
 Alpha  occ. eigenvalues --  -14.42956 -14.42121 -14.41919 -14.40924 -14.39787
 Alpha  occ. eigenvalues --  -14.39036 -14.38932 -14.38153 -10.39892 -10.36501
 Alpha  occ. eigenvalues --  -10.35961 -10.35041 -10.34950 -10.33408 -10.31988
 Alpha  occ. eigenvalues --  -10.31746 -10.31529 -10.31139 -10.31001 -10.30904
 Alpha  occ. eigenvalues --  -10.30694 -10.30542 -10.30390 -10.30155 -10.29939
 Alpha  occ. eigenvalues --  -10.29870 -10.29817 -10.29776 -10.29452 -10.29248
 Alpha  occ. eigenvalues --  -10.29177 -10.29118 -10.29098 -10.28956 -10.28952
 Alpha  occ. eigenvalues --  -10.28592 -10.28323 -10.28279 -10.28144 -10.28125
 Alpha  occ. eigenvalues --  -10.28108 -10.28032 -10.27990 -10.27904 -10.27864
 Alpha  occ. eigenvalues --  -10.27813 -10.27776 -10.27569 -10.27344 -10.27246
 Alpha  occ. eigenvalues --  -10.27219 -10.27050 -10.27019 -10.26942 -10.26936
 Alpha  occ. eigenvalues --  -10.26680 -10.26660 -10.26540 -10.26505 -10.26465
 Alpha  occ. eigenvalues --  -10.26251 -10.26160 -10.26148 -10.25874 -10.25809
 Alpha  occ. eigenvalues --  -10.25759 -10.25540 -10.25488 -10.25454 -10.25367
 Alpha  occ. eigenvalues --  -10.25311 -10.25115 -10.24936 -10.24466 -10.24393
 Alpha  occ. eigenvalues --  -10.24240  -3.16929  -3.15991  -1.91808  -1.91404
 Alpha  occ. eigenvalues --   -1.91251  -1.90874  -1.90462  -1.90298  -1.18311
 Alpha  occ. eigenvalues --   -1.14938  -1.09317  -1.08765  -1.07736  -1.07725
 Alpha  occ. eigenvalues --   -1.06612  -1.05161  -1.04538  -1.04282  -1.04072
 Alpha  occ. eigenvalues --   -1.03761  -1.03238  -1.02927  -1.02617  -1.01682
 Alpha  occ. eigenvalues --   -0.92624  -0.91353  -0.90157  -0.89971  -0.89071
 Alpha  occ. eigenvalues --   -0.89007  -0.88739  -0.88422  -0.88278  -0.87841
 Alpha  occ. eigenvalues --   -0.87832  -0.87380  -0.87250  -0.86764  -0.86144
 Alpha  occ. eigenvalues --   -0.84729  -0.84536  -0.83806  -0.83472  -0.83443
 Alpha  occ. eigenvalues --   -0.82798  -0.82567  -0.82245  -0.81336  -0.80653
 Alpha  occ. eigenvalues --   -0.79710  -0.79328  -0.78261  -0.77971  -0.77688
 Alpha  occ. eigenvalues --   -0.77050  -0.76607  -0.76534  -0.75651  -0.75359
 Alpha  occ. eigenvalues --   -0.74444  -0.73277  -0.72412  -0.72251  -0.71837
 Alpha  occ. eigenvalues --   -0.70972  -0.70287  -0.69465  -0.69392  -0.68419
 Alpha  occ. eigenvalues --   -0.68081  -0.67488  -0.66893  -0.66681  -0.65551
 Alpha  occ. eigenvalues --   -0.65266  -0.64810  -0.64415  -0.64384  -0.63904
 Alpha  occ. eigenvalues --   -0.63678  -0.63158  -0.62272  -0.60958  -0.60261
 Alpha  occ. eigenvalues --   -0.59972  -0.59686  -0.59527  -0.59437  -0.58869
 Alpha  occ. eigenvalues --   -0.58378  -0.57931  -0.57848  -0.57788  -0.56976
 Alpha  occ. eigenvalues --   -0.56795  -0.56744  -0.56097  -0.55841  -0.55684
 Alpha  occ. eigenvalues --   -0.55586  -0.55104  -0.55078  -0.54660  -0.54618
 Alpha  occ. eigenvalues --   -0.54288  -0.53959  -0.53732  -0.53695  -0.53440
 Alpha  occ. eigenvalues --   -0.53229  -0.52997  -0.52810  -0.52663  -0.52560
 Alpha  occ. eigenvalues --   -0.52457  -0.52185  -0.52086  -0.51858  -0.51517
 Alpha  occ. eigenvalues --   -0.51409  -0.51301  -0.51089  -0.50801  -0.50565
 Alpha  occ. eigenvalues --   -0.50417  -0.50375  -0.50166  -0.49869  -0.49687
 Alpha  occ. eigenvalues --   -0.49585  -0.49479  -0.49312  -0.49157  -0.48987
 Alpha  occ. eigenvalues --   -0.48875  -0.48747  -0.48528  -0.48161  -0.48074
 Alpha  occ. eigenvalues --   -0.47956  -0.47785  -0.47675  -0.47416  -0.47216
 Alpha  occ. eigenvalues --   -0.47057  -0.46969  -0.46676  -0.46510  -0.46398
 Alpha  occ. eigenvalues --   -0.46244  -0.46059  -0.45886  -0.45790  -0.45600
 Alpha  occ. eigenvalues --   -0.45329  -0.45105  -0.45046  -0.44926  -0.44837
 Alpha  occ. eigenvalues --   -0.44645  -0.44599  -0.44409  -0.44076  -0.43919
 Alpha  occ. eigenvalues --   -0.43863  -0.43807  -0.43804  -0.43557  -0.43394
 Alpha  occ. eigenvalues --   -0.43333  -0.43172  -0.43044  -0.42606  -0.42470
 Alpha  occ. eigenvalues --   -0.42316  -0.42204  -0.42144  -0.41872  -0.41715
 Alpha  occ. eigenvalues --   -0.41581  -0.41468  -0.41308  -0.41105  -0.41069
 Alpha  occ. eigenvalues --   -0.40991  -0.40759  -0.40564  -0.40215  -0.40207
 Alpha  occ. eigenvalues --   -0.40096  -0.39811  -0.39495  -0.39112  -0.38929
 Alpha  occ. eigenvalues --   -0.38639  -0.37934  -0.37818  -0.37767  -0.37216
 Alpha  occ. eigenvalues --   -0.36992  -0.36879  -0.36826  -0.36304  -0.35974
 Alpha  occ. eigenvalues --   -0.34748  -0.34434  -0.33985  -0.33796  -0.33360
 Alpha  occ. eigenvalues --   -0.32815  -0.31887  -0.31710  -0.31261  -0.30896
 Alpha  occ. eigenvalues --   -0.30601  -0.30446  -0.29922  -0.29874  -0.29419
 Alpha  occ. eigenvalues --   -0.29140  -0.28906  -0.28712  -0.24566  -0.23547
 Alpha  occ. eigenvalues --   -0.21665  -0.20724
 Alpha virt. eigenvalues --   -0.09341  -0.08347  -0.02311  -0.01285  -0.00631
 Alpha virt. eigenvalues --    0.00348   0.01656   0.02761   0.03075   0.03514
 Alpha virt. eigenvalues --    0.03669   0.04168   0.05244   0.05487   0.06477

 Mulliken charges:
               1
     1  Mg   0.669892
     2  C   -0.005453
     3  C   -0.088757
     4  C   -0.040448
     5  C   -0.060004
     6  N   -0.244868
     7  C   -0.076394
     8  C    0.040476
     9  C   -0.079434
    10  C    0.039706
    11  C    0.107481
    12  C   -0.004616
    13  C   -0.046722
    14  H    0.038737
    15  N   -0.439116
    16  C    0.165318
    17  C   -0.177596
    18  C   -0.008949
    19  C    0.152896
    20  C    0.111048
    21  C    0.011732
    22  O   -0.247446
    23  C    0.063443
    24  N   -0.325102
    25  C    0.040112
    26  C   -0.026502
    27  C   -0.025642
    28  C    0.080218
    29  C    0.075922
    30  C    0.034778
    31  C   -0.006162
    32  N   -0.307035
    33  C    0.080275
    34  C   -0.168548
    35  C    0.008523
    36  C    0.078123
    37  C    0.126210
    38  C    0.048539
    39  O   -0.185154
    40  C    0.002171
    41  C    0.230516
    42  O   -0.277474
    43  O   -0.295142
    44  C    0.189234
    45  H   -0.017973
    46  H   -0.016565
    47  H   -0.041283
    48  H   -0.010153
    49  H   -0.005402
    50  H    0.026055
    51  H    0.017149
    52  H    0.017088
    53  H    0.006888
    54  H    0.072176
    55  H    0.015465
    56  H    0.017108
    57  H    0.006405
    58  H    0.028393
    59  H    0.036867
    60  H    0.038633
    61  H    0.037344
    62  H    0.027582
    63  H    0.017379
    64  H    0.010464
    65  H    0.024226
    66  H    0.012729
    67  H    0.005710
    68  H    0.007488
    69  H    0.005759
    70  H    0.009427
    71  H    0.020026
    72  H    0.030011
    73  H    0.052078
    74  H    0.010575
    75  H    0.046859
    76  H    0.035649
    77  H    0.042629
    78  H    0.045517
    79  H   -0.020027
    80  Mg   0.836205
    81  C   -0.014741
    82  C   -0.088699
    83  C   -0.046216
    84  C   -0.067392
    85  N   -0.253694
    86  C   -0.048912
    87  C   -0.021818
    88  C   -0.083402
    89  C    0.042993
    90  C    0.031129
    91  C    0.139047
    92  C   -0.156146
    93  H    0.034213
    94  N   -0.423116
    95  C    0.161519
    96  C   -0.175077
    97  C   -0.008972
    98  C    0.151696
    99  C    0.100338
   100  C    0.014967
   101  O   -0.254393
   102  C    0.061416
   103  N   -0.350665
   104  C    0.036937
   105  C   -0.019327
   106  C   -0.034927
   107  C    0.090260
   108  C    0.074057
   109  C    0.034983
   110  C   -0.007545
   111  N   -0.324313
   112  C    0.079883
   113  C   -0.164585
   114  C    0.003851
   115  C    0.094457
   116  C    0.131673
   117  C    0.040752
   118  O   -0.184583
   119  C    0.006129
   120  C    0.207993
   121  O   -0.266012
   122  O   -0.286047
   123  C    0.300871
   124  H   -0.020970
   125  H   -0.016866
   126  H   -0.041562
   127  H    0.015394
   128  H   -0.003134
   129  H    0.075628
   130  H    0.031392
   131  H    0.128695
   132  H   -0.004160
   133  H    0.031333
   134  H    0.036395
   135  H    0.012667
   136  H    0.004415
   137  H    0.024649
   138  H    0.037798
   139  H    0.037402
   140  H    0.035266
   141  H    0.032912
   142  H    0.013674
   143  H    0.011466
   144  H    0.024244
   145  H    0.011670
   146  H    0.004427
   147  H    0.005454
   148  H    0.003213
   149  H    0.010597
   150  H    0.017327
   151  H    0.030829
   152  H    0.046638
   153  H    0.007419
   154  H    0.045747
   155  H    0.037422
   156  H    0.025585
   157  H    0.019706
   158  H    0.001479
 Sum of Mulliken charges =  -0.00000

 Dipole moment (field-independent basis, Debye):
    X=              4.5833    Y=              6.7505    Z=             -2.4419  Tot=              8.5169
 Quadrupole moment (field-independent basis, Debye-Ang):
   XX=           -502.6337   YY=           -559.0829   ZZ=           -465.5597
   XY=             26.0501   XZ=            -35.8245   YZ=            -13.3838

 Normal termination of Gaussian 16 at Thu Sep  9 04:17:21 2021.
