 Gaussian 16, Revision A.03,
 Gaussian 16:  ES64L-G16RevA.03 25-Dec-2016

 -----------------------------------
 #p cam-b3lyp/Def2SVP td=(nstates=5)
 -----------------------------------

 --------------------------------
 TDDFT excited states in gaussian
 --------------------------------
 Symbolic Z-matrix:
 Charge =  0 Multiplicity = 1

                         Standard orientation:
 ---------------------------------------------------------------------
 Center     Atomic      Atomic             Coordinates (Angstroms)
 Number     Number       Type             X           Y           Z
 ---------------------------------------------------------------------
      1         12           0        8.182454    0.435712    0.756382
      2          6           0        8.510608   -2.540225   -1.205333
      3          6           0        9.274089    2.174365   -1.969142
      4          6           0        8.335676    3.013180    2.597523
      5          6           0        8.220714   -1.600958    3.584133
      6          7           0        8.782948   -0.212882   -1.273243
      7          6           0        8.806373   -1.375594   -1.917234
      8          6           0        9.101497   -1.232422   -3.440315
      9          6           0        9.864435    0.167379   -3.418398
     10          6           0        9.245644    0.761680   -2.165470
     11          6           0       11.369668    0.037645   -3.208763
     12          6           0        7.791816   -1.157737   -4.295236
     13          6           0        7.984121   -1.345409   -5.802934
     14          1           0        6.956679   -2.046505   -6.558033
     15          7           0        8.251085    2.350840    0.276357
     16          6           0        8.711055    2.879107   -0.883232
     17          6           0        8.551558    4.343661   -0.755464
     18          6           0        8.138390    4.635893    0.645245
     19          6           0        8.252066    3.330469    1.243846
     20          6           0        8.737534    5.294376   -1.897963
     21          6           0        7.719306    5.894246    1.337379
     22          8           0        7.626048    5.971779    2.610119
     23          6           0        7.503533    7.074480    0.480915
     24          7           0        8.486849    0.701867    2.804342
     25          6           0        8.448949    1.920190    3.355012
     26          6           0        8.409113    1.841584    4.852400
     27          6           0        8.181588    0.301683    5.208337
     28          6           0        8.213861   -0.279499    3.773257
     29          6           0        9.657500    2.355188    5.582984
     30          6           0        6.972506   -0.039240    6.115151
     31          6           0        5.682503    0.246450    5.379372
     32          7           0        8.158563   -1.698644    1.150081
     33          6           0        8.202301   -2.325268    2.403916
     34          6           0        8.274914   -3.777412    2.158820
     35          6           0        8.285160   -3.894581    0.770291
     36          6           0        8.249384   -2.596640    0.185173
     37          6           0        8.379869   -4.786682    3.156212
     38          6           0        8.342872   -4.813333   -0.355062
     39          8           0        8.294095   -6.038078   -0.478000
     40          6           0        8.614096   -3.969089   -1.677755
     41          6           0        7.638495   -4.436410   -2.723280
     42          8           0        6.414476   -4.230672   -2.593612
     43          8           0        8.312033   -4.835547   -3.813041
     44          6           0        7.401450   -5.284118   -4.900137
     45          1           0        9.826978    2.794648   -2.677311
     46          1           0        8.279511    3.871025    3.270863
     47          1           0        8.150355   -2.302073    4.417764
     48          1           0        9.751897   -2.004497   -3.851781
     49          1           0        9.620231    0.777602   -4.287715
     50          1           0       11.652928   -0.989574   -2.979621
     51          1           0       11.604310    0.693375   -2.370041
     52          1           0       11.915698    0.437494   -4.063601
     53          1           0        7.411984   -0.136159   -4.282395
     54          1           0        7.053818   -1.874764   -3.933908
     55          1           0        8.970000   -1.751240   -6.031523
     56          1           0        7.980473   -0.361816   -6.272755
     57          1           0        9.199629    4.805446   -2.754679
     58          1           0        9.470926    6.035024   -1.579711
     59          1           0        7.807646    5.792389   -2.172958
     60          1           0        8.423864    7.301415   -0.057638
     61          1           0        7.122450    7.856384    1.136852
     62          1           0        6.757766    6.829863   -0.276014
     63          1           0        7.582258    2.426714    5.252850
     64          1           0        9.036081   -0.127663    5.731957
     65          1           0        9.448848    3.147086    6.302753
     66          1           0       10.374218    2.687651    4.832602
     67          1           0       10.229751    1.588410    6.104519
     68          1           0        6.978713    0.586947    7.006666
     69          1           0        6.958442   -1.079493    6.440615
     70          1           0        5.540509    1.314176    5.542561
     71          1           0        4.862439   -0.327165    5.812583
     72          1           0        5.794107    0.092899    4.305849
     73          1           0        7.696061   -5.581645    2.858874
     74          1           0        8.128887   -4.396517    4.142306
     75          1           0        9.433752   -5.049825    3.067095
     76          1           0        9.646923   -4.161746   -1.966327
     77          1           0        7.695198   -6.299539   -5.166344
     78          1           0        7.449928   -4.522771   -5.678857
     79          1           0        6.358136   -5.437860   -4.622290
     80         12           0       -7.653647    0.549598   -0.409762
     81          6           0      -10.247780   -1.732088    0.561572
     82          6           0      -10.111284    2.800868   -1.135289
     83          6           0       -5.429794    2.413934   -1.692781
     84          6           0       -5.533346   -2.201252   -0.697666
     85          7           0       -9.857527    0.432785   -0.263105
     86          6           0      -10.728182   -0.462651    0.177931
     87          6           0      -12.186853    0.057222    0.285449
     88          6           0      -12.098686    1.245325   -0.791342
     89          6           0      -10.603004    1.542428   -0.705586
     90          6           0      -12.416298    0.797961   -2.208495
     91          6           0      -12.522648    0.603609    1.717479
     92          6           0      -14.011058    0.840147    1.982855
     93          1           0      -14.528883    0.580712    3.323391
     94          7           0       -7.687224    2.490145   -0.824163
     95          6           0       -8.774434    3.251187   -1.069242
     96          6           0       -8.265455    4.604752   -1.339356
     97          6           0       -6.779561    4.544533   -1.395923
     98          6           0       -6.570918    3.112182   -1.325601
     99          6           0       -9.160179    5.806198   -1.436389
    100          6           0       -5.721999    5.600447   -1.509134
    101          8           0       -4.504159    5.307319   -1.780746
    102          6           0       -6.171721    6.994676   -1.385073
    103          7           0       -5.818362    0.147441   -1.299887
    104          6           0       -5.023601    1.144600   -1.726458
    105          6           0       -3.646361    0.633083   -2.075650
    106          6           0       -3.607874   -0.881375   -1.563283
    107          6           0       -5.063432   -1.016995   -1.064945
    108          6           0       -3.276061    0.678138   -3.557957
    109          6           0       -2.456170   -1.267792   -0.595327
    110          6           0       -2.633726   -0.557927    0.727526
    111          7           0       -7.770401   -1.558776    0.047612
    112          6           0       -6.776420   -2.536492   -0.176349
    113          6           0       -7.360641   -3.843070    0.189666
    114          6           0       -8.671898   -3.535183    0.582468
    115          6           0       -8.895948   -2.138127    0.450053
    116          6           0       -6.707470   -5.103805    0.089391
    117          6           0       -9.920840   -4.075746    1.068913
    118          8           0      -10.298693   -5.183241    1.448939
    119          6           0      -11.036736   -2.949415    0.956894
    120          6           0      -11.785488   -2.906077    2.260741
    121          8           0      -11.212901   -2.553812    3.306995
    122          8           0      -13.098439   -3.076167    2.020744
    123          6           0      -13.884303   -3.029877    3.282525
    124          1           0      -10.806438    3.495909   -1.607070
    125          1           0       -4.593135    3.025885   -2.037753
    126          1           0       -4.905485   -3.094264   -0.666300
    127          1           0      -12.946441   -0.656628   -0.009877
    128          1           0      -12.677743    2.108985   -0.474885
    129          1           0      -12.533957   -0.273374   -2.275951
    130          1           0      -11.581817    1.125819   -2.814466
    131          1           0      -13.291774    1.334174   -2.585783
    132          1           0      -12.150453    1.632520    1.804498
    133          1           0      -12.118213   -0.039166    2.475039
    134          1           0      -14.645618    0.362262    1.226614
    135          1           0      -14.218190    1.907206    1.871070
    136          1           0      -10.215093    5.516587   -1.518134
    137          1           0       -8.937704    6.294255   -2.391467
    138          1           0       -8.994907    6.520897   -0.627351
    139          1           0       -6.915302    7.203742   -2.150475
    140          1           0       -5.261971    7.597917   -1.403575
    141          1           0       -6.672673    7.115962   -0.418145
    142          1           0       -2.881113    1.198650   -1.558323
    143          1           0       -3.493532   -1.590542   -2.396252
    144          1           0       -2.354997    1.256721   -3.760361
    145          1           0       -4.112484    1.090698   -4.106350
    146          1           0       -3.146221   -0.293625   -4.031275
    147          1           0       -1.495734   -0.937315   -0.998435
    148          1           0       -2.380821   -2.335463   -0.418086
    149          1           0       -2.195101    0.426720    0.540031
    150          1           0       -2.101771   -1.082878    1.518398
    151          1           0       -3.695686   -0.407963    0.954276
    152          1           0       -6.936531   -5.646187    0.997046
    153          1           0       -5.634126   -4.985977   -0.044122
    154          1           0       -7.191083   -5.503338   -0.806018
    155          1           0      -11.685555   -3.213070    0.120778
    156          1           0      -14.459692   -3.959326    3.334827
    157          1           0      -14.457174   -2.084349    3.243156
    158          1           0      -13.335700   -3.067922    4.216345
 ---------------------------------------------------------------------

 SCF Done:  E(RCAM-B3LYP) =  -4069.81191680     A.U. after   19 cycles

 Excitation energies and oscillator strengths:

 Excited State   1:      Singlet-A      1.6693 eV  742.74 nm  f=0.0202  <S**2>=0.000
     309 -> 315       -0.10204
     310 -> 316        0.13892
     311 -> 313       -0.40484
     312 -> 314        0.55427
 This state for optimization and/or second-order correction.
 Total Energy, E(TD-HF/TD-DFT) =  -4069.75057171
 Copying the excited state density for this state as the 1-particle RhoCI density.

 Excited State   2:      Singlet-A      1.6854 eV  735.64 nm  f=0.7356  <S**2>=0.000
     309 -> 315        0.14302
     310 -> 316        0.10387
     311 -> 313        0.55344
     312 -> 314        0.40431

 Excited State   3:      Singlet-A      2.1855 eV  567.30 nm  f=0.1018  <S**2>=0.000
     310 -> 314        0.64169
     312 -> 316       -0.27243

 Excited State   4:      Singlet-A      2.1932 eV  565.32 nm  f=0.0998  <S**2>=0.000
     309 -> 313        0.63971
     311 -> 315       -0.27829

 Excited State   5:      Singlet-A      2.7828 eV  445.54 nm  f=0.0000  <S**2>=0.000
     312 -> 313        0.70697

 The electronic state is 1-A.
 Alpha  occ. eigenvalues --  -46.87775 -46.87578 -19.26296 -19.26290 -19.19097
 Alpha  occ. eigenvalues --  -19.19035 -19.18770 -19.18654 -19.18155 -19.17977
 Alpha  occ. eigenvalues --  -14.42430 -14.42419 -14.41426 -14.41269 -14.39379
 Alpha  occ. eigenvalues --  -14.39272 -14.38567 -14.38517 -10.39091 -10.39026
 Alpha  occ. eigenvalues --  -10.35402 -10.35333 -10.34377 -10.34154 -10.31703
 Alpha  occ. eigenvalues --  -10.31696 -10.31388 -10.31230 -10.30953 -10.30888
 Alpha  occ. eigenvalues --  -10.30550 -10.30484 -10.30313 -10.30277 -10.30176
 Alpha  occ. eigenvalues --  -10.30045 -10.29897 -10.29799 -10.29605 -10.29356
 Alpha  occ. eigenvalues --  -10.29320 -10.29227 -10.28739 -10.28657 -10.28605
 Alpha  occ. eigenvalues --  -10.28542 -10.28343 -10.28330 -10.28102 -10.28077
 Alpha  occ. eigenvalues --  -10.27921 -10.27769 -10.27705 -10.27592 -10.27556
 Alpha  occ. eigenvalues --  -10.27466 -10.27441 -10.27415 -10.27409 -10.27405
 Alpha  occ. eigenvalues --  -10.27389 -10.27384 -10.27377 -10.27258 -10.27150
 Alpha  occ. eigenvalues --  -10.26980 -10.26706 -10.26636 -10.26372 -10.26347
 Alpha  occ. eigenvalues --  -10.26218 -10.26144 -10.25994 -10.25969 -10.25939
 Alpha  occ. eigenvalues --  -10.25835 -10.25820 -10.25741 -10.25400 -10.25294
 Alpha  occ. eigenvalues --  -10.24811 -10.24793 -10.24762 -10.24647 -10.24605
 Alpha  occ. eigenvalues --  -10.24552  -3.16518  -3.16328  -1.91400  -1.91210
 Alpha  occ. eigenvalues --   -1.90987  -1.90829  -1.90798  -1.90635  -1.16645
 Alpha  occ. eigenvalues --   -1.16583  -1.08616  -1.08584  -1.07170  -1.06907
 Alpha  occ. eigenvalues --   -1.06882  -1.06656  -1.04561  -1.04418  -1.03737
 Alpha  occ. eigenvalues --   -1.03580  -1.03211  -1.02951  -1.02388  -1.02027
 Alpha  occ. eigenvalues --   -0.91955  -0.91909  -0.89491  -0.89383  -0.89175
 Alpha  occ. eigenvalues --   -0.89083  -0.88257  -0.88103  -0.87848  -0.87705
 Alpha  occ. eigenvalues --   -0.87652  -0.87603  -0.87238  -0.87052  -0.84966
 Alpha  occ. eigenvalues --   -0.84930  -0.83907  -0.83755  -0.82925  -0.82857
 Alpha  occ. eigenvalues --   -0.82628  -0.82581  -0.81577  -0.81521  -0.80578
 Alpha  occ. eigenvalues --   -0.80368  -0.78767  -0.78559  -0.77195  -0.77063
 Alpha  occ. eigenvalues --   -0.76921  -0.76813  -0.75909  -0.75767  -0.74872
 Alpha  occ. eigenvalues --   -0.74704  -0.72751  -0.72611  -0.71651  -0.71499
 Alpha  occ. eigenvalues --   -0.69874  -0.69618  -0.68854  -0.68755  -0.67618
 Alpha  occ. eigenvalues --   -0.67523  -0.67202  -0.67137  -0.65273  -0.65200
 Alpha  occ. eigenvalues --   -0.64836  -0.64684  -0.64603  -0.64574  -0.64242
 Alpha  occ. eigenvalues --   -0.64090  -0.62292  -0.62200  -0.60409  -0.60260
 Alpha  occ. eigenvalues --   -0.59788  -0.59726  -0.58966  -0.58907  -0.58483
 Alpha  occ. eigenvalues --   -0.58341  -0.57576  -0.57481  -0.57284  -0.57144
 Alpha  occ. eigenvalues --   -0.56287  -0.56123  -0.55976  -0.55818  -0.55491
 Alpha  occ. eigenvalues --   -0.55384  -0.55319  -0.55147  -0.54509  -0.54387
 Alpha  occ. eigenvalues --   -0.53882  -0.53846  -0.53271  -0.53199  -0.53145
 Alpha  occ. eigenvalues --   -0.53069  -0.52901  -0.52826  -0.52723  -0.52609
 Alpha  occ. eigenvalues --   -0.52405  -0.52248  -0.51894  -0.51788  -0.51598
 Alpha  occ. eigenvalues --   -0.51595  -0.51177  -0.51112  -0.50528  -0.50410
 Alpha  occ. eigenvalues --   -0.49999  -0.49907  -0.49886  -0.49760  -0.49491
 Alpha  occ. eigenvalues --   -0.49421  -0.49194  -0.49132  -0.49080  -0.49030
 Alpha  occ. eigenvalues --   -0.48579  -0.48486  -0.48434  -0.48414  -0.48277
 Alpha  occ. eigenvalues --   -0.48275  -0.47671  -0.47516  -0.47271  -0.47041
 Alpha  occ. eigenvalues --   -0.46774  -0.46617  -0.46541  -0.46484  -0.46336
 Alpha  occ. eigenvalues --   -0.46181  -0.46143  -0.45995  -0.45810  -0.45740
 Alpha  occ. eigenvalues --   -0.45173  -0.45110  -0.44562  -0.44477  -0.44442
 Alpha  occ. eigenvalues --   -0.44393  -0.44118  -0.44070  -0.44054  -0.43996
 Alpha  occ. eigenvalues --   -0.43977  -0.43873  -0.43484  -0.43471  -0.43365
 Alpha  occ. eigenvalues --   -0.43308  -0.43006  -0.42858  -0.42818  -0.42696
 Alpha  occ. eigenvalues --   -0.42631  -0.42442  -0.41987  -0.41856  -0.41684
 Alpha  occ. eigenvalues --   -0.41587  -0.41517  -0.41376  -0.41120  -0.40911
 Alpha  occ. eigenvalues --   -0.40849  -0.40786  -0.40659  -0.40616  -0.40544
 Alpha  occ. eigenvalues --   -0.40376  -0.40224  -0.40168  -0.39407  -0.39283
 Alpha  occ. eigenvalues --   -0.38442  -0.38243  -0.37739  -0.37587  -0.37294
 Alpha  occ. eigenvalues --   -0.37249  -0.37163  -0.37125  -0.36712  -0.36696
 Alpha  occ. eigenvalues --   -0.36179  -0.36123  -0.34265  -0.34170  -0.33795
 Alpha  occ. eigenvalues --   -0.33779  -0.33166  -0.33092  -0.31301  -0.31212
 Alpha  occ. eigenvalues --   -0.31013  -0.30892  -0.30016  -0.29881  -0.29421
 Alpha  occ. eigenvalues --   -0.29300  -0.29252  -0.29131  -0.24059  -0.23953
 Alpha  occ. eigenvalues --   -0.21104  -0.21034
 Alpha virt. eigenvalues --   -0.08749  -0.08712  -0.01724  -0.01600  -0.00027
 Alpha virt. eigenvalues --    0.00039   0.02220   0.02289   0.03129   0.03313
 Alpha virt. eigenvalues --    0.04734   0.04805   0.05090   0.05231   0.06182

 Mulliken charges:
               1
     1  Mg   0.838383
     2  C   -0.003212
     3  C   -0.094096
     4  C   -0.045740
     5  C   -0.063940
     6  N   -0.256789
     7  C   -0.052623
     8  C   -0.013966
     9  C   -0.087001
    10  C    0.046278
    11  C    0.104796
    12  C    0.053466
    13  C   -0.071738
    14  H    0.035750
    15  N   -0.433179
    16  C    0.168461
    17  C   -0.177022
    18  C   -0.003818
    19  C    0.148739
    20  C    0.110140
    21  C    0.012531
    22  O   -0.249454
    23  C    0.062348
    24  N   -0.341106
    25  C    0.041240
    26  C   -0.028231
    27  C   -0.023965
    28  C    0.074768
    29  C    0.076155
    30  C    0.035102
    31  C   -0.004535
    32  N   -0.310388
    33  C    0.080207
    34  C   -0.169854
    35  C    0.008272
    36  C    0.082748
    37  C    0.127353
    38  C    0.045895
    39  O   -0.188598
    40  C   -0.005234
    41  C    0.212959
    42  O   -0.257669
    43  O   -0.304655
    44  C    0.157778
    45  H   -0.017547
    46  H   -0.016663
    47  H   -0.041430
    48  H    0.000910
    49  H   -0.003997
    50  H    0.025470
    51  H    0.016516
    52  H    0.016685
    53  H    0.011237
    54  H    0.043706
    55  H    0.017973
    56  H    0.018106
    57  H    0.005826
    58  H    0.026868
    59  H    0.039994
    60  H    0.037202
    61  H    0.035918
    62  H    0.031995
    63  H    0.016752
    64  H    0.009482
    65  H    0.023330
    66  H    0.012506
    67  H    0.004772
    68  H    0.006536
    69  H    0.004757
    70  H    0.009049
    71  H    0.018233
    72  H    0.028650
    73  H    0.047419
    74  H    0.009196
    75  H    0.046034
    76  H    0.035199
    77  H    0.043037
    78  H    0.046439
    79  H    0.053286
    80  Mg   0.837808
    81  C   -0.016952
    82  C   -0.088001
    83  C   -0.045499
    84  C   -0.064801
    85  N   -0.254576
    86  C   -0.049869
    87  C   -0.015075
    88  C   -0.090471
    89  C    0.045719
    90  C    0.114434
    91  C    0.062558
    92  C   -0.077802
    93  H    0.034766
    94  N   -0.423430
    95  C    0.162842
    96  C   -0.174850
    97  C   -0.007974
    98  C    0.152086
    99  C    0.099460
   100  C    0.015474
   101  O   -0.253448
   102  C    0.061248
   103  N   -0.350103
   104  C    0.037500
   105  C   -0.019785
   106  C   -0.035217
   107  C    0.088958
   108  C    0.073833
   109  C    0.034639
   110  C   -0.007834
   111  N   -0.324151
   112  C    0.078566
   113  C   -0.162879
   114  C    0.002202
   115  C    0.096283
   116  C    0.131368
   117  C    0.042439
   118  O   -0.187868
   119  C    0.000887
   120  C    0.211228
   121  O   -0.250992
   122  O   -0.305658
   123  C    0.152068
   124  H   -0.019953
   125  H   -0.015768
   126  H   -0.039560
   127  H   -0.000750
   128  H   -0.004490
   129  H    0.022402
   130  H    0.014382
   131  H    0.016055
   132  H    0.013908
   133  H    0.037696
   134  H    0.020707
   135  H    0.019492
   136  H    0.008620
   137  H    0.025808
   138  H    0.039594
   139  H    0.038051
   140  H    0.036020
   141  H    0.033948
   142  H    0.014472
   143  H    0.012977
   144  H    0.024822
   145  H    0.011057
   146  H    0.006052
   147  H    0.007669
   148  H    0.004930
   149  H    0.010645
   150  H    0.018685
   151  H    0.029306
   152  H    0.046108
   153  H    0.009380
   154  H    0.046917
   155  H    0.034893
   156  H    0.043834
   157  H    0.049398
   158  H    0.053565
 Sum of Mulliken charges =  -0.00000

 Dipole moment (field-independent basis, Debye):
    X=              0.3394    Y=              6.6802    Z=             -4.3794  Tot=              7.9949
 Quadrupole moment (field-independent basis, Debye-Ang):
   XX=           -421.7837   YY=           -544.2675   ZZ=           -482.2492
   XY=            -29.2499   XZ=             -2.6081   YZ=             -7.3643

 Normal termination of Gaussian 16 at Sat Sep 11 19:01:35 2021.
