 Gaussian 16, Revision A.03,
 Gaussian 16:  ES64L-G16RevA.03 25-Dec-2016

 -----------------------------------
 #p cam-b3lyp/Def2SVP td=(nstates=5)
 -----------------------------------

 --------------------------------
 TDDFT excited states in gaussian
 --------------------------------
 Symbolic Z-matrix:
 Charge =  0 Multiplicity = 1

                         Standard orientation:
 ---------------------------------------------------------------------
 Center     Atomic      Atomic             Coordinates (Angstroms)
 Number     Number       Type             X           Y           Z
 ---------------------------------------------------------------------
      1         12           0       -4.141722    0.070708    0.277436
      2          6           0       -3.563045    3.329409    1.640600
      3          6           0       -5.021419    1.609496   -2.638268
      4          6           0       -5.091382   -2.756172   -0.801228
      5          6           0       -4.318357   -1.106578    3.552869
      6          7           0       -4.237712    2.204969   -0.302533
      7          6           0       -3.932441    3.353124    0.293890
      8          6           0       -3.968841    4.577951   -0.668321
      9          6           0       -4.965069    4.001726   -1.771722
     10          6           0       -4.701310    2.517867   -1.585926
     11          6           0       -6.434219    4.280840   -1.471394
     12          6           0       -2.562209    4.897520   -1.277411
     13          6           0       -2.441773    6.261454   -1.963365
     14          1           0       -1.184736    6.987436   -1.862589
     15          7           0       -4.470057   -0.551874   -1.568489
     16          6           0       -4.801512    0.215043   -2.634914
     17          6           0       -4.937026   -0.713146   -3.778060
     18          6           0       -4.843703   -2.102454   -3.249660
     19          6           0       -4.823981   -1.856435   -1.830342
     20          6           0       -5.083635   -0.255365   -5.196754
     21          6           0       -4.792640   -3.440168   -3.917527
     22          8           0       -4.946350   -4.530813   -3.268343
     23          6           0       -4.644340   -3.436951   -5.384169
     24          7           0       -4.854065   -1.645770    1.228176
     25          6           0       -5.138624   -2.752175    0.532563
     26          6           0       -5.356097   -3.926716    1.439810
     27          6           0       -4.920088   -3.445245    2.898521
     28          6           0       -4.586440   -1.969116    2.569900
     29          6           0       -6.788137   -4.476872    1.490793
     30          6           0       -3.853036   -4.297265    3.630559
     31          6           0       -2.525341   -4.181873    2.915709
     32          7           0       -3.801139    0.891630    2.257622
     33          6           0       -3.955665    0.228152    3.483425
     34          6           0       -3.717250    1.222389    4.545836
     35          6           0       -3.455186    2.406717    3.859880
     36          6           0       -3.551275    2.173433    2.458225
     37          6           0       -3.814997    0.986089    5.945494
     38          6           0       -3.140580    3.820616    3.985457
     39          8           0       -2.848279    4.563982    4.923252
     40          6           0       -3.317678    4.502118    2.557165
     41          6           0       -2.100884    5.349851    2.304045
     42          8           0       -0.978632    4.827279    2.146457
     43          8           0       -2.482542    6.611364    2.052125
     44          6           0       -1.324502    7.498894    1.763353
     45          1           0       -5.540923    1.986675   -3.521327
     46          1           0       -5.314804   -3.772777   -1.131432
     47          1           0       -4.273189   -1.420193    4.597406
     48          1           0       -4.382678    5.486971   -0.231462
     49          1           0       -4.683199    4.313725   -2.777171
     50          1           0       -6.562371    4.718088   -0.481287
     51          1           0       -6.931788    3.312438   -1.527205
     52          1           0       -6.880489    4.892658   -2.255804
     53          1           0       -2.383365    4.244011   -2.131227
     54          1           0       -1.783564    4.805157   -0.519448
     55          1           0       -3.279562    6.911125   -1.708517
     56          1           0       -2.532503    6.111854   -3.039277
     57          1           0       -5.286637    0.813318   -5.253791
     58          1           0       -5.984797   -0.724460   -5.591173
     59          1           0       -4.225848   -0.534563   -5.808784
     60          1           0       -5.478015   -2.893192   -5.828987
     61          1           0       -4.536737   -4.480524   -5.677813
     62          1           0       -3.742334   -2.883376   -5.646636
     63          1           0       -4.735680   -4.771011    1.142027
     64          1           0       -5.762379   -3.422169    3.590394
     65          1           0       -6.860544   -5.533883    1.233518
     66          1           0       -7.405978   -3.870185    0.829360
     67          1           0       -7.295813   -4.342197    2.445541
     68          1           0       -4.133954   -5.349814    3.617465
     69          1           0       -3.708814   -4.005414    4.670883
     70          1           0       -2.611927   -4.921472    2.120518
     71          1           0       -1.706456   -4.429679    3.591896
     72          1           0       -2.411485   -3.206400    2.442448
     73          1           0       -2.955649    1.479915    6.398956
     74          1           0       -3.821427   -0.080822    6.167447
     75          1           0       -4.769668    1.463975    6.164774
     76          1           0       -4.228826    5.097653    2.604810
     77          1           0       -1.375526    8.331630    2.464910
     78          1           0       -1.369398    7.730468    0.699040
     79          1           0       -0.338221    7.095063    1.994673
     80         12           0        3.606473   -1.472510   -0.503582
     81          6           0        6.096337    1.087589   -0.149327
     82          6           0        1.515141    0.936976   -1.709944
     83          6           0        1.257136   -3.602906   -0.406153
     84          6           0        5.455306   -3.387889    1.745601
     85          7           0        3.885266    0.695780   -0.839763
     86          6           0        4.893961    1.546673   -0.726356
     87          6           0        4.624145    2.948862   -1.335153
     88          6           0        3.020250    2.940963   -1.255630
     89          6           0        2.780418    1.433463   -1.306618
     90          6           0        2.480541    3.466079    0.064338
     91          6           0        5.125198    3.063309   -2.817673
     92          6           0        5.175495    4.489068   -3.371237
     93          1           0        6.248441    4.838367   -4.298199
     94          7           0        1.847160   -1.487120   -1.421832
     95          6           0        1.151422   -0.418817   -1.864513
     96          6           0       -0.086810   -0.958490   -2.447329
     97          6           0       -0.140663   -2.418633   -2.164866
     98          6           0        1.000526   -2.558745   -1.282750
     99          6           0       -1.036958   -0.123529   -3.255728
    100          6           0       -1.073435   -3.506296   -2.604365
    101          8           0       -1.072265   -4.660407   -2.046822
    102          6           0       -2.051458   -3.151199   -3.643040
    103          7           0        3.272723   -3.150389    0.677808
    104          6           0        2.197966   -3.933439    0.478659
    105          6           0        2.311599   -5.223549    1.255247
    106          6           0        3.803930   -5.249272    1.829588
    107          6           0        4.287836   -3.867123    1.338769
    108          6           0        1.320610   -5.396786    2.406041
    109          6           0        4.666169   -6.496643    1.493000
    110          6           0        4.964924   -6.533033    0.011509
    111          7           0        5.529102   -1.305919    0.467897
    112          6           0        6.098654   -2.208564    1.392520
    113          6           0        7.364715   -1.609556    1.862330
    114          6           0        7.433059   -0.379753    1.190473
    115          6           0        6.280386   -0.214323    0.375931
    116          6           0        8.245953   -2.176233    2.825872
    117          6           0        8.213035    0.820846    0.993230
    118          8           0        9.325356    1.203209    1.354196
    119          6           0        7.320970    1.880667    0.213888
    120          6           0        8.146955    2.447383   -0.908203
    121          8           0        8.513779    1.723880   -1.850848
    122          8           0        8.182994    3.787672   -0.795429
    123          6           0        8.981630    4.396520   -1.892377
    124          1           0        0.709569    1.650615   -1.885029
    125          1           0        0.529668   -4.417849   -0.417739
    126          1           0        6.137295   -3.966321    2.372477
    127          1           0        5.020817    3.777443   -0.760795
    128          1           0        2.579407    3.426725   -2.122266
    129          1           0        3.269835    3.648070    0.778505
    130          1           0        1.806923    2.702758    0.431251
    131          1           0        1.865315    4.354135   -0.106519
    132          1           0        4.370013    2.629038   -3.485390
    133          1           0        6.084300    2.596942   -2.932772
    134          1           0        5.092275    5.242275   -2.578338
    135          1           0        4.289901    4.652469   -3.990142
    136          1           0       -0.819474    0.946760   -3.152842
    137          1           0       -2.029093   -0.243443   -2.807232
    138          1           0       -1.082689   -0.431700   -4.302435
    139          1           0       -2.666026   -2.325174   -3.293125
    140          1           0       -2.568310   -4.081135   -3.887923
    141          1           0       -1.510083   -2.789397   -4.524314
    142          1           0        2.169940   -6.079212    0.606484
    143          1           0        3.818081   -5.214999    2.928893
    144          1           0        0.705671   -6.312339    2.318402
    145          1           0        0.690622   -4.518264    2.449155
    146          1           0        1.764892   -5.411467    3.399812
    147          1           0        4.113734   -7.411558    1.720782
    148          1           0        5.599461   -6.538197    2.044575
    149          1           0        4.066913   -6.994486   -0.410062
    150          1           0        5.848672   -7.136262   -0.186354
    151          1           0        5.039053   -5.519733   -0.400039
    152          1           0        9.250246   -2.040665    2.447040
    153          1           0        8.023753   -3.227267    2.998292
    154          1           0        8.007437   -1.558216    3.695603
    155          1           0        7.022347    2.647212    0.929997
    156          1           0        9.757227    5.008272   -1.421315
    157          1           0        8.251645    4.918802   -2.538988
    158          1           0        9.579476    3.732218   -2.505347
 ---------------------------------------------------------------------

 SCF Done:  E(RCAM-B3LYP) =  -4069.80239325     A.U. after   19 cycles

 Excitation energies and oscillator strengths:

 Excited State   1:      Singlet-A      1.6124 eV  768.93 nm  f=0.2131  <S**2>=0.000
     309 -> 315        0.11291
     310 -> 316       -0.10418
     311 -> 313        0.48687
     312 -> 313       -0.15521
     312 -> 314       -0.45592
 This state for optimization and/or second-order correction.
 Total Energy, E(TD-HF/TD-DFT) =  -4069.74313740
 Copying the excited state density for this state as the 1-particle RhoCI density.

 Excited State   2:      Singlet-A      1.7076 eV  726.06 nm  f=0.5357  <S**2>=0.000
     309 -> 315        0.12581
     310 -> 316        0.12594
     311 -> 313        0.47135
     312 -> 314        0.49237

 Excited State   3:      Singlet-A      2.0656 eV  600.22 nm  f=0.0004  <S**2>=0.000
     312 -> 313        0.68632
     312 -> 314       -0.13926

 Excited State   4:      Singlet-A      2.1752 eV  569.98 nm  f=0.0014  <S**2>=0.000
     309 -> 313        0.42437
     310 -> 314        0.47547
     311 -> 315       -0.17185
     312 -> 316       -0.18696

 Excited State   5:      Singlet-A      2.1987 eV  563.91 nm  f=0.1623  <S**2>=0.000
     309 -> 313        0.47399
     310 -> 314       -0.41634
     311 -> 315       -0.21226
     312 -> 316        0.18105

 The electronic state is 1-A.
 Alpha  occ. eigenvalues --  -46.88243 -46.87308 -19.26807 -19.26091 -19.19604
 Alpha  occ. eigenvalues --  -19.19170 -19.18891 -19.18604 -19.18147 -19.17724
 Alpha  occ. eigenvalues --  -14.42910 -14.42111 -14.41851 -14.41029 -14.40003
 Alpha  occ. eigenvalues --  -14.39003 -14.39000 -14.38250 -10.39629 -10.38814
 Alpha  occ. eigenvalues --  -10.35948 -10.34826 -10.34809 -10.33901 -10.32183
 Alpha  occ. eigenvalues --  -10.31881 -10.31542 -10.31422 -10.31080 -10.30943
 Alpha  occ. eigenvalues --  -10.30909 -10.30633 -10.30588 -10.30234 -10.30066
 Alpha  occ. eigenvalues --  -10.30060 -10.30023 -10.29809 -10.29707 -10.29595
 Alpha  occ. eigenvalues --  -10.29309 -10.29197 -10.29074 -10.29050 -10.28838
 Alpha  occ. eigenvalues --  -10.28616 -10.28430 -10.28278 -10.28254 -10.28189
 Alpha  occ. eigenvalues --  -10.28170 -10.28040 -10.27956 -10.27849 -10.27674
 Alpha  occ. eigenvalues --  -10.27647 -10.27624 -10.27565 -10.27554 -10.27437
 Alpha  occ. eigenvalues --  -10.27279 -10.27274 -10.27157 -10.27123 -10.27117
 Alpha  occ. eigenvalues --  -10.26920 -10.26763 -10.26716 -10.26656 -10.26418
 Alpha  occ. eigenvalues --  -10.26381 -10.26229 -10.26187 -10.25934 -10.25607
 Alpha  occ. eigenvalues --  -10.25557 -10.25547 -10.25313 -10.25277 -10.25249
 Alpha  occ. eigenvalues --  -10.25173 -10.25027 -10.24565 -10.24529 -10.24522
 Alpha  occ. eigenvalues --  -10.24367  -3.16985  -3.16057  -1.91864  -1.91453
 Alpha  occ. eigenvalues --   -1.91297  -1.90939  -1.90528  -1.90365  -1.17162
 Alpha  occ. eigenvalues --   -1.16382  -1.09061  -1.08338  -1.07691  -1.07196
 Alpha  occ. eigenvalues --   -1.06675  -1.06379  -1.05071  -1.04223  -1.04109
 Alpha  occ. eigenvalues --   -1.03700  -1.03309  -1.02844  -1.02704  -1.01764
 Alpha  occ. eigenvalues --   -0.92422  -0.91633  -0.89826  -0.89698  -0.89202
 Alpha  occ. eigenvalues --   -0.88665  -0.88538  -0.88288  -0.88137  -0.87956
 Alpha  occ. eigenvalues --   -0.87926  -0.87460  -0.87323  -0.86666  -0.85527
 Alpha  occ. eigenvalues --   -0.84578  -0.84174  -0.83643  -0.83502  -0.83101
 Alpha  occ. eigenvalues --   -0.82454  -0.82122  -0.82046  -0.81284  -0.81067
 Alpha  occ. eigenvalues --   -0.80101  -0.79302  -0.78253  -0.77650  -0.77340
 Alpha  occ. eigenvalues --   -0.76784  -0.76539  -0.76376  -0.75391  -0.75166
 Alpha  occ. eigenvalues --   -0.74518  -0.73187  -0.72346  -0.72070  -0.71202
 Alpha  occ. eigenvalues --   -0.70059  -0.69501  -0.69384  -0.68433  -0.68103
 Alpha  occ. eigenvalues --   -0.67837  -0.67274  -0.66870  -0.65792  -0.65285
 Alpha  occ. eigenvalues --   -0.65061  -0.64894  -0.64534  -0.64436  -0.64311
 Alpha  occ. eigenvalues --   -0.63911  -0.62740  -0.61988  -0.60878  -0.60304
 Alpha  occ. eigenvalues --   -0.60137  -0.59398  -0.59370  -0.58922  -0.58666
 Alpha  occ. eigenvalues --   -0.58090  -0.58051  -0.57665  -0.57242  -0.57034
 Alpha  occ. eigenvalues --   -0.56756  -0.56472  -0.56009  -0.55834  -0.55661
 Alpha  occ. eigenvalues --   -0.55598  -0.55283  -0.54985  -0.54837  -0.54439
 Alpha  occ. eigenvalues --   -0.54245  -0.53895  -0.53697  -0.53540  -0.53392
 Alpha  occ. eigenvalues --   -0.53322  -0.52885  -0.52784  -0.52575  -0.52546
 Alpha  occ. eigenvalues --   -0.52301  -0.52218  -0.52174  -0.52073  -0.51603
 Alpha  occ. eigenvalues --   -0.51561  -0.51408  -0.51210  -0.50865  -0.50586
 Alpha  occ. eigenvalues --   -0.50254  -0.50149  -0.49880  -0.49738  -0.49636
 Alpha  occ. eigenvalues --   -0.49533  -0.49345  -0.49070  -0.48926  -0.48815
 Alpha  occ. eigenvalues --   -0.48810  -0.48726  -0.48527  -0.48180  -0.48102
 Alpha  occ. eigenvalues --   -0.48031  -0.47787  -0.47543  -0.47189  -0.47101
 Alpha  occ. eigenvalues --   -0.47010  -0.46908  -0.46622  -0.46452  -0.46355
 Alpha  occ. eigenvalues --   -0.46246  -0.46117  -0.45834  -0.45687  -0.45511
 Alpha  occ. eigenvalues --   -0.45453  -0.45017  -0.44932  -0.44893  -0.44565
 Alpha  occ. eigenvalues --   -0.44483  -0.44388  -0.44201  -0.44035  -0.43927
 Alpha  occ. eigenvalues --   -0.43799  -0.43773  -0.43677  -0.43578  -0.43422
 Alpha  occ. eigenvalues --   -0.43249  -0.43169  -0.43001  -0.42859  -0.42642
 Alpha  occ. eigenvalues --   -0.42554  -0.42305  -0.42257  -0.42120  -0.41968
 Alpha  occ. eigenvalues --   -0.41659  -0.41563  -0.41419  -0.41299  -0.41206
 Alpha  occ. eigenvalues --   -0.41036  -0.40859  -0.40764  -0.40539  -0.40337
 Alpha  occ. eigenvalues --   -0.40147  -0.40015  -0.39580  -0.39433  -0.39163
 Alpha  occ. eigenvalues --   -0.38754  -0.38312  -0.38064  -0.37787  -0.37614
 Alpha  occ. eigenvalues --   -0.37311  -0.37176  -0.36949  -0.36804  -0.36580
 Alpha  occ. eigenvalues --   -0.36485  -0.35898  -0.34697  -0.34310  -0.33899
 Alpha  occ. eigenvalues --   -0.33601  -0.33577  -0.32827  -0.31728  -0.31460
 Alpha  occ. eigenvalues --   -0.30763  -0.30589  -0.30459  -0.29844  -0.29751
 Alpha  occ. eigenvalues --   -0.29631  -0.28962  -0.28861  -0.24510  -0.23686
 Alpha  occ. eigenvalues --   -0.21580  -0.20756
 Alpha virt. eigenvalues --   -0.09232  -0.08416  -0.02269  -0.01368  -0.00604
 Alpha virt. eigenvalues --    0.00525   0.01774   0.02530   0.02663   0.03596
 Alpha virt. eigenvalues --    0.04185   0.04462   0.05022   0.05448   0.05550

 Mulliken charges:
               1
     1  Mg   0.833906
     2  C   -0.004521
     3  C   -0.094884
     4  C   -0.035057
     5  C   -0.062071
     6  N   -0.256846
     7  C   -0.053158
     8  C   -0.013250
     9  C   -0.085944
    10  C    0.042437
    11  C    0.104492
    12  C    0.050563
    13  C   -0.071556
    14  H    0.034447
    15  N   -0.439752
    16  C    0.160946
    17  C   -0.176003
    18  C   -0.016080
    19  C    0.146523
    20  C    0.113259
    21  C   -0.026394
    22  O   -0.238914
    23  C    0.075542
    24  N   -0.339846
    25  C    0.038620
    26  C   -0.029442
    27  C   -0.025598
    28  C    0.077581
    29  C    0.075620
    30  C    0.041348
    31  C   -0.018915
    32  N   -0.309918
    33  C    0.081357
    34  C   -0.168187
    35  C    0.008575
    36  C    0.084462
    37  C    0.127039
    38  C    0.046788
    39  O   -0.186881
    40  C   -0.005864
    41  C    0.213481
    42  O   -0.258561
    43  O   -0.303990
    44  C    0.156729
    45  H   -0.017725
    46  H   -0.014272
    47  H   -0.039892
    48  H    0.002232
    49  H   -0.004416
    50  H    0.026081
    51  H    0.017650
    52  H    0.017573
    53  H    0.008038
    54  H    0.042940
    55  H    0.020513
    56  H    0.018610
    57  H    0.005644
    58  H    0.028950
    59  H    0.035142
    60  H    0.036599
    61  H    0.040787
    62  H    0.028296
    63  H    0.024153
    64  H    0.009644
    65  H    0.025135
    66  H    0.011841
    67  H    0.004689
    68  H    0.006631
    69  H    0.002403
    70  H    0.018561
    71  H    0.021883
    72  H    0.031731
    73  H    0.048616
    74  H    0.010399
    75  H    0.046972
    76  H    0.036163
    77  H    0.044987
    78  H    0.045970
    79  H    0.053407
    80  Mg   0.838082
    81  C   -0.016906
    82  C   -0.089166
    83  C   -0.047339
    84  C   -0.065145
    85  N   -0.254966
    86  C   -0.048356
    87  C   -0.015196
    88  C   -0.091297
    89  C    0.046925
    90  C    0.115760
    91  C    0.062929
    92  C   -0.076603
    93  H    0.032797
    94  N   -0.423236
    95  C    0.164263
    96  C   -0.186516
    97  C   -0.007126
    98  C    0.149777
    99  C    0.105289
   100  C    0.030375
   101  O   -0.249909
   102  C    0.034700
   103  N   -0.349924
   104  C    0.036992
   105  C   -0.017939
   106  C   -0.034839
   107  C    0.088684
   108  C    0.068408
   109  C    0.035057
   110  C   -0.007514
   111  N   -0.323962
   112  C    0.078201
   113  C   -0.163671
   114  C    0.002234
   115  C    0.096075
   116  C    0.131512
   117  C    0.042030
   118  O   -0.189023
   119  C    0.001035
   120  C    0.211052
   121  O   -0.251681
   122  O   -0.305298
   123  C    0.152418
   124  H   -0.017314
   125  H   -0.015781
   126  H   -0.041488
   127  H   -0.000816
   128  H   -0.007961
   129  H    0.020971
   130  H    0.023644
   131  H    0.020294
   132  H    0.012685
   133  H    0.036808
   134  H    0.020719
   135  H    0.018020
   136  H    0.002735
   137  H    0.050565
   138  H    0.029401
   139  H    0.045279
   140  H    0.058811
   141  H    0.028211
   142  H    0.013888
   143  H    0.011596
   144  H    0.023590
   145  H    0.017234
   146  H    0.003662
   147  H    0.005152
   148  H    0.003276
   149  H    0.010729
   150  H    0.017251
   151  H    0.030632
   152  H    0.045165
   153  H    0.007668
   154  H    0.046936
   155  H    0.036039
   156  H    0.043334
   157  H    0.049094
   158  H    0.052978
 Sum of Mulliken charges =  -0.00000

 Dipole moment (field-independent basis, Debye):
    X=             -7.0866    Y=              2.3826    Z=             -3.7673  Tot=              8.3719
 Quadrupole moment (field-independent basis, Debye-Ang):
   XX=           -550.0405   YY=           -488.9952   ZZ=           -494.8180
   XY=            -15.9952   XZ=              9.4765   YZ=            -56.2986

 Normal termination of Gaussian 16 at Thu Sep  9 09:19:03 2021.
