 Gaussian 16, Revision A.03,
 Gaussian 16:  ES64L-G16RevA.03 25-Dec-2016

 -----------------------------------
 #p cam-b3lyp/Def2SVP td=(nstates=5)
 -----------------------------------

 --------------------------------
 TDDFT excited states in gaussian
 --------------------------------
 Symbolic Z-matrix:
 Charge =  0 Multiplicity = 1

                         Standard orientation:
 ---------------------------------------------------------------------
 Center     Atomic      Atomic             Coordinates (Angstroms)
 Number     Number       Type             X           Y           Z
 ---------------------------------------------------------------------
      1         12           0       -6.493259    0.794390   -0.438161
      2          6           0       -6.919777   -2.712204    0.139851
      3          6           0       -7.683912    1.308092    2.718027
      4          6           0       -6.555132    3.898570   -1.083807
      5          6           0       -6.429264    0.074539   -3.847469
      6          7           0       -7.179946   -0.605078    1.133652
      7          6           0       -7.236907   -1.927995    1.251197
      8          6           0       -7.592866   -2.405574    2.690845
      9          6           0       -8.345422   -1.099558    3.210442
     10          6           0       -7.672407   -0.063811    2.327151
     11          6           0       -9.841664   -1.100083    2.914199
     12          6           0       -6.318620   -2.711638    3.547789
     13          6           0       -6.573310   -3.487866    4.843148
     14          1           0       -5.581902   -4.456842    5.285351
     15          7           0       -6.569270    2.353563    0.772646
     16          6           0       -7.072708    2.378635    2.030107
     17          6           0       -6.898893    3.766109    2.511133
     18          6           0       -6.427220    4.589847    1.363494
     19          6           0       -6.524684    3.640224    0.284563
     20          6           0       -7.125205    4.178344    3.933312
     21          6           0       -5.972373    6.010879    1.254345
     22          8           0       -5.826903    6.593696    0.125745
     23          6           0       -5.784185    6.739604    2.521857
     24          7           0       -6.712362    1.871618   -2.212762
     25          6           0       -6.644385    3.207387   -2.222027
     26          6           0       -6.544136    3.739314   -3.620935
     27          6           0       -6.312045    2.469665   -4.561082
     28          6           0       -6.406371    1.359315   -3.485677
     29          6           0       -7.758484    4.531829   -4.124215
     30          6           0       -5.069236    2.497195   -5.485791
     31          6           0       -3.808469    2.432659   -4.653085
     32          7           0       -6.466849   -0.999147   -1.660278
     33          6           0       -6.463477   -1.064912   -3.061113
     34          6           0       -6.555178   -2.490350   -3.426879
     35          6           0       -6.622669   -3.158022   -2.205607
     36          6           0       -6.602537   -2.208066   -1.144725
     37          6           0       -6.625826   -3.008270   -4.750209
     38          6           0       -6.731938   -4.451454   -1.550664
     39          8           0       -6.695943   -5.622288   -1.931905
     40          6           0       -7.051432   -4.207467   -0.009813
     41          6           0       -6.122164   -5.078774    0.790558
     42          8           0       -4.892606   -4.865462    0.797690
     43          8           0       -6.842005   -5.868921    1.601753
     44          6           0       -5.979274   -6.738422    2.445445
     45          1           0       -8.261236    1.601684    3.596913
     46          1           0       -6.466191    4.953792   -1.350328
     47          1           0       -6.329465   -0.231585   -4.890436
     48          1           0       -8.264339   -3.263388    2.732116
     49          1           0       -8.132950   -0.897965    4.260175
     50          1           0      -10.121848   -1.940702    2.279551
     51          1           0      -10.037829   -0.156454    2.404713
     52          1           0      -10.419498   -1.067474    3.838224
     53          1           0       -5.932134   -1.780602    3.962349
     54          1           0       -5.571072   -3.237892    2.953184
     55          1           0       -7.570220   -3.929416    4.853762
     56          1           0       -6.582574   -2.778124    5.670421
     57          1           0       -7.624865    3.395488    4.502541
     58          1           0       -7.840343    5.000540    3.916545
     59          1           0       -6.204151    4.502080    4.418274
     60          1           0       -6.724220    6.750122    3.073918
     61          1           0       -5.371788    7.711122    2.251796
     62          1           0       -5.071402    6.193629    3.140567
     63          1           0       -5.697987    4.417784   -3.721620
     64          1           0       -7.147214    2.307458   -5.242885
     65          1           0       -7.515711    5.542099   -4.454550
     66          1           0       -8.503034    4.548788   -3.328823
     67          1           0       -8.313867    4.053903   -4.930784
     68          1           0       -5.035197    3.430046   -6.047553
     69          1           0       -5.048509    1.676943   -6.203432
     70          1           0       -3.653208    3.471904   -4.365516
     71          1           0       -2.975093    2.064769   -5.252545
     72          1           0       -3.964641    1.861179   -3.737931
     73          1           0       -5.959722   -3.870591   -4.776239
     74          1           0       -6.332458   -2.258797   -5.484939
     75          1           0       -7.684104   -3.261487   -4.811717
     76          1           0       -8.096344   -4.477237    0.140200
     77          1           0       -6.290022   -7.768060    2.267917
     78          1           0       -6.054594   -6.355524    3.463345
     79          1           0       -4.926508   -6.790019    2.165514
     80         12           0        6.656158    0.180677    0.949374
     81          6           0        6.797132   -0.375973   -2.593129
     82          6           0        5.591452   -3.044626    1.263060
     83          6           0        6.090626    0.770176    4.015328
     84          6           0        6.616365    3.598755    0.270516
     85          7           0        6.282070   -1.406026   -0.545517
     86          6           0        6.429210   -1.521326   -1.856769
     87          6           0        6.245433   -2.963697   -2.400253
     88          6           0        5.328902   -3.550635   -1.219431
     89          6           0        5.781926   -2.637932   -0.081713
     90          6           0        3.842353   -3.330424   -1.445351
     91          6           0        7.605362   -3.738508   -2.511000
     92          6           0        7.542275   -5.035921   -3.320015
     93          1           0        8.699306   -5.408516   -4.129282
     94          7           0        6.421294   -1.066724    2.474955
     95          6           0        6.002719   -2.348572    2.420947
     96          6           0        5.979420   -2.823197    3.813197
     97          6           0        6.260147   -1.667344    4.707570
     98          6           0        6.247398   -0.581930    3.747455
     99          6           0        5.788074   -4.266795    4.177670
    100          6           0        6.488037   -1.555567    6.184652
    101          8           0        6.477902   -0.422479    6.783683
    102          6           0        6.630413   -2.818650    6.923455
    103          7           0        6.178468    1.918154    1.986347
    104          6           0        6.037071    1.908486    3.323451
    105          6           0        5.968691    3.312628    3.874909
    106          6           0        6.337939    4.273370    2.650897
    107          6           0        6.474718    3.217091    1.532429
    108          6           0        4.621137    3.731853    4.462036
    109          6           0        7.505581    5.274195    2.869173
    110          6           0        8.810706    4.523230    3.003588
    111          7           0        6.883081    1.420678   -0.805321
    112          6           0        6.806211    2.829216   -0.870161
    113          6           0        6.909414    3.205740   -2.294944
    114          6           0        7.016892    1.979134   -2.967537
    115          6           0        6.962753    0.912529   -2.030032
    116          6           0        6.848771    4.530631   -2.811754
    117          6           0        7.153147    1.343673   -4.258397
    118          8           0        7.335178    1.742364   -5.408022
    119          6           0        6.889781   -0.214213   -4.085068
    120          6           0        7.985486   -0.953247   -4.803225
    121          8           0        9.162533   -0.877682   -4.408956
    122          8           0        7.436320   -1.794715   -5.698067
    123          6           0        8.483019   -2.558519   -6.428028
    124          1           0        5.037205   -3.964103    1.453458
    125          1           0        6.003299    1.034532    5.071728
    126          1           0        6.710556    4.648726   -0.014734
    127          1           0        5.720740   -3.029417   -3.345845
    128          1           0        5.580373   -4.585320   -1.001378
    129          1           0        3.653665   -2.709092   -2.308180
    130          1           0        3.476044   -2.851404   -0.546786
    131          1           0        3.324020   -4.291576   -1.507225
    132          1           0        7.867608   -4.144221   -1.525421
    133          1           0        8.374565   -3.103568   -2.905727
    134          1           0        6.620782   -5.109216   -3.910291
    135          1           0        7.482336   -5.876244   -2.624105
    136          1           0        5.440749   -4.855646    3.319750
    137          1           0        4.957382   -4.309237    4.890422
    138          1           0        6.674337   -4.705195    4.641346
    139          1           0        5.736789   -3.422053    6.782721
    140          1           0        6.875469   -2.531926    7.947960
    141          1           0        7.463470   -3.384518    6.491681
    142          1           0        6.696516    3.453879    4.664477
    143          1           0        5.493145    4.919783    2.371058
    144          1           0        4.688354    4.064530    5.515073
    145          1           0        3.934823    2.900685    4.368912
    146          1           0        4.104848    4.519980    3.916610
    147          1           0        7.365000    5.822040    3.804197
    148          1           0        7.598654    6.008877    2.076350
    149          1           0        8.818170    4.227986    4.057089
    150          1           0        9.652064    5.172406    2.769643
    151          1           0        8.800260    3.605513    2.404139
    152          1           0        7.627104    4.609228   -3.559101
    153          1           0        6.976269    5.270715   -2.024487
    154          1           0        5.834089    4.534956   -3.218786
    155          1           0        5.906865   -0.429126   -4.506096
    156          1           0        8.318115   -2.385881   -7.496053
    157          1           0        8.398415   -3.600865   -6.067307
    158          1           0        9.510506   -2.232282   -6.317221
 ---------------------------------------------------------------------

 SCF Done:  E(RCAM-B3LYP) =  -4069.81204317     A.U. after   19 cycles

 Excitation energies and oscillator strengths:

 Excited State   1:      Singlet-A      1.6747 eV  740.33 nm  f=0.3702  <S**2>=0.000
     310 -> 316        0.17232
     312 -> 314        0.68370
     310 <- 316        0.10389
 This state for optimization and/or second-order correction.
 Total Energy, E(TD-HF/TD-DFT) =  -4069.75049816
 Copying the excited state density for this state as the 1-particle RhoCI density.

 Excited State   2:      Singlet-A      1.6792 eV  738.36 nm  f=0.3615  <S**2>=0.000
     309 -> 315        0.17487
     311 -> 313        0.68336
     309 <- 315        0.10482

 Excited State   3:      Singlet-A      2.1855 eV  567.31 nm  f=0.1015  <S**2>=0.000
     310 -> 314        0.64207
     312 -> 316       -0.27192

 Excited State   4:      Singlet-A      2.1928 eV  565.42 nm  f=0.0975  <S**2>=0.000
     309 -> 313        0.64017
     311 -> 315       -0.27807

 Excited State   5:      Singlet-A      2.6458 eV  468.61 nm  f=0.0000  <S**2>=0.000
     312 -> 313        0.70710

 The electronic state is 1-A.
 Alpha  occ. eigenvalues --  -46.87861 -46.87547 -19.26417 -19.26239 -19.19155
 Alpha  occ. eigenvalues --  -19.19053 -19.18869 -19.18635 -19.18258 -19.17947
 Alpha  occ. eigenvalues --  -14.42515 -14.42371 -14.41508 -14.41252 -14.39466
 Alpha  occ. eigenvalues --  -14.39241 -14.38655 -14.38489 -10.39208 -10.38982
 Alpha  occ. eigenvalues --  -10.35501 -10.35314 -10.34480 -10.34123 -10.31828
 Alpha  occ. eigenvalues --  -10.31649 -10.31475 -10.31173 -10.30977 -10.30895
 Alpha  occ. eigenvalues --  -10.30638 -10.30572 -10.30295 -10.30257 -10.30245
 Alpha  occ. eigenvalues --  -10.30039 -10.29979 -10.29798 -10.29696 -10.29326
 Alpha  occ. eigenvalues --  -10.29314 -10.29297 -10.28827 -10.28636 -10.28557
 Alpha  occ. eigenvalues --  -10.28503 -10.28434 -10.28290 -10.28187 -10.27950
 Alpha  occ. eigenvalues --  -10.27892 -10.27860 -10.27790 -10.27647 -10.27535
 Alpha  occ. eigenvalues --  -10.27533 -10.27532 -10.27485 -10.27474 -10.27444
 Alpha  occ. eigenvalues --  -10.27367 -10.27363 -10.27349 -10.27309 -10.27252
 Alpha  occ. eigenvalues --  -10.26937 -10.26797 -10.26547 -10.26458 -10.26348
 Alpha  occ. eigenvalues --  -10.26298 -10.26199 -10.26077 -10.26076 -10.25915
 Alpha  occ. eigenvalues --  -10.25829 -10.25758 -10.25756 -10.25464 -10.25353
 Alpha  occ. eigenvalues --  -10.24904 -10.24847 -10.24764 -10.24699 -10.24673
 Alpha  occ. eigenvalues --  -10.24588  -3.16604  -3.16297  -1.91485  -1.91179
 Alpha  occ. eigenvalues --   -1.91072  -1.90914  -1.90767  -1.90605  -1.16765
 Alpha  occ. eigenvalues --   -1.16533  -1.08721  -1.08555  -1.07269  -1.06889
 Alpha  occ. eigenvalues --   -1.06838  -1.06775  -1.04648  -1.04369  -1.03821
 Alpha  occ. eigenvalues --   -1.03550  -1.03298  -1.02932  -1.02474  -1.02001
 Alpha  occ. eigenvalues --   -0.92047  -0.91872  -0.89568  -0.89401  -0.89261
 Alpha  occ. eigenvalues --   -0.88984  -0.88332  -0.88136  -0.87940  -0.87738
 Alpha  occ. eigenvalues --   -0.87688  -0.87561  -0.87332  -0.87020  -0.85055
 Alpha  occ. eigenvalues --   -0.84858  -0.83981  -0.83798  -0.83017  -0.82847
 Alpha  occ. eigenvalues --   -0.82721  -0.82524  -0.81679  -0.81485  -0.80673
 Alpha  occ. eigenvalues --   -0.80331  -0.78859  -0.78529  -0.77280  -0.77023
 Alpha  occ. eigenvalues --   -0.77011  -0.76775  -0.76002  -0.75696  -0.74950
 Alpha  occ. eigenvalues --   -0.74714  -0.72837  -0.72588  -0.71736  -0.71460
 Alpha  occ. eigenvalues --   -0.69941  -0.69679  -0.68944  -0.68693  -0.67709
 Alpha  occ. eigenvalues --   -0.67495  -0.67294  -0.67075  -0.65362  -0.65135
 Alpha  occ. eigenvalues --   -0.64928  -0.64691  -0.64658  -0.64535  -0.64320
 Alpha  occ. eigenvalues --   -0.64112  -0.62395  -0.62171  -0.60498  -0.60243
 Alpha  occ. eigenvalues --   -0.59875  -0.59650  -0.59053  -0.58883  -0.58573
 Alpha  occ. eigenvalues --   -0.58318  -0.57679  -0.57444  -0.57371  -0.57142
 Alpha  occ. eigenvalues --   -0.56380  -0.56093  -0.56083  -0.55772  -0.55586
 Alpha  occ. eigenvalues --   -0.55404  -0.55345  -0.55158  -0.54600  -0.54396
 Alpha  occ. eigenvalues --   -0.53970  -0.53754  -0.53362  -0.53294  -0.53125
 Alpha  occ. eigenvalues --   -0.53025  -0.52998  -0.52818  -0.52785  -0.52553
 Alpha  occ. eigenvalues --   -0.52473  -0.52327  -0.51988  -0.51786  -0.51693
 Alpha  occ. eigenvalues --   -0.51527  -0.51267  -0.51093  -0.50623  -0.50379
 Alpha  occ. eigenvalues --   -0.50074  -0.49977  -0.49860  -0.49773  -0.49585
 Alpha  occ. eigenvalues --   -0.49368  -0.49289  -0.49171  -0.49081  -0.48959
 Alpha  occ. eigenvalues --   -0.48675  -0.48520  -0.48509  -0.48431  -0.48293
 Alpha  occ. eigenvalues --   -0.48241  -0.47760  -0.47477  -0.47359  -0.47014
 Alpha  occ. eigenvalues --   -0.46858  -0.46631  -0.46597  -0.46424  -0.46409
 Alpha  occ. eigenvalues --   -0.46231  -0.46167  -0.45989  -0.45908  -0.45711
 Alpha  occ. eigenvalues --   -0.45249  -0.45123  -0.44659  -0.44566  -0.44406
 Alpha  occ. eigenvalues --   -0.44341  -0.44205  -0.44156  -0.44093  -0.43993
 Alpha  occ. eigenvalues --   -0.43983  -0.43832  -0.43585  -0.43449  -0.43444
 Alpha  occ. eigenvalues --   -0.43263  -0.43095  -0.42823  -0.42808  -0.42792
 Alpha  occ. eigenvalues --   -0.42705  -0.42466  -0.42066  -0.41862  -0.41774
 Alpha  occ. eigenvalues --   -0.41605  -0.41557  -0.41330  -0.41206  -0.40933
 Alpha  occ. eigenvalues --   -0.40881  -0.40859  -0.40620  -0.40619  -0.40574
 Alpha  occ. eigenvalues --   -0.40390  -0.40315  -0.40089  -0.39472  -0.39350
 Alpha  occ. eigenvalues --   -0.38517  -0.38257  -0.37829  -0.37519  -0.37372
 Alpha  occ. eigenvalues --   -0.37340  -0.37164  -0.37066  -0.36818  -0.36668
 Alpha  occ. eigenvalues --   -0.36269  -0.36113  -0.34352  -0.34140  -0.33893
 Alpha  occ. eigenvalues --   -0.33754  -0.33255  -0.33064  -0.31398  -0.31193
 Alpha  occ. eigenvalues --   -0.31101  -0.30860  -0.30119  -0.29851  -0.29513
 Alpha  occ. eigenvalues --   -0.29392  -0.29223  -0.29104  -0.24146  -0.23922
 Alpha  occ. eigenvalues --   -0.21191  -0.21004
 Alpha virt. eigenvalues --   -0.08839  -0.08682  -0.01810  -0.01576  -0.00121
 Alpha virt. eigenvalues --    0.00079   0.02126   0.02309   0.03051   0.03328
 Alpha virt. eigenvalues --    0.04648   0.04864   0.04976   0.05275   0.06089

 Mulliken charges:
               1
     1  Mg   0.838641
     2  C   -0.003255
     3  C   -0.094098
     4  C   -0.045799
     5  C   -0.063833
     6  N   -0.256819
     7  C   -0.052517
     8  C   -0.014057
     9  C   -0.087022
    10  C    0.046325
    11  C    0.104769
    12  C    0.053477
    13  C   -0.071672
    14  H    0.035411
    15  N   -0.433198
    16  C    0.168502
    17  C   -0.177042
    18  C   -0.003879
    19  C    0.148781
    20  C    0.110118
    21  C    0.012319
    22  O   -0.249391
    23  C    0.062449
    24  N   -0.341163
    25  C    0.041362
    26  C   -0.028266
    27  C   -0.024024
    28  C    0.074813
    29  C    0.076109
    30  C    0.035085
    31  C   -0.004605
    32  N   -0.310363
    33  C    0.080242
    34  C   -0.169914
    35  C    0.008154
    36  C    0.082788
    37  C    0.127394
    38  C    0.045755
    39  O   -0.188955
    40  C   -0.005212
    41  C    0.212869
    42  O   -0.257906
    43  O   -0.304507
    44  C    0.157974
    45  H   -0.017455
    46  H   -0.016590
    47  H   -0.041325
    48  H    0.000878
    49  H   -0.003938
    50  H    0.025470
    51  H    0.016589
    52  H    0.016798
    53  H    0.011390
    54  H    0.043567
    55  H    0.018017
    56  H    0.018285
    57  H    0.005972
    58  H    0.027005
    59  H    0.039742
    60  H    0.037475
    61  H    0.035750
    62  H    0.031480
    63  H    0.016804
    64  H    0.009579
    65  H    0.023476
    66  H    0.012490
    67  H    0.004905
    68  H    0.006818
    69  H    0.004809
    70  H    0.009003
    71  H    0.018685
    72  H    0.028455
    73  H    0.047064
    74  H    0.009336
    75  H    0.046119
    76  H    0.035279
    77  H    0.042918
    78  H    0.046587
    79  H    0.052724
    80  Mg   0.837960
    81  C   -0.016792
    82  C   -0.087383
    83  C   -0.045728
    84  C   -0.064979
    85  N   -0.254658
    86  C   -0.049510
    87  C   -0.015174
    88  C   -0.090474
    89  C    0.045666
    90  C    0.114076
    91  C    0.062460
    92  C   -0.077854
    93  H    0.034329
    94  N   -0.423525
    95  C    0.162834
    96  C   -0.174228
    97  C   -0.008157
    98  C    0.152334
    99  C    0.099256
   100  C    0.015403
   101  O   -0.253722
   102  C    0.061266
   103  N   -0.350049
   104  C    0.037595
   105  C   -0.019762
   106  C   -0.034827
   107  C    0.088911
   108  C    0.073800
   109  C    0.034825
   110  C   -0.007599
   111  N   -0.324069
   112  C    0.078432
   113  C   -0.163275
   114  C    0.002236
   115  C    0.096143
   116  C    0.131506
   117  C    0.042222
   118  O   -0.188221
   119  C    0.001011
   120  C    0.211239
   121  O   -0.251193
   122  O   -0.305495
   123  C    0.152123
   124  H   -0.018436
   125  H   -0.016099
   126  H   -0.040719
   127  H   -0.000341
   128  H   -0.004185
   129  H    0.022438
   130  H    0.015236
   131  H    0.018490
   132  H    0.013730
   133  H    0.037304
   134  H    0.021343
   135  H    0.019776
   136  H    0.009454
   137  H    0.026222
   138  H    0.039475
   139  H    0.038256
   140  H    0.035892
   141  H    0.033925
   142  H    0.014094
   143  H    0.012354
   144  H    0.024446
   145  H    0.011655
   146  H    0.005445
   147  H    0.005831
   148  H    0.003600
   149  H    0.010722
   150  H    0.017725
   151  H    0.030329
   152  H    0.045746
   153  H    0.008315
   154  H    0.046950
   155  H    0.035292
   156  H    0.043698
   157  H    0.049743
   158  H    0.053342
 Sum of Mulliken charges =  -0.00000

 Dipole moment (field-independent basis, Debye):
    X=             -4.7085    Y=             -1.1323    Z=              4.9520  Tot=              6.9263
 Quadrupole moment (field-independent basis, Debye-Ang):
   XX=           -519.0163   YY=           -499.3299   ZZ=           -499.9913
   XY=            -34.8173   XZ=            -10.4591   YZ=              0.1807

 Normal termination of Gaussian 16 at Sat Sep  4 11:52:36 2021.
