 Gaussian 16, Revision A.03,
 Gaussian 16:  ES64L-G16RevA.03 25-Dec-2016

 -----------------------------------
 #p cam-b3lyp/Def2SVP td=(nstates=5)
 -----------------------------------

 --------------------------------
 TDDFT excited states in gaussian
 --------------------------------
 Symbolic Z-matrix:
 Charge =  0 Multiplicity = 1

                         Standard orientation:
 ---------------------------------------------------------------------
 Center     Atomic      Atomic             Coordinates (Angstroms)
 Number     Number       Type             X           Y           Z
 ---------------------------------------------------------------------
      1         12           0        8.015468   -0.480927   -0.163962
      2          6           0        8.070124    2.998444   -1.002537
      3          6           0        8.940193    0.418458    2.995002
      4          6           0        8.415556   -3.560457    0.478723
      5          6           0        8.213514   -1.155452   -3.577385
      6          7           0        8.421175    1.490536    0.757657
      7          6           0        8.348342    2.751688    0.343699
      8          6           0        8.521069    3.789944    1.492421
      9          6           0        9.334086    2.888663    2.526198
     10          6           0        8.843686    1.518643    2.092057
     11          6           0       10.845742    2.953139    2.333218
     12          6           0        7.148568    4.249989    2.089356
     13          6           0        7.208027    5.492925    2.982065
     14          1           0        6.096395    6.431354    2.950863
     15          7           0        8.114302   -1.425938    1.568099
     16          6           0        8.495512   -0.900052    2.756968
     17          6           0        8.401066   -2.001621    3.738958
     18          6           0        8.116615   -3.256544    2.989058
     19          6           0        8.231570   -2.796441    1.628739
     20          6           0        8.526347   -1.798637    5.217759
     21          6           0        7.802932   -4.651700    3.428688
     22          8           0        7.818561   -5.640067    2.617849
     23          6           0        7.560296   -4.847575    4.869453
     24          7           0        8.498389   -2.128348   -1.351576
     25          6           0        8.551103   -3.360492   -0.833865
     26          6           0        8.632849   -4.401969   -1.910239
     27          6           0        8.379256   -3.635005   -3.287632
     28          6           0        8.270921   -2.191453   -2.737460
     29          6           0        9.955593   -5.176221   -1.993269
     30          6           0        7.237924   -4.168171   -4.189582
     31          6           0        5.902659   -3.936599   -3.518359
     32          7           0        7.945972    0.679751   -1.996731
     33          6           0        8.070602    0.195195   -3.306825
     34          6           0        8.069237    1.366402   -4.202560
     35          6           0        7.959872    2.458966   -3.344546
     36          6           0        7.923337    2.000803   -1.996568
     37          6           0        8.219490    1.333923   -5.617058
     38          6           0        7.890184    3.908225   -3.251545
     39          8           0        7.786422    4.825519   -4.067203
     40          6           0        8.081491    4.322185   -1.725810
     41          6           0        7.005963    5.317969   -1.386753
     42          8           0        5.805317    4.978682   -1.360312
     43          8           0        7.571596    6.441195   -0.918815
     44          6           0        6.558054    7.460123   -0.535838
     45          1           0        9.454793    0.560777    3.947301
     46          1           0        8.447025   -4.638739    0.648295
     47          1           0        8.186899   -1.292914   -4.659905
     48          1           0        9.106272    4.670080    1.225359
     49          1           0        9.041135    3.086880    3.557028
     50          1           0       11.109130    3.508129    1.432922
     51          1           0       11.173124    1.916543    2.250860
     52          1           0       11.333240    3.351500    3.223404
     53          1           0        6.808888    3.514161    2.818214
     54          1           0        6.417279    4.410309    1.296361
     55          1           0        8.155955    6.019788    2.869123
     56          1           0        7.201516    5.166990    4.022221
     57          1           0        8.897459   -0.802434    5.455246
     58          1           0        9.310332   -2.470744    5.566112
     59          1           0        7.595759   -2.016245    5.742149
     60          1           0        8.440455   -4.530188    5.429038
     61          1           0        7.263954   -5.889472    4.985563
     62          1           0        6.745788   -4.193692    5.182443
     63          1           0        7.864140   -5.162240   -1.777949
     64          1           0        9.257921   -3.651730   -3.932878
     65          1           0        9.836636   -6.256639   -1.908104
     66          1           0       10.619270   -4.793582   -1.218407
     67          1           0       10.540615   -4.986455   -2.892799
     68          1           0        7.341110   -5.242783   -4.336236
     69          1           0        7.212732   -3.700050   -5.173695
     70          1           0        5.814011   -4.792952   -2.850802
     71          1           0        5.100877   -3.933125   -4.257510
     72          1           0        5.919046   -3.040235   -2.898078
     73          1           0        7.484626    2.031931   -6.017968
     74          1           0        8.065733    0.328612   -6.008609
     75          1           0        9.251961    1.668043   -5.718174
     76          1           0        9.079023    4.752007   -1.640340
     77          1           0        6.791199    8.369062   -1.090552
     78          1           0        6.569648    7.514772    0.552869
     79          1           0        5.536467    7.272500   -0.868246
     80         12           0       -7.847598   -1.055216    0.254205
     81          6           0       -9.281513    2.197964   -0.235514
     82          6           0       -5.760423    0.373411    2.542720
     83          6           0       -6.266893   -3.803447    0.380726
     84          6           0       -9.218447   -1.969102   -2.816832
     85          7           0       -7.644160    1.026055    0.974765
     86          6           0       -8.284869    2.165606    0.762035
     87          6           0       -7.887516    3.316370    1.725054
     88          6           0       -6.421909    2.797832    2.127565
     89          6           0       -6.622612    1.300319    1.904297
     90          6           0       -5.332768    3.279722    1.183694
     91          6           0       -8.830527    3.401182    2.976274
     92          6           0       -8.694781    4.684941    3.798028
     93          1           0       -9.892937    5.245133    4.416960
     94          7           0       -6.596604   -1.755209    1.626641
     95          6           0       -5.846448   -1.035064    2.486828
     96          6           0       -5.083312   -2.016091    3.273828
     97          6           0       -5.320675   -3.367126    2.696696
     98          6           0       -6.070477   -3.017492    1.506885
     99          6           0       -4.295535   -1.643057    4.495994
    100          6           0       -4.925776   -4.744718    3.135426
    101          8           0       -5.034613   -5.756609    2.356289
    102          6           0       -4.320966   -4.859373    4.470556
    103          7           0       -7.573801   -2.588951   -1.122393
    104          6           0       -6.886169   -3.697082   -0.795077
    105          6           0       -7.054497   -4.772559   -1.841688
    106          6           0       -8.197947   -4.240076   -2.824836
    107          6           0       -8.440739   -2.848485   -2.200389
    108          6           0       -5.804387   -5.113097   -2.652643
    109          6           0       -9.419991   -5.171377   -3.052740
    110          6           0      -10.220889   -5.293573   -1.776409
    111          7           0       -9.186271   -0.153013   -1.181780
    112          6           0       -9.609258   -0.698630   -2.413634
    113          6           0      -10.421610    0.332937   -3.090674
    114          6           0      -10.395556    1.424079   -2.209082
    115          6           0       -9.604916    1.102899   -1.072760
    116          6           0      -11.021929    0.208402   -4.375286
    117          6           0      -10.848347    2.778350   -1.986277
    118          8           0      -11.618326    3.543268   -2.565719
    119          6           0      -10.043087    3.384692   -0.757340
    120          6           0      -11.031082    4.044085    0.165458
    121          8           0      -11.884187    3.367203    0.765997
    122          8           0      -10.669808    5.326359    0.354243
    123          6           0      -11.613251    6.019518    1.271436
    124          1           0       -4.910804    0.758832    3.107065
    125          1           0       -5.833174   -4.805219    0.423383
    126          1           0       -9.761919   -2.211456   -3.732574
    127          1           0       -7.822016    4.293778    1.262276
    128          1           0       -6.204031    3.001699    3.172705
    129          1           0       -5.741000    3.795995    0.327562
    130          1           0       -4.800095    2.391148    0.871071
    131          1           0       -4.606475    3.891014    1.726957
    132          1           0       -8.503124    2.665284    3.721932
    133          1           0       -9.855140    3.261177    2.691325
    134          1           0       -8.141258    5.463088    3.258541
    135          1           0       -8.075310    4.473076    4.672890
    136          1           0       -4.171872   -0.556187    4.578603
    137          1           0       -3.278311   -2.021748    4.348652
    138          1           0       -4.705447   -2.077614    5.410210
    139          1           0       -3.427733   -4.240933    4.516690
    140          1           0       -4.189012   -5.929662    4.640658
    141          1           0       -5.022566   -4.454444    5.208394
    142          1           0       -7.382314   -5.701798   -1.392081
    143          1           0       -7.813422   -4.065983   -3.840551
    144          1           0       -5.525075   -6.182135   -2.595838
    145          1           0       -4.991803   -4.488800   -2.305532
    146          1           0       -5.856129   -4.858333   -3.709825
    147          1           0       -9.085239   -6.180093   -3.306875
    148          1           0      -10.073882   -4.838206   -3.851756
    149          1           0       -9.685543   -6.070589   -1.222581
    150          1           0      -11.243222   -5.596685   -1.993216
    151          1           0      -10.165261   -4.370982   -1.187018
    152          1           0      -12.021327    0.614424   -4.292604
    153          1           0      -11.039061   -0.827549   -4.707398
    154          1           0      -10.337585    0.818974   -4.970390
    155          1           0       -9.319826    4.095767   -1.158393
    156          1           0      -11.981567    6.903846    0.742309
    157          1           0      -11.048499    6.191178    2.207033
    158          1           0      -12.541674    5.514379    1.510881
 ---------------------------------------------------------------------

 SCF Done:  E(RCAM-B3LYP) =  -4069.81174474     A.U. after   19 cycles

 Excitation energies and oscillator strengths:

 Excited State   1:      Singlet-A      1.6704 eV  742.24 nm  f=0.0951  <S**2>=0.000
     309 -> 315       -0.10175
     310 -> 316        0.13938
     311 -> 313       -0.40322
     312 -> 314        0.55541
 This state for optimization and/or second-order correction.
 Total Energy, E(TD-HF/TD-DFT) =  -4069.75035836
 Copying the excited state density for this state as the 1-particle RhoCI density.

 Excited State   2:      Singlet-A      1.6843 eV  736.10 nm  f=0.6698  <S**2>=0.000
     309 -> 315        0.14316
     310 -> 316        0.10323
     311 -> 313        0.55462
     312 -> 314        0.40272

 Excited State   3:      Singlet-A      2.1853 eV  567.35 nm  f=0.0576  <S**2>=0.000
     309 -> 313       -0.13953
     310 -> 314        0.62750
     312 -> 316       -0.26598

 Excited State   4:      Singlet-A      2.1930 eV  565.36 nm  f=0.1356  <S**2>=0.000
     309 -> 313        0.62544
     310 -> 314        0.13843
     311 -> 315       -0.27203

 Excited State   5:      Singlet-A      2.7482 eV  451.15 nm  f=0.0000  <S**2>=0.000
     312 -> 313        0.70706

 The electronic state is 1-A.
 Alpha  occ. eigenvalues --  -46.87885 -46.87592 -19.26393 -19.26293 -19.19131
 Alpha  occ. eigenvalues --  -19.19104 -19.18896 -19.18658 -19.18257 -19.17986
 Alpha  occ. eigenvalues --  -14.42541 -14.42427 -14.41533 -14.41290 -14.39492
 Alpha  occ. eigenvalues --  -14.39284 -14.38675 -14.38532 -10.39188 -10.39032
 Alpha  occ. eigenvalues --  -10.35530 -10.35337 -10.34478 -10.34163 -10.31794
 Alpha  occ. eigenvalues --  -10.31706 -10.31497 -10.31236 -10.31004 -10.30954
 Alpha  occ. eigenvalues --  -10.30659 -10.30592 -10.30331 -10.30293 -10.30288
 Alpha  occ. eigenvalues --  -10.30074 -10.29999 -10.29826 -10.29717 -10.29370
 Alpha  occ. eigenvalues --  -10.29341 -10.29338 -10.28857 -10.28678 -10.28647
 Alpha  occ. eigenvalues --  -10.28607 -10.28455 -10.28337 -10.28218 -10.28059
 Alpha  occ. eigenvalues --  -10.27934 -10.27880 -10.27817 -10.27672 -10.27598
 Alpha  occ. eigenvalues --  -10.27581 -10.27564 -10.27511 -10.27494 -10.27454
 Alpha  occ. eigenvalues --  -10.27421 -10.27415 -10.27404 -10.27310 -10.27252
 Alpha  occ. eigenvalues --  -10.26983 -10.26836 -10.26636 -10.26498 -10.26374
 Alpha  occ. eigenvalues --  -10.26325 -10.26236 -10.26101 -10.26083 -10.25916
 Alpha  occ. eigenvalues --  -10.25911 -10.25868 -10.25785 -10.25490 -10.25325
 Alpha  occ. eigenvalues --  -10.24920 -10.24870 -10.24806 -10.24737 -10.24681
 Alpha  occ. eigenvalues --  -10.24622  -3.16629  -3.16341  -1.91510  -1.91223
 Alpha  occ. eigenvalues --   -1.91097  -1.90939  -1.90812  -1.90649  -1.16742
 Alpha  occ. eigenvalues --   -1.16587  -1.08716  -1.08593  -1.07296  -1.06910
 Alpha  occ. eigenvalues --   -1.06888  -1.06752  -1.04673  -1.04425  -1.03846
 Alpha  occ. eigenvalues --   -1.03595  -1.03320  -1.02971  -1.02497  -1.02043
 Alpha  occ. eigenvalues --   -0.92062  -0.91919  -0.89594  -0.89430  -0.89291
 Alpha  occ. eigenvalues --   -0.89076  -0.88359  -0.88156  -0.87954  -0.87765
 Alpha  occ. eigenvalues --   -0.87727  -0.87616  -0.87364  -0.87064  -0.85083
 Alpha  occ. eigenvalues --   -0.84931  -0.84006  -0.83814  -0.83051  -0.82878
 Alpha  occ. eigenvalues --   -0.82744  -0.82587  -0.81682  -0.81535  -0.80689
 Alpha  occ. eigenvalues --   -0.80380  -0.78886  -0.78575  -0.77306  -0.77079
 Alpha  occ. eigenvalues --   -0.77030  -0.76833  -0.76018  -0.75768  -0.74973
 Alpha  occ. eigenvalues --   -0.74736  -0.72859  -0.72632  -0.71758  -0.71509
 Alpha  occ. eigenvalues --   -0.69972  -0.69697  -0.68970  -0.68761  -0.67729
 Alpha  occ. eigenvalues --   -0.67538  -0.67327  -0.67142  -0.65386  -0.65204
 Alpha  occ. eigenvalues --   -0.64943  -0.64711  -0.64704  -0.64589  -0.64345
 Alpha  occ. eigenvalues --   -0.64140  -0.62394  -0.62217  -0.60527  -0.60280
 Alpha  occ. eigenvalues --   -0.59902  -0.59725  -0.59073  -0.58926  -0.58591
 Alpha  occ. eigenvalues --   -0.58360  -0.57679  -0.57490  -0.57391  -0.57174
 Alpha  occ. eigenvalues --   -0.56398  -0.56141  -0.56082  -0.55827  -0.55609
 Alpha  occ. eigenvalues --   -0.55418  -0.55392  -0.55184  -0.54608  -0.54427
 Alpha  occ. eigenvalues --   -0.53999  -0.53840  -0.53385  -0.53318  -0.53165
 Alpha  occ. eigenvalues --   -0.53078  -0.53008  -0.52851  -0.52839  -0.52610
 Alpha  occ. eigenvalues --   -0.52502  -0.52344  -0.51995  -0.51819  -0.51719
 Alpha  occ. eigenvalues --   -0.51596  -0.51283  -0.51137  -0.50663  -0.50424
 Alpha  occ. eigenvalues --   -0.50105  -0.50007  -0.49913  -0.49804  -0.49609
 Alpha  occ. eigenvalues --   -0.49425  -0.49305  -0.49192  -0.49136  -0.49032
 Alpha  occ. eigenvalues --   -0.48685  -0.48538  -0.48532  -0.48491  -0.48311
 Alpha  occ. eigenvalues --   -0.48280  -0.47785  -0.47531  -0.47383  -0.47056
 Alpha  occ. eigenvalues --   -0.46882  -0.46658  -0.46644  -0.46486  -0.46444
 Alpha  occ. eigenvalues --   -0.46245  -0.46207  -0.46021  -0.45912  -0.45757
 Alpha  occ. eigenvalues --   -0.45274  -0.45142  -0.44668  -0.44597  -0.44450
 Alpha  occ. eigenvalues --   -0.44409  -0.44227  -0.44183  -0.44110  -0.44057
 Alpha  occ. eigenvalues --   -0.44019  -0.43880  -0.43588  -0.43492  -0.43476
 Alpha  occ. eigenvalues --   -0.43318  -0.43113  -0.42870  -0.42836  -0.42796
 Alpha  occ. eigenvalues --   -0.42730  -0.42492  -0.42091  -0.41903  -0.41791
 Alpha  occ. eigenvalues --   -0.41633  -0.41602  -0.41394  -0.41229  -0.40963
 Alpha  occ. eigenvalues --   -0.40916  -0.40913  -0.40663  -0.40646  -0.40635
 Alpha  occ. eigenvalues --   -0.40428  -0.40351  -0.40168  -0.39504  -0.39366
 Alpha  occ. eigenvalues --   -0.38546  -0.38285  -0.37860  -0.37593  -0.37399
 Alpha  occ. eigenvalues --   -0.37365  -0.37200  -0.37132  -0.36811  -0.36712
 Alpha  occ. eigenvalues --   -0.36282  -0.36152  -0.34374  -0.34186  -0.33877
 Alpha  occ. eigenvalues --   -0.33803  -0.33275  -0.33108  -0.31425  -0.31216
 Alpha  occ. eigenvalues --   -0.31123  -0.30905  -0.30117  -0.29890  -0.29537
 Alpha  occ. eigenvalues --   -0.29409  -0.29264  -0.29145  -0.24168  -0.23967
 Alpha  occ. eigenvalues --   -0.21215  -0.21049
 Alpha virt. eigenvalues --   -0.08862  -0.08725  -0.01835  -0.01616  -0.00147
 Alpha virt. eigenvalues --    0.00035   0.02115   0.02273   0.03017   0.03284
 Alpha virt. eigenvalues --    0.04620   0.04800   0.04992   0.05224   0.06059

 Mulliken charges:
               1
     1  Mg   0.838406
     2  C   -0.003165
     3  C   -0.094426
     4  C   -0.045728
     5  C   -0.063781
     6  N   -0.256764
     7  C   -0.052568
     8  C   -0.013957
     9  C   -0.086950
    10  C    0.046183
    11  C    0.104784
    12  C    0.053584
    13  C   -0.071610
    14  H    0.035483
    15  N   -0.433135
    16  C    0.168293
    17  C   -0.177353
    18  C   -0.003995
    19  C    0.148654
    20  C    0.110214
    21  C    0.012265
    22  O   -0.249240
    23  C    0.062550
    24  N   -0.341127
    25  C    0.041259
    26  C   -0.028256
    27  C   -0.024022
    28  C    0.074860
    29  C    0.076098
    30  C    0.035059
    31  C   -0.004535
    32  N   -0.310478
    33  C    0.080402
    34  C   -0.169601
    35  C    0.008399
    36  C    0.082937
    37  C    0.127301
    38  C    0.046129
    39  O   -0.188299
    40  C   -0.005342
    41  C    0.212953
    42  O   -0.257467
    43  O   -0.304669
    44  C    0.157723
    45  H   -0.017618
    46  H   -0.016578
    47  H   -0.041262
    48  H    0.001056
    49  H   -0.004270
    50  H    0.025584
    51  H    0.016607
    52  H    0.016704
    53  H    0.010754
    54  H    0.043846
    55  H    0.018226
    56  H    0.017774
    57  H    0.005763
    58  H    0.027029
    59  H    0.039037
    60  H    0.037411
    61  H    0.035934
    62  H    0.030942
    63  H    0.016804
    64  H    0.009600
    65  H    0.023456
    66  H    0.012524
    67  H    0.004878
    68  H    0.006642
    69  H    0.004791
    70  H    0.009066
    71  H    0.018340
    72  H    0.028671
    73  H    0.047644
    74  H    0.009278
    75  H    0.046162
    76  H    0.035288
    77  H    0.043196
    78  H    0.046234
    79  H    0.053420
    80  Mg   0.838015
    81  C   -0.016878
    82  C   -0.087689
    83  C   -0.045443
    84  C   -0.064790
    85  N   -0.254574
    86  C   -0.049640
    87  C   -0.015127
    88  C   -0.090551
    89  C    0.045793
    90  C    0.114305
    91  C    0.062555
    92  C   -0.077738
    93  H    0.034565
    94  N   -0.423534
    95  C    0.162939
    96  C   -0.174496
    97  C   -0.007831
    98  C    0.152212
    99  C    0.099386
   100  C    0.015617
   101  O   -0.253125
   102  C    0.061222
   103  N   -0.350014
   104  C    0.037623
   105  C   -0.019890
   106  C   -0.034832
   107  C    0.088961
   108  C    0.073585
   109  C    0.034768
   110  C   -0.007648
   111  N   -0.324119
   112  C    0.078480
   113  C   -0.163114
   114  C    0.002303
   115  C    0.096201
   116  C    0.131475
   117  C    0.042403
   118  O   -0.187922
   119  C    0.000916
   120  C    0.211213
   121  O   -0.251164
   122  O   -0.305528
   123  C    0.152099
   124  H   -0.019527
   125  H   -0.015568
   126  H   -0.040511
   127  H   -0.000501
   128  H   -0.004664
   129  H    0.022772
   130  H    0.015053
   131  H    0.016526
   132  H    0.013744
   133  H    0.037579
   134  H    0.020923
   135  H    0.019375
   136  H    0.008643
   137  H    0.026097
   138  H    0.039370
   139  H    0.038153
   140  H    0.036292
   141  H    0.033643
   142  H    0.014257
   143  H    0.012518
   144  H    0.025007
   145  H    0.012021
   146  H    0.005729
   147  H    0.006172
   148  H    0.003596
   149  H    0.010868
   150  H    0.017784
   151  H    0.030122
   152  H    0.045868
   153  H    0.008419
   154  H    0.047172
   155  H    0.035333
   156  H    0.043877
   157  H    0.049420
   158  H    0.053445
 Sum of Mulliken charges =  -0.00000

 Dipole moment (field-independent basis, Debye):
    X=              6.0135    Y=              0.0713    Z=              6.2044  Tot=              8.6407
 Quadrupole moment (field-independent basis, Debye-Ang):
   XX=           -551.7704   YY=           -523.2348   ZZ=           -470.1719
   XY=             13.9096   XZ=             18.2110   YZ=             58.0827

 Normal termination of Gaussian 16 at Sun Sep 12 06:23:34 2021.
