 Gaussian 16, Revision A.03,
 Gaussian 16:  ES64L-G16RevA.03 25-Dec-2016

 -----------------------------------
 #p cam-b3lyp/Def2SVP td=(nstates=5)
 -----------------------------------

 --------------------------------
 TDDFT excited states in gaussian
 --------------------------------
 Symbolic Z-matrix:
 Charge =  0 Multiplicity = 1

                         Standard orientation:
 ---------------------------------------------------------------------
 Center     Atomic      Atomic             Coordinates (Angstroms)
 Number     Number       Type             X           Y           Z
 ---------------------------------------------------------------------
      1         12           0      -15.786502    0.568768   -0.547645
      2          6           0      -16.036556   -2.440631    1.374126
      3          6           0      -16.755429    2.261011    2.252455
      4          6           0      -16.013090    3.178395   -2.335138
      5          6           0      -15.951516   -1.417887   -3.406252
      6          7           0      -16.300319   -0.114416    1.494387
      7          6           0      -16.298614   -1.288215    2.118377
      8          6           0      -16.527381   -1.171342    3.655056
      9          6           0      -17.287309    0.229817    3.690578
     10          6           0      -16.721808    0.845054    2.422660
     11          6           0      -18.800485    0.106131    3.543935
     12          6           0      -15.181845   -1.113719    4.453770
     13          6           0      -15.309319   -1.327527    5.964859
     14          1           0      -14.251864   -2.043372    6.662501
     15          7           0      -15.829910    2.475279   -0.031719
     16          6           0      -16.238167    2.983827    1.155712
     17          6           0      -16.080942    4.450147    1.046778
     18          6           0      -15.727951    4.766278   -0.365155
     19          6           0      -15.870386    3.471741   -0.981000
     20          6           0      -16.215222    5.380949    2.212679
     21          6           0      -15.336223    6.035931   -1.052659
     22          8           0      -15.297815    6.135649   -2.326690
     23          6           0      -15.080945    7.200611   -0.185828
     24          7           0      -16.178404    0.871307   -2.575580
     25          6           0      -16.161489    2.099048   -3.106004
     26          6           0      -16.186514    2.046677   -4.604860
     27          6           0      -15.978134    0.512909   -4.997142
     28          6           0      -15.949772   -0.093325   -3.572380
     29          6           0      -17.464082    2.574973   -5.271743
     30          6           0      -14.810119    0.186071   -5.961163
     31          6           0      -13.488897    0.456788   -5.276925
     32          7           0      -15.784573   -1.558383   -0.979236
     33          6           0      -15.883848   -2.162831   -2.240767
     34          6           0      -15.949176   -3.618938   -2.018169
     35          6           0      -15.899743   -3.760447   -0.632753
     36          6           0      -15.835734   -2.473035   -0.027141
     37          6           0      -16.099428   -4.610380   -3.027575
     38          6           0      -15.910949   -4.698721    0.477820
     39          8           0      -15.859747   -5.925510    0.577120
     40          6           0      -16.122864   -3.877404    1.825543
     41          6           0      -15.104123   -4.364528    2.819619
     42          8           0      -13.886369   -4.158454    2.640804
     43          8           0      -15.730912   -4.781681    3.930322
     44          6           0      -14.775290   -5.250686    4.969059
     45          1           0      -17.275794    2.869629    2.994577
     46          1           0      -15.984058    4.047838   -2.995185
     47          1           0      -15.918834   -2.104369   -4.254266
     48          1           0      -17.161199   -1.949505    4.080686
     49          1           0      -17.004392    0.824305    4.559061
     50          1           0      -19.095752   -0.916464    3.309334
     51          1           0      -19.069596    0.776848    2.727718
     52          1           0      -19.308176    0.491764    4.428420
     53          1           0      -14.800556   -0.092665    4.442380
     54          1           0      -14.461797   -1.825442    4.048424
     55          1           0      -16.285348   -1.735770    6.228703
     56          1           0      -15.283114   -0.352340    6.451196
     57          1           0      -16.641034    4.877778    3.079886
     58          1           0      -16.959951    6.128214    1.939397
     59          1           0      -15.273177    5.872607    2.455902
     60          1           0      -15.976641    7.419492    0.395866
     61          1           0      -14.726723    7.993313   -0.843856
     62          1           0      -14.303765    6.941582    0.533786
     63          1           0      -15.376363    2.637456   -5.030375
     64          1           0      -16.855427    0.094154   -5.490777
     65          1           0      -17.284863    3.379058   -5.985910
     66          1           0      -18.146967    2.895331   -4.485403
     67          1           0      -18.060089    1.818362   -5.781384
     68          1           0      -14.853355    0.827819   -6.840501
     69          1           0      -14.812527   -0.848330   -6.305055
     70          1           0      -13.351607    1.526991   -5.427418
     71          1           0      -12.689629   -0.110412   -5.755116
     72          1           0      -13.554409    0.284591   -4.202429
     73          1           0      -15.405265   -5.411506   -2.773991
     74          1           0      -15.890346   -4.203357   -4.016625
     75          1           0      -17.149089   -4.873402   -2.897621
     76          1           0      -17.142714   -4.073486    2.155057
     77          1           0      -15.059624   -6.270164    5.229929
     78          1           0      -14.788342   -4.503051    5.762329
     79          1           0      -13.745302   -5.401154    4.643754
     80         12           0       15.955800    0.688426    0.437829
     81          6           0       15.831877   -2.055299   -1.872081
     82          6           0       15.011836   -1.510189    2.868800
     83          6           0       15.618017    3.157887    2.401273
     84          6           0       15.764770    2.827100   -2.307219
     85          7           0       15.510088   -1.477330    0.382121
     86          6           0       15.556256   -2.427254   -0.539744
     87          6           0       15.371339   -3.866946    0.010392
     88          6           0       14.568257   -3.509528    1.354325
     89          6           0       15.083620   -2.089070    1.576581
     90          6           0       13.062810   -3.445995    1.156956
     91          6           0       16.739819   -4.565946    0.327680
     92          6           0       16.650016   -6.073626    0.573815
     93          1           0       17.749569   -6.919903    0.118547
     94          7           0       15.878120    0.751990    2.419871
     95          6           0       15.493379   -0.238926    3.251337
     96          6           0       15.593880    0.314666    4.610604
     97          6           0       15.911354    1.764709    4.504240
     98          6           0       15.791669    1.956451    3.072806
     99          6           0       15.473306   -0.531360    5.844744
    100          6           0       16.252115    2.809154    5.523659
    101          8           0       16.257041    4.057471    5.232987
    102          6           0       16.488539    2.334389    6.894865
    103          7           0       15.512205    2.694141    0.117398
    104          6           0       15.477385    3.566416    1.140071
    105          6           0       15.412767    4.990103    0.640739
    106          6           0       15.656402    4.903346   -0.937453
    107          6           0       15.734370    3.369173   -1.097510
    108          6           0       14.104451    5.731965    0.913428
    109          6           0       16.808568    5.766812   -1.520213
    110          6           0       18.141168    5.247973   -1.029910
    111          7           0       16.007645    0.469532   -1.711000
    112          6           0       15.885676    1.493356   -2.675872
    113          6           0       15.865022    0.841951   -4.001644
    114          6           0       15.953947   -0.528116   -3.712686
    115          6           0       16.004651   -0.718428   -2.305310
    116          6           0       15.725846    1.506234   -5.252832
    117          6           0       16.005735   -1.857265   -4.277822
    118          8           0       16.084767   -2.314194   -5.417434
    119          6           0       15.801533   -2.912561   -3.106908
    120          6           0       16.857652   -3.974143   -3.248963
    121          8           0       18.059561   -3.694655   -3.094381
    122          8           0       16.263672   -5.178866   -3.327709
    123          6           0       17.270717   -6.265396   -3.458579
    124          1           0       14.500892   -2.063277    3.657420
    125          1           0       15.607023    4.051747    3.029264
    126          1           0       15.806057    3.430612   -3.216476
    127          1           0       14.775566   -4.519682   -0.616315
    128          1           0       14.865655   -4.155958    2.175937
    129          1           0       12.788772   -3.535782    0.116295
    130          1           0       12.755208   -2.484856    1.547628
    131          1           0       12.568885   -4.196810    1.780381
    132          1           0       17.090714   -4.235173    1.313686
    133          1           0       17.456928   -4.368055   -0.445126
    134          1           0       15.687187   -6.487451    0.250337
    135          1           0       16.669366   -6.250988    1.651870
    136          1           0       15.076150   -1.527224    5.612535
    137          1           0       14.703165   -0.071657    6.473574
    138          1           0       16.405638   -0.585851    6.410817
    139          1           0       15.604182    1.813579    7.254223
    140          1           0       16.805594    3.214207    7.458146
    141          1           0       17.300642    1.599055    6.875352
    142          1           0       16.196443    5.591600    1.084762
    143          1           0       14.773985    5.234048   -1.504748
    144          1           0       14.245250    6.670549    1.482032
    145          1           0       13.436956    5.063990    1.441438
    146          1           0       13.524321    5.985895    0.027900
    147          1           0       16.726826    6.796970   -1.164885
    148          1           0       16.817600    5.799932   -2.604555
    149          1           0       18.240392    5.714383   -0.045168
    150          1           0       18.942477    5.559680   -1.696834
    151          1           0       18.109548    4.162684   -0.878939
    152          1           0       16.440047    1.052784   -5.927222
    153          1           0       15.894032    2.576747   -5.155483
    154          1           0       14.682429    1.273816   -5.482050
    155          1           0       14.794934   -3.320715   -3.205602
    156          1           0       17.016968   -6.829141   -4.361622
    157          1           0       17.244745   -6.814036   -2.498326
    158          1           0       18.294014   -5.977581   -3.669489
 ---------------------------------------------------------------------

 SCF Done:  E(RCAM-B3LYP) =  -4069.81178814     A.U. after   19 cycles

 Excitation energies and oscillator strengths:

 Excited State   1:      Singlet-A      1.6755 eV  739.96 nm  f=0.3710  <S**2>=0.000
     310 -> 316        0.17304
     312 -> 313        0.68395
     310 <- 316        0.10429
 This state for optimization and/or second-order correction.
 Total Energy, E(TD-HF/TD-DFT) =  -4069.75021284
 Copying the excited state density for this state as the 1-particle RhoCI density.

 Excited State   2:      Singlet-A      1.6799 eV  738.06 nm  f=0.4054  <S**2>=0.000
     309 -> 315        0.17503
     311 -> 314        0.68360
     309 <- 315        0.10482

 Excited State   3:      Singlet-A      2.1861 eV  567.16 nm  f=0.1016  <S**2>=0.000
     310 -> 313        0.64243
     312 -> 316       -0.27305

 Excited State   4:      Singlet-A      2.1926 eV  565.47 nm  f=0.0993  <S**2>=0.000
     309 -> 314        0.64065
     311 -> 315       -0.27830

 Excited State   5:      Singlet-A      3.0660 eV  404.38 nm  f=0.0000  <S**2>=0.000
     311 -> 313        0.70711

 The electronic state is 1-A.
 Alpha  occ. eigenvalues --  -46.87797 -46.87660 -19.26344 -19.26290 -19.19157
 Alpha  occ. eigenvalues --  -19.19025 -19.18813 -19.18716 -19.18171 -19.18049
 Alpha  occ. eigenvalues --  -14.42496 -14.42450 -14.41449 -14.41359 -14.39403
 Alpha  occ. eigenvalues --  -14.39352 -14.38599 -14.38587 -10.39087 -10.39084
 Alpha  occ. eigenvalues --  -10.35447 -10.35393 -10.34391 -10.34227 -10.31750
 Alpha  occ. eigenvalues --  -10.31687 -10.31406 -10.31307 -10.31022 -10.30909
 Alpha  occ. eigenvalues --  -10.30570 -10.30507 -10.30398 -10.30360 -10.30206
 Alpha  occ. eigenvalues --  -10.30142 -10.29920 -10.29895 -10.29631 -10.29437
 Alpha  occ. eigenvalues --  -10.29401 -10.29254 -10.28751 -10.28714 -10.28647
 Alpha  occ. eigenvalues --  -10.28543 -10.28404 -10.28365 -10.28135 -10.28118
 Alpha  occ. eigenvalues --  -10.28000 -10.27793 -10.27727 -10.27668 -10.27584
 Alpha  occ. eigenvalues --  -10.27520 -10.27499 -10.27483 -10.27481 -10.27467
 Alpha  occ. eigenvalues --  -10.27464 -10.27447 -10.27404 -10.27379 -10.27161
 Alpha  occ. eigenvalues --  -10.27047 -10.26708 -10.26688 -10.26417 -10.26408
 Alpha  occ. eigenvalues --  -10.26235 -10.26181 -10.26141 -10.26019 -10.26017
 Alpha  occ. eigenvalues --  -10.25935 -10.25851 -10.25844 -10.25433 -10.25401
 Alpha  occ. eigenvalues --  -10.24872 -10.24833 -10.24787 -10.24735 -10.24690
 Alpha  occ. eigenvalues --  -10.24684  -3.16539  -3.16410  -1.91421  -1.91292
 Alpha  occ. eigenvalues --   -1.91007  -1.90881  -1.90850  -1.90718  -1.16639
 Alpha  occ. eigenvalues --   -1.16638  -1.08656  -1.08629  -1.07214  -1.06969
 Alpha  occ. eigenvalues --   -1.06942  -1.06647  -1.04581  -1.04494  -1.03760
 Alpha  occ. eigenvalues --   -1.03663  -1.03234  -1.03039  -1.02411  -1.02111
 Alpha  occ. eigenvalues --   -0.91986  -0.91973  -0.89519  -0.89495  -0.89189
 Alpha  occ. eigenvalues --   -0.89147  -0.88286  -0.88222  -0.87871  -0.87793
 Alpha  occ. eigenvalues --   -0.87683  -0.87673  -0.87273  -0.87120  -0.84997
 Alpha  occ. eigenvalues --   -0.84983  -0.83935  -0.83878  -0.82966  -0.82933
 Alpha  occ. eigenvalues --   -0.82650  -0.82650  -0.81594  -0.81588  -0.80597
 Alpha  occ. eigenvalues --   -0.80441  -0.78797  -0.78635  -0.77219  -0.77143
 Alpha  occ. eigenvalues --   -0.76936  -0.76896  -0.75925  -0.75836  -0.74897
 Alpha  occ. eigenvalues --   -0.74804  -0.72774  -0.72699  -0.71672  -0.71580
 Alpha  occ. eigenvalues --   -0.69905  -0.69760  -0.68874  -0.68825  -0.67641
 Alpha  occ. eigenvalues --   -0.67601  -0.67221  -0.67197  -0.65288  -0.65269
 Alpha  occ. eigenvalues --   -0.64855  -0.64769  -0.64652  -0.64622  -0.64269
 Alpha  occ. eigenvalues --   -0.64205  -0.62300  -0.62276  -0.60441  -0.60340
 Alpha  occ. eigenvalues --   -0.59805  -0.59794  -0.58992  -0.58988  -0.58504
 Alpha  occ. eigenvalues --   -0.58425  -0.57587  -0.57552  -0.57309  -0.57237
 Alpha  occ. eigenvalues --   -0.56310  -0.56203  -0.55982  -0.55883  -0.55520
 Alpha  occ. eigenvalues --   -0.55451  -0.55340  -0.55248  -0.54525  -0.54487
 Alpha  occ. eigenvalues --   -0.53908  -0.53896  -0.53299  -0.53227  -0.53223
 Alpha  occ. eigenvalues --   -0.53140  -0.52916  -0.52900  -0.52756  -0.52667
 Alpha  occ. eigenvalues --   -0.52436  -0.52404  -0.51915  -0.51885  -0.51656
 Alpha  occ. eigenvalues --   -0.51618  -0.51200  -0.51197  -0.50571  -0.50476
 Alpha  occ. eigenvalues --   -0.50030  -0.49978  -0.49918  -0.49869  -0.49515
 Alpha  occ. eigenvalues --   -0.49486  -0.49215  -0.49200  -0.49101  -0.49097
 Alpha  occ. eigenvalues --   -0.48594  -0.48556  -0.48460  -0.48446  -0.48377
 Alpha  occ. eigenvalues --   -0.48339  -0.47695  -0.47593  -0.47297  -0.47118
 Alpha  occ. eigenvalues --   -0.46797  -0.46708  -0.46557  -0.46551  -0.46359
 Alpha  occ. eigenvalues --   -0.46270  -0.46163  -0.46085  -0.45824  -0.45820
 Alpha  occ. eigenvalues --   -0.45210  -0.45200  -0.44579  -0.44512  -0.44507
 Alpha  occ. eigenvalues --   -0.44474  -0.44144  -0.44125  -0.44089  -0.44078
 Alpha  occ. eigenvalues --   -0.44020  -0.43938  -0.43551  -0.43497  -0.43386
 Alpha  occ. eigenvalues --   -0.43384  -0.43027  -0.42928  -0.42900  -0.42701
 Alpha  occ. eigenvalues --   -0.42655  -0.42555  -0.42009  -0.41964  -0.41705
 Alpha  occ. eigenvalues --   -0.41668  -0.41535  -0.41457  -0.41141  -0.40988
 Alpha  occ. eigenvalues --   -0.40870  -0.40822  -0.40721  -0.40697  -0.40571
 Alpha  occ. eigenvalues --   -0.40494  -0.40236  -0.40223  -0.39439  -0.39428
 Alpha  occ. eigenvalues --   -0.38468  -0.38351  -0.37750  -0.37650  -0.37320
 Alpha  occ. eigenvalues --   -0.37266  -0.37265  -0.37197  -0.36768  -0.36716
 Alpha  occ. eigenvalues --   -0.36216  -0.36194  -0.34286  -0.34253  -0.33859
 Alpha  occ. eigenvalues --   -0.33774  -0.33187  -0.33175  -0.31343  -0.31275
 Alpha  occ. eigenvalues --   -0.31036  -0.30972  -0.30031  -0.29954  -0.29449
 Alpha  occ. eigenvalues --   -0.29327  -0.29322  -0.29211  -0.24081  -0.24036
 Alpha  occ. eigenvalues --   -0.21128  -0.21116
 Alpha virt. eigenvalues --   -0.08792  -0.08774  -0.01749  -0.01684  -0.00058
 Alpha virt. eigenvalues --   -0.00028   0.02200   0.02208   0.03120   0.03226
 Alpha virt. eigenvalues --    0.04717   0.04732   0.05094   0.05169   0.06174

 Mulliken charges:
               1
     1  Mg   0.838689
     2  C   -0.002974
     3  C   -0.094121
     4  C   -0.045860
     5  C   -0.063945
     6  N   -0.256778
     7  C   -0.052475
     8  C   -0.014035
     9  C   -0.086979
    10  C    0.046311
    11  C    0.104808
    12  C    0.053470
    13  C   -0.071783
    14  H    0.036066
    15  N   -0.433134
    16  C    0.168420
    17  C   -0.177142
    18  C   -0.003990
    19  C    0.148725
    20  C    0.110173
    21  C    0.012298
    22  O   -0.249596
    23  C    0.062471
    24  N   -0.341114
    25  C    0.041246
    26  C   -0.028202
    27  C   -0.023942
    28  C    0.074819
    29  C    0.076166
    30  C    0.035109
    31  C   -0.004499
    32  N   -0.310454
    33  C    0.080408
    34  C   -0.169722
    35  C    0.008342
    36  C    0.082978
    37  C    0.127315
    38  C    0.046107
    39  O   -0.188484
    40  C   -0.005327
    41  C    0.212863
    42  O   -0.257124
    43  O   -0.304788
    44  C    0.157714
    45  H   -0.017599
    46  H   -0.016813
    47  H   -0.041481
    48  H    0.000925
    49  H   -0.004037
    50  H    0.025469
    51  H    0.016462
    52  H    0.016658
    53  H    0.011214
    54  H    0.044102
    55  H    0.017870
    56  H    0.017959
    57  H    0.005871
    58  H    0.026843
    59  H    0.039568
    60  H    0.037349
    61  H    0.035681
    62  H    0.031506
    63  H    0.016579
    64  H    0.009466
    65  H    0.023239
    66  H    0.012543
    67  H    0.004762
    68  H    0.006396
    69  H    0.004734
    70  H    0.008797
    71  H    0.018161
    72  H    0.028957
    73  H    0.047546
    74  H    0.009127
    75  H    0.046005
    76  H    0.035145
    77  H    0.042918
    78  H    0.046398
    79  H    0.053649
    80  Mg   0.837836
    81  C   -0.016805
    82  C   -0.087750
    83  C   -0.045498
    84  C   -0.064888
    85  N   -0.254547
    86  C   -0.049833
    87  C   -0.015109
    88  C   -0.090513
    89  C    0.045731
    90  C    0.114368
    91  C    0.062518
    92  C   -0.077918
    93  H    0.034915
    94  N   -0.423505
    95  C    0.162918
    96  C   -0.174604
    97  C   -0.007813
    98  C    0.152104
    99  C    0.099356
   100  C    0.015554
   101  O   -0.253199
   102  C    0.061193
   103  N   -0.350061
   104  C    0.037533
   105  C   -0.019841
   106  C   -0.034813
   107  C    0.088910
   108  C    0.073661
   109  C    0.034740
   110  C   -0.007679
   111  N   -0.324098
   112  C    0.078452
   113  C   -0.163141
   114  C    0.002267
   115  C    0.096186
   116  C    0.131491
   117  C    0.042393
   118  O   -0.187848
   119  C    0.000930
   120  C    0.211242
   121  O   -0.251024
   122  O   -0.305604
   123  C    0.152015
   124  H   -0.019605
   125  H   -0.015596
   126  H   -0.040465
   127  H   -0.000589
   128  H   -0.004295
   129  H    0.022502
   130  H    0.014425
   131  H    0.016373
   132  H    0.013904
   133  H    0.037664
   134  H    0.020846
   135  H    0.019610
   136  H    0.008804
   137  H    0.026156
   138  H    0.039794
   139  H    0.038265
   140  H    0.036373
   141  H    0.033905
   142  H    0.014382
   143  H    0.012426
   144  H    0.025107
   145  H    0.011658
   146  H    0.005677
   147  H    0.006242
   148  H    0.003647
   149  H    0.010922
   150  H    0.017923
   151  H    0.030120
   152  H    0.046006
   153  H    0.008491
   154  H    0.046979
   155  H    0.035091
   156  H    0.043948
   157  H    0.049522
   158  H    0.053566
 Sum of Mulliken charges =  -0.00000

 Dipole moment (field-independent basis, Debye):
    X=             -4.1988    Y=              1.9934    Z=              6.0473  Tot=              7.6271
 Quadrupole moment (field-independent basis, Debye-Ang):
   XX=           -516.9535   YY=           -515.0074   ZZ=           -483.9618
   XY=            -70.3384   XZ=             20.7729   YZ=            -14.7344

 Normal termination of Gaussian 16 at Sat Sep  4 20:38:19 2021.
