 Gaussian 16, Revision A.03,
 Gaussian 16:  ES64L-G16RevA.03 25-Dec-2016

 -----------------------------------
 #p cam-b3lyp/Def2SVP td=(nstates=5)
 -----------------------------------

 --------------------------------
 TDDFT excited states in gaussian
 --------------------------------
 Symbolic Z-matrix:
 Charge =  0 Multiplicity = 1

                         Standard orientation:
 ---------------------------------------------------------------------
 Center     Atomic      Atomic             Coordinates (Angstroms)
 Number     Number       Type             X           Y           Z
 ---------------------------------------------------------------------
      1         12           0        3.757881   -0.909868    0.633124
      2          6           0        4.678638    1.546069   -1.802609
      3          6           0        5.047207    1.176051    3.005812
      4          6           0        3.370007   -3.246179    2.742110
      5          6           0        3.596387   -3.218930   -1.972219
      6          7           0        4.712634    1.082628    0.495080
      7          6           0        4.951431    1.941409   -0.491146
      8          6           0        5.448939    3.331322    0.006853
      9          6           0        6.049627    2.893148    1.417234
     10          6           0        5.195863    1.663782    1.673501
     11          6           0        7.513395    2.469487    1.350932
     12          6           0        4.277442    4.356266    0.176599
     13          6           0        4.706219    5.817120    0.342169
     14          1           0        3.879084    6.860542   -0.244743
     15          7           0        3.694784   -0.856636    2.606962
     16          6           0        4.261089    0.075537    3.410479
     17          6           0        3.932114   -0.325850    4.795161
     18          6           0        3.290718   -1.668830    4.739407
     19          6           0        3.451985   -1.993263    3.345092
     20          6           0        4.182129    0.547242    5.986360
     21          6           0        2.645653   -2.528588    5.780002
     22          8           0        2.360126   -3.756368    5.566449
     23          6           0        2.434680   -1.912658    7.102561
     24          7           0        3.730694   -2.989920    0.459123
     25          6           0        3.485445   -3.767904    1.519113
     26          6           0        3.236058   -5.188623    1.107646
     27          6           0        3.121635   -5.174009   -0.484977
     28          6           0        3.423616   -3.674918   -0.729523
     29          6           0        4.303764   -6.205902    1.533272
     30          6           0        1.835647   -5.777752   -1.103158
     31          6           0        0.644022   -4.914797   -0.753248
     32          7           0        3.900551   -0.841671   -1.531602
     33          6           0        3.826320   -1.927423   -2.416083
     34          6           0        4.085638   -1.401154   -3.768807
     35          6           0        4.310547   -0.039794   -3.573977
     36          6           0        4.224729    0.260335   -2.184427
     37          6           0        4.149126   -2.170207   -4.964199
     38          6           0        4.627735    1.226683   -4.213732
     39          8           0        4.725993    1.607935   -5.380988
     40          6           0        4.999052    2.281565   -3.080077
     41          6           0        4.240790    3.547817   -3.371543
     42          8           0        2.996203    3.582119   -3.286729
     43          8           0        5.104162    4.570251   -3.470340
     44          6           0        4.413960    5.861948   -3.729754
     45          1           0        5.629429    1.638532    3.805231
     46          1           0        3.126660   -4.064457    3.423023
     47          1           0        3.479016   -3.865232   -2.843982
     48          1           0        6.229673    3.781177   -0.606751
     49          1           0        5.872276    3.644692    2.186292
     50          1           0        7.866239    2.415400    0.321128
     51          1           0        7.553176    1.485776    1.819146
     52          1           0        8.133358    3.120341    1.968031
     53          1           0        3.794888    4.194173    1.140409
     54          1           0        3.573853    4.278857   -0.653037
     55          1           0        5.751930    5.959114    0.067878
     56          1           0        4.668121    6.066150    1.402702
     57          1           0        4.812908    1.398578    5.733593
     58          1           0        4.779578   -0.034688    6.687874
     59          1           0        3.255302    0.862343    6.465979
     60          1           0        3.394835   -1.592579    7.507780
     61          1           0        1.882193   -2.644719    7.690519
     62          1           0        1.837084   -1.008899    6.979894
     63          1           0        2.302931   -5.559849    1.529418
     64          1           0        3.930831   -5.730641   -0.958304
     65          1           0        3.910545   -7.030052    2.128974
     66          1           0        5.083461   -5.669924    2.073726
     67          1           0        4.870961   -6.643756    0.712305
     68          1           0        1.646100   -6.768500   -0.691532
     69          1           0        1.883315   -5.872901   -2.188020
     70          1           0        0.368672   -5.270708    0.238893
     71          1           0       -0.165809   -5.077781   -1.465161
     72          1           0        0.926499   -3.866305   -0.656522
     73          1           0        3.603094   -1.605334   -5.719670
     74          1           0        3.717502   -3.160598   -4.821265
     75          1           0        5.226441   -2.203577   -5.125860
     76          1           0        6.077365    2.429310   -3.130427
     77          1           0        4.848145    6.281246   -4.637447
     78          1           0        4.495485    6.446398   -2.813142
     79          1           0        3.363186    5.798304   -4.014643
     80         12           0       -3.942228    0.944755    0.260584
     81          6           0       -4.061396   -1.616622   -2.250240
     82          6           0       -4.966326   -1.413439    2.502179
     83          6           0       -4.281874    3.266026    2.396876
     84          6           0       -4.047480    3.285073   -2.319641
     85          7           0       -4.418837   -1.203275    0.034585
     86          6           0       -4.368644   -2.082405   -0.954834
     87          6           0       -4.585694   -3.555929   -0.517584
     88          6           0       -5.409652   -3.286737    0.834267
     89          6           0       -4.877739   -1.895402    1.171772
     90          6           0       -6.909815   -3.184194    0.614386
     91          6           0       -3.234230   -4.298807   -0.228273
     92          6           0       -3.351223   -5.818990   -0.097445
     93          1           0       -2.255606   -6.646725   -0.594395
     94          7           0       -4.057914    0.861543    2.240039
     95          6           0       -4.473591   -0.182251    2.987693
     96          6           0       -4.391630    0.266693    4.386227
     97          6           0       -4.050648    1.715268    4.394662
     98          6           0       -4.139307    2.015177    2.979641
     99          6           0       -4.549000   -0.666973    5.551099
    100          6           0       -3.714543    2.675068    5.495572
    101          8           0       -3.685379    3.941357    5.299353
    102          6           0       -3.512199    2.095561    6.831512
    103          7           0       -4.349622    2.975737    0.083120
    104          6           0       -4.391599    3.769737    1.167426
    105          6           0       -4.425260    5.227569    0.775027
    106          6           0       -4.151943    5.254840   -0.800454
    107          6           0       -4.093614    3.735812   -1.073502
    108          6           0       -5.727526    5.968204    1.078266
    109          6           0       -2.975854    6.140513   -1.295490
    110          6           0       -1.661005    5.564942   -0.820855
    111          7           0       -3.851386    0.885959   -1.897273
    112          6           0       -3.939147    1.980756   -2.784851
    113          6           0       -3.943396    1.430486   -4.155841
    114          6           0       -3.880512    0.041424   -3.968709
    115          6           0       -3.860315   -0.254146   -2.578843
    116          6           0       -4.048063    2.188439   -5.356124
    117          6           0       -3.837347   -1.242533   -4.630752
    118          8           0       -3.742709   -1.614398   -5.799726
    119          6           0       -4.080167   -2.378776   -3.546149
    120          6           0       -3.037330   -3.443838   -3.747754
    121          8           0       -1.834667   -3.196248   -3.550466
    122          8           0       -3.647448   -4.629517   -3.927489
    123          6           0       -2.654256   -5.719493   -4.120701
    124          1           0       -5.500829   -2.015428    3.237563
    125          1           0       -4.291951    4.110612    3.089744
    126          1           0       -3.979374    3.953984   -3.180219
    127          1           0       -5.178645   -4.150310   -1.202330
    128          1           0       -5.138094   -3.997420    1.610506
    129          1           0       -7.164647   -3.191620   -0.434963
    130          1           0       -7.210747   -2.249996    1.070197
    131          1           0       -7.426997   -3.971277    1.170588
    132          1           0       -2.897929   -4.048266    0.786059
    133          1           0       -2.499209   -4.055516   -0.970684
    134          1           0       -4.313543   -6.191818   -0.468770
    135          1           0       -3.355712   -6.076571    0.964461
    136          1           0       -4.956243   -1.636155    5.237643
    137          1           0       -5.324450   -0.242999    6.198238
    138          1           0       -3.628885   -0.778698    6.128654
    139          1           0       -4.411081    1.563843    7.134424
    140          1           0       -3.193263    2.925626    7.464866
    141          1           0       -2.710874    1.350612    6.771999
    142          1           0       -3.641628    5.781439    1.277273
    143          1           0       -5.018024    5.641242   -1.357619
    144          1           0       -5.584028    6.859344    1.718068
    145          1           0       -6.415114    5.273646    1.542318
    146          1           0       -6.286294    6.296892    0.203656
    147          1           0       -3.049280    7.142487   -0.865584
    148          1           0       -2.945017    6.254284   -2.373963
    149          1           0       -1.574251    5.954916    0.197718
    150          1           0       -0.842198    5.912452   -1.447620
    151          1           0       -1.711688    4.472068   -0.752206
    152          1           0       -3.327549    1.775002   -6.049249
    153          1           0       -3.865960    3.245829   -5.175779
    154          1           0       -5.090099    1.990775   -5.621362
    155          1           0       -5.090577   -2.762004   -3.693740
    156          1           0       -2.898544   -6.210088   -5.067969
    157          1           0       -2.707251   -6.337734   -3.204893
    158          1           0       -1.622856   -5.433424   -4.290503
 ---------------------------------------------------------------------

 SCF Done:  E(RCAM-B3LYP) =  -4069.81226594     A.U. after   19 cycles

 Excitation energies and oscillator strengths:

 Excited State   1:      Singlet-A      1.6363 eV  757.72 nm  f=0.0037  <S**2>=0.000
     309 -> 315        0.11809
     310 -> 316       -0.11286
     311 -> 313        0.49853
     312 -> 314       -0.47448
 This state for optimization and/or second-order correction.
 Total Energy, E(TD-HF/TD-DFT) =  -4069.75213344
 Copying the excited state density for this state as the 1-particle RhoCI density.

 Excited State   2:      Singlet-A      1.7085 eV  725.67 nm  f=0.6817  <S**2>=0.000
     309 -> 315        0.12504
     310 -> 316        0.13201
     311 -> 313        0.47152
     312 -> 314        0.49519

 Excited State   3:      Singlet-A      2.1785 eV  569.13 nm  f=0.0103  <S**2>=0.000
     309 -> 313        0.52154
     310 -> 314        0.38049
     311 -> 315       -0.21540
     312 -> 316       -0.15668

 Excited State   4:      Singlet-A      2.1948 eV  564.90 nm  f=0.1619  <S**2>=0.000
     309 -> 313       -0.37576
     310 -> 314        0.51597
     311 -> 315        0.16555
     312 -> 316       -0.22782

 Excited State   5:      Singlet-A      2.3616 eV  525.01 nm  f=0.0000  <S**2>=0.000
     312 -> 313        0.70701

 The electronic state is 1-A.
 Alpha  occ. eigenvalues --  -46.87511 -46.87477 -19.26429 -19.26112 -19.19244
 Alpha  occ. eigenvalues --  -19.18820 -19.18672 -19.18626 -19.17897 -19.17891
 Alpha  occ. eigenvalues --  -14.42321 -14.42171 -14.41173 -14.41168 -14.39179
 Alpha  occ. eigenvalues --  -14.39133 -14.38400 -14.38274 -10.39127 -10.38875
 Alpha  occ. eigenvalues --  -10.35315 -10.35311 -10.34112 -10.34081 -10.31930
 Alpha  occ. eigenvalues --  -10.31563 -10.31120 -10.31104 -10.30883 -10.30676
 Alpha  occ. eigenvalues --  -10.30253 -10.30211 -10.30210 -10.30159 -10.29959
 Alpha  occ. eigenvalues --  -10.29941 -10.29698 -10.29621 -10.29334 -10.29255
 Alpha  occ. eigenvalues --  -10.29214 -10.28978 -10.28608 -10.28597 -10.28530
 Alpha  occ. eigenvalues --  -10.28374 -10.28240 -10.28099 -10.27991 -10.27878
 Alpha  occ. eigenvalues --  -10.27814 -10.27504 -10.27482 -10.27443 -10.27324
 Alpha  occ. eigenvalues --  -10.27317 -10.27310 -10.27309 -10.27296 -10.27272
 Alpha  occ. eigenvalues --  -10.27226 -10.27212 -10.27198 -10.27132 -10.26962
 Alpha  occ. eigenvalues --  -10.26913 -10.26580 -10.26504 -10.26411 -10.26379
 Alpha  occ. eigenvalues --  -10.26016 -10.25892 -10.25864 -10.25851 -10.25721
 Alpha  occ. eigenvalues --  -10.25692 -10.25554 -10.25402 -10.25261 -10.25254
 Alpha  occ. eigenvalues --  -10.24682 -10.24532 -10.24525 -10.24518 -10.24351
 Alpha  occ. eigenvalues --  -10.24144  -3.16253  -3.16226  -1.91135  -1.91108
 Alpha  occ. eigenvalues --   -1.90722  -1.90697  -1.90563  -1.90534  -1.16716
 Alpha  occ. eigenvalues --   -1.16455  -1.08518  -1.08349  -1.07084  -1.06997
 Alpha  occ. eigenvalues --   -1.06885  -1.06442  -1.04324  -1.04308  -1.03485
 Alpha  occ. eigenvalues --   -1.03482  -1.02943  -1.02850  -1.02123  -1.01924
 Alpha  occ. eigenvalues --   -0.91834  -0.91698  -0.89294  -0.89218  -0.89007
 Alpha  occ. eigenvalues --   -0.88950  -0.88022  -0.88007  -0.87576  -0.87530
 Alpha  occ. eigenvalues --   -0.87503  -0.87398  -0.87053  -0.86980  -0.84863
 Alpha  occ. eigenvalues --   -0.84747  -0.83681  -0.83638  -0.82819  -0.82798
 Alpha  occ. eigenvalues --   -0.82536  -0.82422  -0.81526  -0.81349  -0.80354
 Alpha  occ. eigenvalues --   -0.80329  -0.78537  -0.78463  -0.76984  -0.76936
 Alpha  occ. eigenvalues --   -0.76782  -0.76690  -0.75723  -0.75678  -0.74645
 Alpha  occ. eigenvalues --   -0.74637  -0.72505  -0.72474  -0.71429  -0.71417
 Alpha  occ. eigenvalues --   -0.69579  -0.69518  -0.68690  -0.68634  -0.67455
 Alpha  occ. eigenvalues --   -0.67389  -0.67086  -0.67012  -0.65145  -0.65040
 Alpha  occ. eigenvalues --   -0.64634  -0.64584  -0.64521  -0.64368  -0.64013
 Alpha  occ. eigenvalues --   -0.63980  -0.62222  -0.62072  -0.60208  -0.60187
 Alpha  occ. eigenvalues --   -0.59643  -0.59551  -0.58830  -0.58714  -0.58283
 Alpha  occ. eigenvalues --   -0.58238  -0.57472  -0.57332  -0.57077  -0.57058
 Alpha  occ. eigenvalues --   -0.56066  -0.56044  -0.55852  -0.55779  -0.55360
 Alpha  occ. eigenvalues --   -0.55297  -0.55107  -0.55072  -0.54367  -0.54279
 Alpha  occ. eigenvalues --   -0.53782  -0.53664  -0.53092  -0.53086  -0.53022
 Alpha  occ. eigenvalues --   -0.52968  -0.52806  -0.52680  -0.52575  -0.52566
 Alpha  occ. eigenvalues --   -0.52147  -0.52082  -0.51645  -0.51552  -0.51541
 Alpha  occ. eigenvalues --   -0.51389  -0.51050  -0.50912  -0.50407  -0.50357
 Alpha  occ. eigenvalues --   -0.49918  -0.49744  -0.49676  -0.49664  -0.49370
 Alpha  occ. eigenvalues --   -0.49290  -0.49087  -0.48970  -0.48957  -0.48852
 Alpha  occ. eigenvalues --   -0.48453  -0.48343  -0.48266  -0.48244  -0.48210
 Alpha  occ. eigenvalues --   -0.48195  -0.47468  -0.47461  -0.47061  -0.46982
 Alpha  occ. eigenvalues --   -0.46555  -0.46496  -0.46423  -0.46332  -0.46110
 Alpha  occ. eigenvalues --   -0.46076  -0.45928  -0.45879  -0.45694  -0.45533
 Alpha  occ. eigenvalues --   -0.45038  -0.44946  -0.44394  -0.44352  -0.44310
 Alpha  occ. eigenvalues --   -0.44242  -0.44012  -0.43908  -0.43888  -0.43848
 Alpha  occ. eigenvalues --   -0.43811  -0.43758  -0.43484  -0.43266  -0.43227
 Alpha  occ. eigenvalues --   -0.43132  -0.42892  -0.42762  -0.42744  -0.42491
 Alpha  occ. eigenvalues --   -0.42359  -0.42330  -0.41762  -0.41688  -0.41514
 Alpha  occ. eigenvalues --   -0.41445  -0.41307  -0.41293  -0.40895  -0.40836
 Alpha  occ. eigenvalues --   -0.40686  -0.40633  -0.40603  -0.40551  -0.40297
 Alpha  occ. eigenvalues --   -0.40288  -0.40114  -0.40033  -0.39189  -0.39044
 Alpha  occ. eigenvalues --   -0.38205  -0.38161  -0.37543  -0.37527  -0.37094
 Alpha  occ. eigenvalues --   -0.37045  -0.37036  -0.37014  -0.36772  -0.36490
 Alpha  occ. eigenvalues --   -0.36073  -0.35936  -0.34086  -0.33998  -0.33872
 Alpha  occ. eigenvalues --   -0.33555  -0.32997  -0.32898  -0.31203  -0.31185
 Alpha  occ. eigenvalues --   -0.30811  -0.30768  -0.29805  -0.29748  -0.29193
 Alpha  occ. eigenvalues --   -0.29162  -0.29011  -0.29006  -0.23857  -0.23793
 Alpha  occ. eigenvalues --   -0.20929  -0.20836
 Alpha virt. eigenvalues --   -0.08614  -0.08495  -0.01510  -0.01480   0.00106
 Alpha virt. eigenvalues --    0.00160   0.02334   0.02454   0.02546   0.04481
 Alpha virt. eigenvalues --    0.04765   0.04982   0.05131   0.05304   0.05913

 Mulliken charges:
               1
     1  Mg   0.839312
     2  C   -0.003455
     3  C   -0.094098
     4  C   -0.046474
     5  C   -0.058646
     6  N   -0.256771
     7  C   -0.052348
     8  C   -0.014114
     9  C   -0.086886
    10  C    0.045840
    11  C    0.104980
    12  C    0.053283
    13  C   -0.071122
    14  H    0.034387
    15  N   -0.432843
    16  C    0.167823
    17  C   -0.177910
    18  C   -0.005152
    19  C    0.148251
    20  C    0.110419
    21  C    0.010752
    22  O   -0.251584
    23  C    0.063125
    24  N   -0.341302
    25  C    0.041163
    26  C   -0.027795
    27  C   -0.024509
    28  C    0.074925
    29  C    0.076685
    30  C    0.039752
    31  C   -0.015243
    32  N   -0.311660
    33  C    0.083612
    34  C   -0.164316
    35  C    0.008057
    36  C    0.084900
    37  C    0.127156
    38  C    0.047248
    39  O   -0.188199
    40  C   -0.005933
    41  C    0.212903
    42  O   -0.256947
    43  O   -0.304718
    44  C    0.158243
    45  H   -0.018473
    46  H   -0.018476
    47  H   -0.039938
    48  H    0.000497
    49  H   -0.004296
    50  H    0.025091
    51  H    0.016328
    52  H    0.016018
    53  H    0.012025
    54  H    0.043799
    55  H    0.017632
    56  H    0.018327
    57  H    0.005913
    58  H    0.025688
    59  H    0.038353
    60  H    0.037954
    61  H    0.033246
    62  H    0.029597
    63  H    0.015214
    64  H    0.008457
    65  H    0.021546
    66  H    0.012277
    67  H    0.004256
    68  H    0.001269
    69  H    0.004100
    70  H    0.003448
    71  H    0.028631
    72  H    0.034104
    73  H    0.050811
    74  H    0.011319
    75  H    0.044230
    76  H    0.034590
    77  H    0.042685
    78  H    0.046043
    79  H    0.052201
    80  Mg   0.838318
    81  C   -0.017035
    82  C   -0.086937
    83  C   -0.045759
    84  C   -0.062727
    85  N   -0.254465
    86  C   -0.050549
    87  C   -0.015317
    88  C   -0.089537
    89  C    0.045212
    90  C    0.114569
    91  C    0.056762
    92  C   -0.077815
    93  H    0.031746
    94  N   -0.423392
    95  C    0.162737
    96  C   -0.174960
    97  C   -0.008693
    98  C    0.151904
    99  C    0.099693
   100  C    0.014468
   101  O   -0.254226
   102  C    0.061840
   103  N   -0.350177
   104  C    0.037523
   105  C   -0.019450
   106  C   -0.035075
   107  C    0.089293
   108  C    0.073968
   109  C    0.034531
   110  C   -0.007362
   111  N   -0.324921
   112  C    0.080609
   113  C   -0.159447
   114  C    0.002375
   115  C    0.097536
   116  C    0.131162
   117  C    0.043651
   118  O   -0.187814
   119  C   -0.000624
   120  C    0.210171
   121  O   -0.249920
   122  O   -0.304894
   123  C    0.150150
   124  H   -0.020046
   125  H   -0.016445
   126  H   -0.039199
   127  H   -0.001592
   128  H   -0.004039
   129  H    0.022046
   130  H    0.014401
   131  H    0.015938
   132  H    0.016454
   133  H    0.044082
   134  H    0.020390
   135  H    0.020682
   136  H    0.009379
   137  H    0.025225
   138  H    0.039380
   139  H    0.038776
   140  H    0.034760
   141  H    0.032072
   142  H    0.013714
   143  H    0.011896
   144  H    0.024188
   145  H    0.011277
   146  H    0.005399
   147  H    0.004271
   148  H    0.004664
   149  H    0.007388
   150  H    0.022084
   151  H    0.033053
   152  H    0.048662
   153  H    0.009953
   154  H    0.045745
   155  H    0.034861
   156  H    0.044511
   157  H    0.049383
   158  H    0.054307
 Sum of Mulliken charges =  -0.00000

 Dipole moment (field-independent basis, Debye):
    X=             -0.0832    Y=             -0.4087    Z=              6.3752  Tot=              6.3888
 Quadrupole moment (field-independent basis, Debye-Ang):
   XX=           -482.8691   YY=           -466.5089   ZZ=           -539.8525
   XY=             20.4961   XZ=              9.4872   YZ=              0.9297

 Normal termination of Gaussian 16 at Wed Sep  8 19:16:26 2021.
