 Gaussian 16, Revision A.03,
 Gaussian 16:  ES64L-G16RevA.03 25-Dec-2016

 -----------------------------------
 #p cam-b3lyp/Def2SVP td=(nstates=5)
 -----------------------------------

 --------------------------------
 TDDFT excited states in gaussian
 --------------------------------
 Symbolic Z-matrix:
 Charge =  0 Multiplicity = 1

                         Standard orientation:
 ---------------------------------------------------------------------
 Center     Atomic      Atomic             Coordinates (Angstroms)
 Number     Number       Type             X           Y           Z
 ---------------------------------------------------------------------
      1         12           0        6.625486   -1.036776   -0.342355
      2          6           0        7.184166    2.477896   -0.725982
      3          6           0        7.869340   -0.738190    2.820988
      4          6           0        6.566953   -4.200828   -0.137490
      5          6           0        6.508616   -1.247933   -3.819051
      6          7           0        7.394948    0.702628    0.790362
      7          6           0        7.499574    2.005891    0.550096
      8          6           0        7.904194    2.835044    1.805549
      9          6           0        8.623455    1.686096    2.644941
     10          6           0        7.895676    0.479659    2.078572
     11          6           0       10.111733    1.549633    2.340132
     12          6           0        6.660901    3.407344    2.566092
     13          6           0        6.971230    4.489701    3.604145
     14          1           0        6.023688    5.579175    3.784584
     15          7           0        6.675849   -2.219379    1.239342
     16          6           0        7.206573   -1.928569    2.451385
     17          6           0        6.996590   -3.130231    3.287206
     18          6           0        6.471199   -4.210616    2.406964
     19          6           0        6.576406   -3.586778    1.112694
     20          6           0        7.240980   -3.157736    4.764795
     21          6           0        5.965870   -5.590683    2.686589
     22          8           0        5.775044   -6.446632    1.756260
     23          6           0        5.781819   -5.948060    4.104844
     24          7           0        6.767420   -2.554961   -1.768050
     25          6           0        6.653810   -3.841369   -1.419866
     26          6           0        6.503760   -4.721970   -2.624841
     27          6           0        6.293738   -3.740160   -3.866490
     28          6           0        6.450216   -2.388266   -3.127459
     29          6           0        7.678675   -5.666395   -2.914059
     30          6           0        5.030029   -3.964373   -4.734354
     31          6           0        3.791429   -3.631680   -3.932927
     32          7           0        6.632405    0.366625   -1.998091
     33          6           0        6.599457    0.057430   -3.365566
     34          6           0        6.731305    1.329513   -4.099384
     35          6           0        6.849212    2.294877   -3.101378
     36          6           0        6.820850    1.662911   -1.825405
     37          6           0        6.789470    1.473566   -5.513704
     38          6           0        7.017305    3.710674   -2.816563
     39          8           0        7.012544    4.738374   -3.495757
     40          6           0        7.363222    3.873170   -1.270677
     41          6           0        6.482578    4.961441   -0.719822
     42          8           0        5.246950    4.805673   -0.640298
     43          8           0        7.247144    5.910321   -0.158032
     44          6           0        6.433903    7.005791    0.434200
     45          1           0        8.456147   -0.809599    3.738865
     46          1           0        6.436104   -5.284643   -0.111773
     47          1           0        6.395633   -1.226667   -4.904517
     48          1           0        8.605248    3.646154    1.607940
     49          1           0        8.428141    1.779449    3.713052
     50          1           0       10.405887    2.179572    1.500744
     51          1           0       10.264033    0.497583    2.098287
     52          1           0       10.708960    1.741586    3.231900
     53          1           0        6.252455    2.635898    3.218859
     54          1           0        5.918392    3.785093    1.862308
     55          1           0        7.982579    4.879068    3.483834
     56          1           0        6.975111    4.025815    4.590550
     57          1           0        7.779805   -2.271692    5.098169
     58          1           0        7.927143   -3.981916    4.958742
     59          1           0        6.320691   -3.304735    5.330296
     60          1           0        6.733248   -5.847863    4.627617
     61          1           0        5.330556   -6.939622    4.108972
     62          1           0        5.102276   -5.229885    4.564622
     63          1           0        5.632933   -5.369355   -2.530080
     64          1           0        7.118244   -3.797770   -4.577507
     65          1           0        7.394206   -6.717910   -2.959857
     66          1           0        8.440091   -5.500069   -2.152565
     67          1           0        8.231545   -5.442228   -3.825926
     68          1           0        4.951497   -5.011001   -5.026499
     69          1           0        5.020947   -3.364434   -5.644432
     70          1           0        3.607447   -4.550122   -3.376647
     71          1           0        2.957661   -3.404420   -4.598055
     72          1           0        3.987715   -2.843851   -3.205409
     73          1           0        6.152693    2.323102   -5.760226
     74          1           0        6.454142    0.567629   -6.018120
     75          1           0        7.854087    1.659962   -5.654077
     76          1           0        8.419851    4.132301   -1.211452
     77          1           0        6.775416    7.938210   -0.015464
     78          1           0        6.519244    6.904859    1.516297
     79          1           0        5.377418    7.021937    0.164167
     80         12           0       -6.450064    0.417314    0.999201
     81          6           0       -7.749976    0.209805   -2.339388
     82          6           0       -8.218919   -2.412742    1.703867
     83          6           0       -5.687660    0.820330    4.052685
     84          6           0       -5.736463    3.768935    0.364293
     85          7           0       -7.775629   -0.846350   -0.241071
     86          6           0       -8.146152   -0.862085   -1.512613
     87          6           0       -8.921460   -2.136846   -1.940904
     88          6           0       -9.484367   -2.571084   -0.500955
     89          6           0       -8.411543   -1.937221    0.382181
     90          6           0      -10.821261   -1.933910   -0.160264
     91          6           0       -7.977919   -3.235888   -2.544092
     92          6           0       -8.698743   -4.377432   -3.264551
     93          1           0       -8.067932   -4.964846   -4.443320
     94          7           0       -6.476122   -0.869282    2.510021
     95          6           0       -7.238803   -1.976961    2.622464
     96          6           0       -6.900472   -2.567703    3.926581
     97          6           0       -5.996960   -1.629432    4.646339
     98          6           0       -6.036055   -0.488717    3.753409
     99          6           0       -7.358962   -3.934753    4.344193
    100          6           0       -5.235255   -1.735830    5.932689
    101          8           0       -4.702010   -0.710152    6.486269
    102          6           0       -5.211512   -3.059047    6.573004
    103          7           0       -6.000566    2.103309    2.129566
    104          6           0       -5.651959    1.995227    3.423675
    105          6           0       -5.108818    3.300993    3.953178
    106          6           0       -4.938968    4.245860    2.674139
    107          6           0       -5.522766    3.312627    1.590795
    108          6           0       -5.974547    4.007500    4.996134
    109          6           0       -3.533955    4.864538    2.437805
    110          6           0       -2.544708    3.778025    2.082472
    111          7           0       -6.514933    1.722497   -0.721359
    112          6           0       -6.197909    3.098000   -0.760999
    113          6           0       -6.505332    3.576511   -2.124427
    114          6           0       -7.005483    2.442483   -2.781927
    115          6           0       -7.028408    1.340223   -1.885262
    116          6           0       -6.359381    4.913948   -2.589300
    117          6           0       -7.529224    1.929814   -4.027540
    118          8           0       -7.662069    2.379938   -5.164848
    119          6           0       -8.153006    0.492544   -3.760033
    120          6           0       -7.650420   -0.438280   -4.829378
    121          8           0       -6.442555   -0.725692   -4.900561
    122          8           0       -8.701318   -1.002795   -5.451719
    123          6           0       -8.253654   -1.942820   -6.513682
    124          1           0       -8.909823   -3.161888    2.091577
    125          1           0       -5.311728    0.988621    5.064527
    126          1           0       -5.450116    4.777487    0.058533
    127          1           0       -9.743803   -1.960395   -2.623834
    128          1           0       -9.483276   -3.651885   -0.385963
    129          1           0      -11.116466   -1.199579   -0.894944
    130          1           0      -10.687141   -1.468305    0.807343
    131          1           0      -11.582357   -2.706814   -0.019912
    132          1           0       -7.511086   -3.796416   -1.723959
    133          1           0       -7.251514   -2.796401   -3.199691
    134          1           0       -9.748914   -4.137051   -3.470241
    135          1           0       -8.747382   -5.236774   -2.591366
    136          1           0       -8.144201   -4.316056    3.679801
    137          1           0       -7.854734   -3.823159    5.314572
    138          1           0       -6.533608   -4.642285    4.448293
    139          1           0       -6.230273   -3.379673    6.777394
    140          1           0       -4.545274   -2.956230    7.431741
    141          1           0       -4.789805   -3.782273    5.866090
    142          1           0       -4.139852    3.157729    4.415421
    143          1           0       -5.601595    5.122358    2.724183
    144          1           0       -5.442754    4.199609    5.947110
    145          1           0       -6.858276    3.407782    5.169084
    146          1           0       -6.399091    4.957772    4.676833
    147          1           0       -3.166394    5.331033    3.355108
    148          1           0       -3.521092    5.623736    1.662919
    149          1           0       -2.247881    3.385364    3.059616
    150          1           0       -1.692755    4.195068    1.549308
    151          1           0       -3.033938    2.964083    1.534911
    152          1           0       -5.911969    4.854707   -3.572563
    153          1           0       -5.750727    5.506862   -1.909770
    154          1           0       -7.404434    5.235092   -2.590684
    155          1           0       -9.238417    0.596685   -3.784974
    156          1           0       -8.731029   -1.623286   -7.445183
    157          1           0       -8.502347   -2.954423   -6.141442
    158          1           0       -7.207051   -1.920682   -6.793983
 ---------------------------------------------------------------------

 SCF Done:  E(RCAM-B3LYP) =  -4069.81178162     A.U. after   19 cycles

 Excitation energies and oscillator strengths:

 Excited State   1:      Singlet-A      1.6653 eV  744.52 nm  f=0.0095  <S**2>=0.000
     309 -> 315       -0.10966
     310 -> 316        0.13156
     311 -> 313        0.52865
     312 -> 314       -0.43815
 This state for optimization and/or second-order correction.
 Total Energy, E(TD-HF/TD-DFT) =  -4069.75058308
 Copying the excited state density for this state as the 1-particle RhoCI density.

 Excited State   2:      Singlet-A      1.6887 eV  734.18 nm  f=0.7359  <S**2>=0.000
     309 -> 315        0.13691
     310 -> 316        0.11283
     311 -> 313        0.43728
     312 -> 314        0.52748

 Excited State   3:      Singlet-A      2.1847 eV  567.51 nm  f=0.0512  <S**2>=0.000
     309 -> 314        0.17493
     310 -> 313        0.61870
     311 -> 316       -0.26192

 Excited State   4:      Singlet-A      2.1928 eV  565.42 nm  f=0.1402  <S**2>=0.000
     309 -> 314        0.61651
     310 -> 313       -0.17354
     312 -> 315       -0.26813

 Excited State   5:      Singlet-A      2.7120 eV  457.17 nm  f=0.0000  <S**2>=0.000
     312 -> 313        0.70710

 The electronic state is 1-A.
 Alpha  occ. eigenvalues --  -46.87672 -46.87557 -19.26265 -19.26201 -19.19068
 Alpha  occ. eigenvalues --  -19.18928 -19.18711 -19.18649 -19.18053 -19.17951
 Alpha  occ. eigenvalues --  -14.42399 -14.42330 -14.41325 -14.41254 -14.39281
 Alpha  occ. eigenvalues --  -14.39253 -14.38493 -14.38461 -10.38998 -10.38987
 Alpha  occ. eigenvalues --  -10.35346 -10.35329 -10.34274 -10.34128 -10.31681
 Alpha  occ. eigenvalues --  -10.31613 -10.31285 -10.31206 -10.30935 -10.30797
 Alpha  occ. eigenvalues --  -10.30445 -10.30383 -10.30293 -10.30253 -10.30083
 Alpha  occ. eigenvalues --  -10.30038 -10.29795 -10.29785 -10.29508 -10.29339
 Alpha  occ. eigenvalues --  -10.29300 -10.29133 -10.28648 -10.28637 -10.28584
 Alpha  occ. eigenvalues --  -10.28458 -10.28309 -10.28246 -10.28057 -10.28012
 Alpha  occ. eigenvalues --  -10.27900 -10.27671 -10.27607 -10.27571 -10.27465
 Alpha  occ. eigenvalues --  -10.27391 -10.27391 -10.27386 -10.27371 -10.27369
 Alpha  occ. eigenvalues --  -10.27365 -10.27324 -10.27286 -10.27268 -10.27052
 Alpha  occ. eigenvalues --  -10.26956 -10.26612 -10.26609 -10.26376 -10.26319
 Alpha  occ. eigenvalues --  -10.26136 -10.26021 -10.25962 -10.25950 -10.25890
 Alpha  occ. eigenvalues --  -10.25820 -10.25714 -10.25700 -10.25325 -10.25316
 Alpha  occ. eigenvalues --  -10.24771 -10.24711 -10.24667 -10.24590 -10.24501
 Alpha  occ. eigenvalues --  -10.24496  -3.16415  -3.16306  -1.91296  -1.91188
 Alpha  occ. eigenvalues --   -1.90883  -1.90777  -1.90725  -1.90614  -1.16557
 Alpha  occ. eigenvalues --   -1.16548  -1.08558  -1.08512  -1.07113  -1.06904
 Alpha  occ. eigenvalues --   -1.06853  -1.06551  -1.04463  -1.04398  -1.03638
 Alpha  occ. eigenvalues --   -1.03562  -1.03110  -1.02934  -1.02288  -1.02008
 Alpha  occ. eigenvalues --   -0.91888  -0.91856  -0.89386  -0.89374  -0.89082
 Alpha  occ. eigenvalues --   -0.89064  -0.88157  -0.88101  -0.87742  -0.87682
 Alpha  occ. eigenvalues --   -0.87585  -0.87555  -0.87160  -0.87038  -0.84911
 Alpha  occ. eigenvalues --   -0.84875  -0.83803  -0.83748  -0.82855  -0.82851
 Alpha  occ. eigenvalues --   -0.82565  -0.82542  -0.81500  -0.81481  -0.80485
 Alpha  occ. eigenvalues --   -0.80349  -0.78678  -0.78541  -0.77097  -0.77044
 Alpha  occ. eigenvalues --   -0.76826  -0.76797  -0.75816  -0.75747  -0.74778
 Alpha  occ. eigenvalues --   -0.74697  -0.72650  -0.72592  -0.71558  -0.71486
 Alpha  occ. eigenvalues --   -0.69762  -0.69612  -0.68764  -0.68737  -0.67526
 Alpha  occ. eigenvalues --   -0.67507  -0.67119  -0.67117  -0.65180  -0.65177
 Alpha  occ. eigenvalues --   -0.64738  -0.64666  -0.64557  -0.64506  -0.64140
 Alpha  occ. eigenvalues --   -0.64084  -0.62195  -0.62181  -0.60324  -0.60249
 Alpha  occ. eigenvalues --   -0.59705  -0.59693  -0.58891  -0.58868  -0.58386
 Alpha  occ. eigenvalues --   -0.58324  -0.57476  -0.57457  -0.57190  -0.57134
 Alpha  occ. eigenvalues --   -0.56192  -0.56105  -0.55884  -0.55798  -0.55409
 Alpha  occ. eigenvalues --   -0.55369  -0.55218  -0.55135  -0.54408  -0.54373
 Alpha  occ. eigenvalues --   -0.53827  -0.53790  -0.53182  -0.53130  -0.53114
 Alpha  occ. eigenvalues --   -0.53052  -0.52806  -0.52804  -0.52650  -0.52597
 Alpha  occ. eigenvalues --   -0.52288  -0.52242  -0.51782  -0.51763  -0.51577
 Alpha  occ. eigenvalues --   -0.51512  -0.51093  -0.51076  -0.50463  -0.50400
 Alpha  occ. eigenvalues --   -0.49901  -0.49891  -0.49808  -0.49752  -0.49408
 Alpha  occ. eigenvalues --   -0.49407  -0.49113  -0.49102  -0.49011  -0.48989
 Alpha  occ. eigenvalues --   -0.48484  -0.48466  -0.48345  -0.48335  -0.48273
 Alpha  occ. eigenvalues --   -0.48262  -0.47582  -0.47501  -0.47184  -0.47029
 Alpha  occ. eigenvalues --   -0.46674  -0.46602  -0.46467  -0.46451  -0.46237
 Alpha  occ. eigenvalues --   -0.46165  -0.46043  -0.45981  -0.45718  -0.45708
 Alpha  occ. eigenvalues --   -0.45100  -0.45078  -0.44465  -0.44424  -0.44392
 Alpha  occ. eigenvalues --   -0.44374  -0.44037  -0.44021  -0.43979  -0.43958
 Alpha  occ. eigenvalues --   -0.43909  -0.43857  -0.43450  -0.43386  -0.43292
 Alpha  occ. eigenvalues --   -0.43271  -0.42910  -0.42836  -0.42801  -0.42600
 Alpha  occ. eigenvalues --   -0.42522  -0.42431  -0.41879  -0.41837  -0.41587
 Alpha  occ. eigenvalues --   -0.41569  -0.41425  -0.41359  -0.41028  -0.40896
 Alpha  occ. eigenvalues --   -0.40755  -0.40717  -0.40649  -0.40602  -0.40443
 Alpha  occ. eigenvalues --   -0.40372  -0.40150  -0.40136  -0.39290  -0.39271
 Alpha  occ. eigenvalues --   -0.38343  -0.38239  -0.37646  -0.37567  -0.37193
 Alpha  occ. eigenvalues --   -0.37154  -0.37154  -0.37106  -0.36675  -0.36611
 Alpha  occ. eigenvalues --   -0.36111  -0.36079  -0.34164  -0.34151  -0.33767
 Alpha  occ. eigenvalues --   -0.33673  -0.33073  -0.33066  -0.31241  -0.31207
 Alpha  occ. eigenvalues --   -0.30917  -0.30875  -0.29913  -0.29854  -0.29330
 Alpha  occ. eigenvalues --   -0.29233  -0.29198  -0.29107  -0.23959  -0.23934
 Alpha  occ. eigenvalues --   -0.21015  -0.21005
 Alpha virt. eigenvalues --   -0.08693  -0.08654  -0.01629  -0.01584   0.00054
 Alpha virt. eigenvalues --    0.00054   0.02310   0.02321   0.03270   0.03357
 Alpha virt. eigenvalues --    0.04823   0.04830   0.05194   0.05258   0.06262

 Mulliken charges:
               1
     1  Mg   0.839176
     2  C   -0.003035
     3  C   -0.094128
     4  C   -0.045868
     5  C   -0.063689
     6  N   -0.256766
     7  C   -0.052477
     8  C   -0.014068
     9  C   -0.087009
    10  C    0.046312
    11  C    0.104857
    12  C    0.053474
    13  C   -0.071564
    14  H    0.035491
    15  N   -0.433080
    16  C    0.168459
    17  C   -0.177191
    18  C   -0.004076
    19  C    0.148745
    20  C    0.110197
    21  C    0.012213
    22  O   -0.249928
    23  C    0.062476
    24  N   -0.341190
    25  C    0.041288
    26  C   -0.028085
    27  C   -0.024049
    28  C    0.075003
    29  C    0.076277
    30  C    0.035066
    31  C   -0.004602
    32  N   -0.310544
    33  C    0.080628
    34  C   -0.169231
    35  C    0.008342
    36  C    0.083218
    37  C    0.127206
    38  C    0.046256
    39  O   -0.188451
    40  C   -0.005436
    41  C    0.212897
    42  O   -0.257121
    43  O   -0.304770
    44  C    0.157851
    45  H   -0.017822
    46  H   -0.017055
    47  H   -0.041180
    48  H    0.000770
    49  H   -0.004092
    50  H    0.025372
    51  H    0.016423
    52  H    0.016462
    53  H    0.011499
    54  H    0.043993
    55  H    0.017775
    56  H    0.018064
    57  H    0.005810
    58  H    0.026505
    59  H    0.039693
    60  H    0.037241
    61  H    0.035136
    62  H    0.031728
    63  H    0.016519
    64  H    0.009293
    65  H    0.022934
    66  H    0.012343
    67  H    0.004644
    68  H    0.006064
    69  H    0.005073
    70  H    0.008337
    71  H    0.019575
    72  H    0.029111
    73  H    0.048048
    74  H    0.009521
    75  H    0.045747
    76  H    0.034990
    77  H    0.042840
    78  H    0.046268
    79  H    0.053302
    80  Mg   0.838265
    81  C   -0.016886
    82  C   -0.087895
    83  C   -0.045543
    84  C   -0.064511
    85  N   -0.254536
    86  C   -0.049784
    87  C   -0.015114
    88  C   -0.090476
    89  C    0.045690
    90  C    0.114445
    91  C    0.062548
    92  C   -0.077772
    93  H    0.034701
    94  N   -0.423363
    95  C    0.162822
    96  C   -0.174819
    97  C   -0.008063
    98  C    0.152068
    99  C    0.099430
   100  C    0.015364
   101  O   -0.253737
   102  C    0.061297
   103  N   -0.350157
   104  C    0.037573
   105  C   -0.019630
   106  C   -0.034937
   107  C    0.089226
   108  C    0.073838
   109  C    0.034644
   110  C   -0.008052
   111  N   -0.324264
   112  C    0.078873
   113  C   -0.162413
   114  C    0.002240
   115  C    0.096539
   116  C    0.131347
   117  C    0.042641
   118  O   -0.187713
   119  C    0.000791
   120  C    0.211244
   121  O   -0.250773
   122  O   -0.305713
   123  C    0.152097
   124  H   -0.019979
   125  H   -0.015987
   126  H   -0.039850
   127  H   -0.000779
   128  H   -0.004479
   129  H    0.022361
   130  H    0.014354
   131  H    0.016032
   132  H    0.014018
   133  H    0.037784
   134  H    0.020657
   135  H    0.019513
   136  H    0.008655
   137  H    0.025743
   138  H    0.039591
   139  H    0.038186
   140  H    0.035589
   141  H    0.033940
   142  H    0.014223
   143  H    0.012155
   144  H    0.024584
   145  H    0.011362
   146  H    0.005532
   147  H    0.005624
   148  H    0.004353
   149  H    0.009905
   150  H    0.021324
   151  H    0.029989
   152  H    0.046712
   153  H    0.009248
   154  H    0.046601
   155  H    0.034820
   156  H    0.043786
   157  H    0.049333
   158  H    0.053574
 Sum of Mulliken charges =  -0.00000

 Dipole moment (field-independent basis, Debye):
    X=             -0.1153    Y=             -4.0670    Z=              6.0370  Tot=              7.2800
 Quadrupole moment (field-independent basis, Debye-Ang):
   XX=           -447.4258   YY=           -497.9975   ZZ=           -511.1825
   XY=             28.1189   XZ=             12.6714   YZ=             34.6509

 Normal termination of Gaussian 16 at Sat Sep 11 06:08:44 2021.
