 Gaussian 16, Revision A.03,
 Gaussian 16:  ES64L-G16RevA.03 25-Dec-2016

 -----------------------------------
 #p cam-b3lyp/Def2SVP td=(nstates=5)
 -----------------------------------

 --------------------------------
 TDDFT excited states in gaussian
 --------------------------------
 Symbolic Z-matrix:
 Charge =  0 Multiplicity = 1

                         Standard orientation:
 ---------------------------------------------------------------------
 Center     Atomic      Atomic             Coordinates (Angstroms)
 Number     Number       Type             X           Y           Z
 ---------------------------------------------------------------------
      1         12           0        3.876135   -0.586251    0.964566
      2          6           0        4.616280    2.087907   -1.296690
      3          6           0        4.103427    1.690128    3.496265
      4          6           0        3.675756   -3.002236    3.008945
      5          6           0        4.819575   -2.789776   -1.565268
      6          7           0        4.308442    1.584855    0.972116
      7          6           0        4.515165    2.502809    0.033075
      8          6           0        4.539068    3.958809    0.587031
      9          6           0        4.938008    3.646468    2.098748
     10          6           0        4.386524    2.235925    2.209023
     11          6           0        6.444278    3.604825    2.335217
     12          6           0        3.138376    4.652692    0.495824
     13          6           0        3.145381    6.169258    0.708734
     14          1           0        2.216579    6.988022   -0.055662
     15          7           0        3.411040   -0.604715    2.884513
     16          6           0        3.554250    0.417148    3.762336
     17          6           0        3.068254   -0.091680    5.062945
     18          6           0        2.808433   -1.550431    4.912501
     19          6           0        3.319472   -1.785747    3.586287
     20          6           0        2.849625    0.783165    6.259021
     21          6           0        2.206237   -2.572554    5.823959
     22          8           0        2.286031   -3.826376    5.587026
     23          6           0        1.589250   -2.065618    7.063065
     24          7           0        4.406578   -2.601257    0.838022
     25          6           0        4.158832   -3.444660    1.846128
     26          6           0        4.360555   -4.870716    1.427069
     27          6           0        4.564742   -4.841511   -0.156347
     28          6           0        4.523464   -3.308432   -0.371375
     29          6           0        5.542759   -5.599513    2.080721
     30          6           0        3.620493   -5.730834   -1.003648
     31          6           0        2.205579   -5.203704   -0.918513
     32          7           0        4.424075   -0.425110   -1.129435
     33          6           0        4.801676   -1.470158   -1.984985
     34          6           0        5.184011   -0.858795   -3.271112
     35          6           0        5.017001    0.509635   -3.067758
     36          6           0        4.584489    0.740454   -1.730616
     37          6           0        5.674411   -1.554337   -4.411359
     38          6           0        5.126949    1.832256   -3.661426
     39          8           0        5.356225    2.257857   -4.794471
     40          6           0        4.989085    2.914982   -2.501890
     41          6           0        4.010985    3.958527   -2.968413
     42          8           0        2.806350    3.677743   -3.133881
     43          8           0        4.592198    5.166895   -2.917593
     44          6           0        3.665836    6.251226   -3.339770
     45          1           0        4.380323    2.261543    4.384383
     46          1           0        3.515193   -3.873751    3.647004
     47          1           0        5.043570   -3.420697   -2.427369
     48          1           0        5.287810    4.606500    0.130625
     49          1           0        4.428780    4.308257    2.799064
     50          1           0        6.996644    3.669104    1.397837
     51          1           0        6.635693    2.649947    2.825177
     52          1           0        6.745897    4.372995    3.047761
     53          1           0        2.530435    4.348535    1.347856
     54          1           0        2.655918    4.424368   -0.455191
     55          1           0        4.155004    6.576055    0.644802
     56          1           0        2.836232    6.371608    1.734249
     57          1           0        3.283950    1.771935    6.116755
     58          1           0        3.422315    0.350350    7.079026
     59          1           0        1.797232    0.842856    6.536937
     60          1           0        2.338215   -1.526556    7.643594
     61          1           0        1.132627   -2.928556    7.546474
     62          1           0        0.820763   -1.337278    6.802495
     63          1           0        3.485802   -5.475208    1.663336
     64          1           0        5.565007   -5.164572   -0.445786
     65          1           0        5.258593   -6.511901    2.605604
     66          1           0        6.039748   -4.900413    2.752696
     67          1           0        6.352988   -5.858683    1.399710
     68          1           0        3.607632   -6.748395   -0.614609
     69          1           0        3.904950   -5.781201   -2.054742
     70          1           0        1.836936   -5.644318    0.007118
     71          1           0        1.620545   -5.544676   -1.773313
     72          1           0        2.191058   -4.120944   -0.792390
     73          1           0        5.165428   -1.123674   -5.273586
     74          1           0        5.485459   -2.624794   -4.333754
     75          1           0        6.735590   -1.312428   -4.354497
     76          1           0        5.983684    3.329361   -2.340075
     77          1           0        4.152302    6.790641   -4.152554
     78          1           0        3.414485    6.812083   -2.439400
     79          1           0        2.742808    5.934335   -3.826533
     80         12           0       -3.810187   -0.697218   -0.983332
     81          6           0       -4.895953    1.794316    1.360264
     82          6           0       -3.914523    1.726782   -3.380816
     83          6           0       -3.293039   -2.956943   -3.149814
     84          6           0       -4.878985   -3.107435    1.295756
     85          7           0       -4.350412    1.445948   -0.898076
     86          6           0       -4.687681    2.297156    0.059021
     87          6           0       -4.730348    3.783194   -0.387540
     88          6           0       -4.973381    3.555322   -1.958496
     89          6           0       -4.344165    2.171376   -2.104950
     90          6           0       -6.443013    3.453741   -2.331594
     91          6           0       -3.375582    4.527474   -0.117916
     92          6           0       -3.443199    6.051223   -0.241937
     93          1           0       -2.625894    6.859783    0.658469
     94          7           0       -3.161073   -0.558783   -2.853639
     95          6           0       -3.265950    0.507198   -3.674586
     96          6           0       -2.652897    0.096703   -4.947307
     97          6           0       -2.325530   -1.352656   -4.864348
     98          6           0       -2.946394   -1.691154   -3.599418
     99          6           0       -2.358936    1.062938   -6.057900
    100          6           0       -1.588177   -2.283225   -5.778976
    101          8           0       -1.628310   -3.554568   -5.621192
    102          6           0       -0.894230   -1.667962   -6.919761
    103          7           0       -4.241769   -2.730402   -1.030629
    104          6           0       -3.861176   -3.493923   -2.069907
    105          6           0       -4.033150   -4.961876   -1.760158
    106          6           0       -4.382560   -5.033952   -0.201221
    107          6           0       -4.442515   -3.523341    0.114790
    108          6           0       -5.115986   -5.687755   -2.558233
    109          6           0       -3.479443   -5.938451    0.681359
    110          6           0       -2.086644   -5.356126    0.761245
    111          7           0       -4.551342   -0.698510    1.046132
    112          6           0       -4.964830   -1.816993    1.802501
    113          6           0       -5.496186   -1.304816    3.082253
    114          6           0       -5.375232    0.088589    2.971395
    115          6           0       -4.827228    0.422363    1.703415
    116          6           0       -6.046914   -2.095155    4.130196
    117          6           0       -5.596407    1.353535    3.634481
    118          8           0       -5.958063    1.692507    4.760557
    119          6           0       -5.413358    2.520444    2.570895
    120          6           0       -4.533430    3.574650    3.184813
    121          8           0       -3.345152    3.326990    3.455501
    122          8           0       -5.173323    4.757731    3.150019
    123          6           0       -4.336218    5.837311    3.737887
    124          1           0       -4.131141    2.351363   -4.247926
    125          1           0       -3.032259   -3.781995   -3.816713
    126          1           0       -5.140772   -3.800185    2.098397
    127          1           0       -5.543701    4.361191    0.034533
    128          1           0       -4.430208    4.285904   -2.552265
    129          1           0       -7.079595    3.433360   -1.459539
    130          1           0       -6.541046    2.533917   -2.893160
    131          1           0       -6.713267    4.258302   -3.021505
    132          1           0       -2.675580    4.303497   -0.933121
    133          1           0       -2.978611    4.260323    0.842125
    134          1           0       -4.476685    6.418134   -0.256589
    135          1           0       -3.043089    6.338071   -1.217463
    136          1           0       -2.861116    2.024968   -5.897536
    137          1           0       -2.825511    0.660628   -6.963606
    138          1           0       -1.288652    1.186288   -6.236620
    139          1           0       -1.612399   -1.123891   -7.528600
    140          1           0       -0.352246   -2.481685   -7.405556
    141          1           0       -0.181157   -0.928701   -6.538162
    142          1           0       -3.113601   -5.505303   -1.939678
    143          1           0       -5.393406   -5.431563   -0.028177
    144          1           0       -4.733289   -6.561537   -3.118711
    145          1           0       -5.578341   -4.977443   -3.230706
    146          1           0       -5.964540   -6.037881   -1.972950
    147          1           0       -3.376720   -6.927804    0.228825
    148          1           0       -3.862432   -6.082123    1.686182
    149          1           0       -1.614739   -5.718195   -0.157066
    150          1           0       -1.567388   -5.724646    1.643633
    151          1           0       -2.114068   -4.261546    0.708323
    152          1           0       -5.648611   -1.704401    5.057108
    153          1           0       -5.803094   -3.147992    4.004324
    154          1           0       -7.112424   -1.900026    3.982298
    155          1           0       -6.405854    2.904150    2.331502
    156          1           0       -4.927063    6.302679    4.532883
    157          1           0       -4.039026    6.480869    2.888623
    158          1           0       -3.446257    5.541848    4.281135
 ---------------------------------------------------------------------

 SCF Done:  E(RCAM-B3LYP) =  -4069.81308877     A.U. after   18 cycles

 Excitation energies and oscillator strengths:

 Excited State   1:      Singlet-A      1.6397 eV  756.15 nm  f=0.0054  <S**2>=0.000
     309 -> 315        0.11309
     310 -> 316        0.11991
     311 -> 313       -0.47117
     312 -> 314        0.50162
 This state for optimization and/or second-order correction.
 Total Energy, E(TD-HF/TD-DFT) =  -4069.75283204
 Copying the excited state density for this state as the 1-particle RhoCI density.

 Excited State   2:      Singlet-A      1.7106 eV  724.81 nm  f=0.6791  <S**2>=0.000
     309 -> 315       -0.13367
     310 -> 316        0.12499
     311 -> 313        0.49839
     312 -> 314        0.46823

 Excited State   3:      Singlet-A      2.1832 eV  567.90 nm  f=0.0087  <S**2>=0.000
     309 -> 313        0.36247
     310 -> 314        0.53349
     311 -> 315        0.15034
     312 -> 316       -0.22250

 Excited State   4:      Singlet-A      2.1987 eV  563.90 nm  f=0.1622  <S**2>=0.000
     309 -> 313        0.52844
     310 -> 314       -0.35774
     311 -> 315        0.23409
     312 -> 316        0.15908

 Excited State   5:      Singlet-A      2.3915 eV  518.43 nm  f=0.0000  <S**2>=0.000
     312 -> 313        0.70708

 The electronic state is 1-A.
 Alpha  occ. eigenvalues --  -46.87602 -46.87437 -19.26364 -19.26350 -19.19164
 Alpha  occ. eigenvalues --  -19.19080 -19.18569 -19.18441 -19.18084 -19.17911
 Alpha  occ. eigenvalues --  -14.42271 -14.42258 -14.41254 -14.41143 -14.39194
 Alpha  occ. eigenvalues --  -14.39111 -14.38408 -14.38389 -10.39122 -10.39078
 Alpha  occ. eigenvalues --  -10.35194 -10.35109 -10.34308 -10.34096 -10.31832
 Alpha  occ. eigenvalues --  -10.31804 -10.31238 -10.31106 -10.30785 -10.30712
 Alpha  occ. eigenvalues --  -10.30388 -10.30327 -10.30191 -10.30144 -10.29977
 Alpha  occ. eigenvalues --  -10.29890 -10.29755 -10.29715 -10.29436 -10.29175
 Alpha  occ. eigenvalues --  -10.29168 -10.29030 -10.28600 -10.28556 -10.28532
 Alpha  occ. eigenvalues --  -10.28466 -10.28177 -10.28177 -10.27953 -10.27940
 Alpha  occ. eigenvalues --  -10.27771 -10.27605 -10.27523 -10.27426 -10.27365
 Alpha  occ. eigenvalues --  -10.27321 -10.27293 -10.27277 -10.27272 -10.27235
 Alpha  occ. eigenvalues --  -10.27209 -10.27208 -10.27123 -10.27088 -10.27009
 Alpha  occ. eigenvalues --  -10.26934 -10.26559 -10.26504 -10.26092 -10.26058
 Alpha  occ. eigenvalues --  -10.26011 -10.25944 -10.25935 -10.25856 -10.25809
 Alpha  occ. eigenvalues --  -10.25723 -10.25708 -10.25697 -10.25283 -10.25257
 Alpha  occ. eigenvalues --  -10.24666 -10.24662 -10.24603 -10.24497 -10.24486
 Alpha  occ. eigenvalues --  -10.24402  -3.16344  -3.16187  -1.91226  -1.91070
 Alpha  occ. eigenvalues --   -1.90812  -1.90658  -1.90655  -1.90495  -1.16694
 Alpha  occ. eigenvalues --   -1.16653  -1.08562  -1.08540  -1.06970  -1.06943
 Alpha  occ. eigenvalues --   -1.06698  -1.06696  -1.04393  -1.04272  -1.03567
 Alpha  occ. eigenvalues --   -1.03440  -1.03039  -1.02818  -1.02221  -1.01893
 Alpha  occ. eigenvalues --   -0.91824  -0.91801  -0.89319  -0.89288  -0.89030
 Alpha  occ. eigenvalues --   -0.88958  -0.88094  -0.88025  -0.87709  -0.87599
 Alpha  occ. eigenvalues --   -0.87482  -0.87463  -0.87010  -0.86801  -0.84820
 Alpha  occ. eigenvalues --   -0.84805  -0.83752  -0.83692  -0.82711  -0.82655
 Alpha  occ. eigenvalues --   -0.82470  -0.82417  -0.81510  -0.81483  -0.80444
 Alpha  occ. eigenvalues --   -0.80264  -0.78568  -0.78365  -0.77032  -0.76930
 Alpha  occ. eigenvalues --   -0.76812  -0.76748  -0.75793  -0.75667  -0.74729
 Alpha  occ. eigenvalues --   -0.74623  -0.72591  -0.72484  -0.71509  -0.71393
 Alpha  occ. eigenvalues --   -0.69693  -0.69550  -0.68705  -0.68629  -0.67469
 Alpha  occ. eigenvalues --   -0.67401  -0.67039  -0.66978  -0.65138  -0.65091
 Alpha  occ. eigenvalues --   -0.64715  -0.64595  -0.64478  -0.64465  -0.64079
 Alpha  occ. eigenvalues --   -0.64009  -0.62240  -0.62178  -0.60209  -0.60072
 Alpha  occ. eigenvalues --   -0.59636  -0.59593  -0.58822  -0.58799  -0.58344
 Alpha  occ. eigenvalues --   -0.58242  -0.57518  -0.57445  -0.57132  -0.57027
 Alpha  occ. eigenvalues --   -0.56154  -0.56009  -0.55924  -0.55770  -0.55322
 Alpha  occ. eigenvalues --   -0.55249  -0.55208  -0.55087  -0.54420  -0.54357
 Alpha  occ. eigenvalues --   -0.53742  -0.53723  -0.53119  -0.53038  -0.53024
 Alpha  occ. eigenvalues --   -0.52946  -0.52794  -0.52730  -0.52503  -0.52350
 Alpha  occ. eigenvalues --   -0.52218  -0.52195  -0.51783  -0.51724  -0.51440
 Alpha  occ. eigenvalues --   -0.51437  -0.51054  -0.51031  -0.50259  -0.50129
 Alpha  occ. eigenvalues --   -0.49811  -0.49727  -0.49701  -0.49643  -0.49336
 Alpha  occ. eigenvalues --   -0.49258  -0.49053  -0.48990  -0.48959  -0.48936
 Alpha  occ. eigenvalues --   -0.48484  -0.48404  -0.48325  -0.48224  -0.48217
 Alpha  occ. eigenvalues --   -0.48074  -0.47512  -0.47378  -0.47098  -0.46879
 Alpha  occ. eigenvalues --   -0.46619  -0.46514  -0.46409  -0.46358  -0.46183
 Alpha  occ. eigenvalues --   -0.46061  -0.46014  -0.45914  -0.45733  -0.45695
 Alpha  occ. eigenvalues --   -0.45031  -0.45011  -0.44469  -0.44361  -0.44297
 Alpha  occ. eigenvalues --   -0.44275  -0.43991  -0.43957  -0.43916  -0.43876
 Alpha  occ. eigenvalues --   -0.43824  -0.43678  -0.43453  -0.43412  -0.43214
 Alpha  occ. eigenvalues --   -0.43205  -0.42869  -0.42850  -0.42721  -0.42695
 Alpha  occ. eigenvalues --   -0.42453  -0.42330  -0.41836  -0.41771  -0.41553
 Alpha  occ. eigenvalues --   -0.41495  -0.41377  -0.41271  -0.40978  -0.40800
 Alpha  occ. eigenvalues --   -0.40699  -0.40585  -0.40523  -0.40446  -0.40388
 Alpha  occ. eigenvalues --   -0.40306  -0.40070  -0.40014  -0.39317  -0.39112
 Alpha  occ. eigenvalues --   -0.38284  -0.38162  -0.37615  -0.37491  -0.37131
 Alpha  occ. eigenvalues --   -0.37103  -0.37064  -0.36997  -0.36729  -0.36701
 Alpha  occ. eigenvalues --   -0.36065  -0.36053  -0.34110  -0.34056  -0.33823
 Alpha  occ. eigenvalues --   -0.33790  -0.33006  -0.32959  -0.31106  -0.31010
 Alpha  occ. eigenvalues --   -0.30855  -0.30761  -0.29952  -0.29826  -0.29248
 Alpha  occ. eigenvalues --   -0.29135  -0.29085  -0.28985  -0.23895  -0.23821
 Alpha  occ. eigenvalues --   -0.20931  -0.20886
 Alpha virt. eigenvalues --   -0.08574  -0.08557  -0.01550  -0.01459   0.00158
 Alpha virt. eigenvalues --    0.00229   0.02291   0.02367   0.02446   0.04465
 Alpha virt. eigenvalues --    0.04851   0.04939   0.05078   0.05198   0.06096

 Mulliken charges:
               1
     1  Mg   0.839074
     2  C   -0.003374
     3  C   -0.091642
     4  C   -0.046034
     5  C   -0.063189
     6  N   -0.256899
     7  C   -0.052759
     8  C   -0.014294
     9  C   -0.087462
    10  C    0.047017
    11  C    0.104841
    12  C    0.052682
    13  C   -0.070914
    14  H    0.032811
    15  N   -0.433570
    16  C    0.170106
    17  C   -0.174551
    18  C   -0.002998
    19  C    0.149131
    20  C    0.109851
    21  C    0.013125
    22  O   -0.250833
    23  C    0.061231
    24  N   -0.341221
    25  C    0.041768
    26  C   -0.028165
    27  C   -0.023936
    28  C    0.074361
    29  C    0.076389
    30  C    0.035626
    31  C   -0.007629
    32  N   -0.310151
    33  C    0.079845
    34  C   -0.170937
    35  C    0.006956
    36  C    0.082410
    37  C    0.127855
    38  C    0.044281
    39  O   -0.191168
    40  C   -0.004887
    41  C    0.212683
    42  O   -0.259333
    43  O   -0.304104
    44  C    0.158622
    45  H   -0.017468
    46  H   -0.017215
    47  H   -0.041526
    48  H   -0.000033
    49  H   -0.003167
    50  H    0.025006
    51  H    0.016561
    52  H    0.016473
    53  H    0.015263
    54  H    0.042471
    55  H    0.017381
    56  H    0.019060
    57  H    0.005949
    58  H    0.025898
    59  H    0.045274
    60  H    0.036892
    61  H    0.034911
    62  H    0.036424
    63  H    0.016167
    64  H    0.008964
    65  H    0.022670
    66  H    0.012430
    67  H    0.004556
    68  H    0.005051
    69  H    0.005369
    70  H    0.008972
    71  H    0.022653
    72  H    0.028921
    73  H    0.044993
    74  H    0.009957
    75  H    0.045493
    76  H    0.034942
    77  H    0.042477
    78  H    0.046854
    79  H    0.050885
    80  Mg   0.837853
    81  C   -0.017235
    82  C   -0.084410
    83  C   -0.045924
    84  C   -0.064569
    85  N   -0.254677
    86  C   -0.050299
    87  C   -0.015321
    88  C   -0.091020
    89  C    0.046438
    90  C    0.114418
    91  C    0.061332
    92  C   -0.076840
    93  H    0.031237
    94  N   -0.424102
    95  C    0.165298
    96  C   -0.171426
    97  C   -0.006679
    98  C    0.152438
    99  C    0.099047
   100  C    0.016296
   101  O   -0.255160
   102  C    0.059531
   103  N   -0.350098
   104  C    0.038065
   105  C   -0.019790
   106  C   -0.034535
   107  C    0.088301
   108  C    0.073957
   109  C    0.035084
   110  C   -0.010038
   111  N   -0.323761
   112  C    0.077593
   113  C   -0.164255
   114  C    0.001213
   115  C    0.095416
   116  C    0.131885
   117  C    0.040875
   118  O   -0.190358
   119  C    0.001242
   120  C    0.211211
   121  O   -0.252920
   122  O   -0.305083
   123  C    0.152843
   124  H   -0.019454
   125  H   -0.016299
   126  H   -0.040944
   127  H   -0.001718
   128  H   -0.003244
   129  H    0.021919
   130  H    0.014466
   131  H    0.015987
   132  H    0.018832
   133  H    0.036067
   134  H    0.020167
   135  H    0.020569
   136  H    0.008819
   137  H    0.024658
   138  H    0.048021
   139  H    0.037911
   140  H    0.034919
   141  H    0.040381
   142  H    0.013563
   143  H    0.011826
   144  H    0.024368
   145  H    0.011633
   146  H    0.005405
   147  H    0.004865
   148  H    0.003815
   149  H    0.011239
   150  H    0.020973
   151  H    0.030083
   152  H    0.044127
   153  H    0.008665
   154  H    0.046241
   155  H    0.034649
   156  H    0.043330
   157  H    0.049746
   158  H    0.051217
 Sum of Mulliken charges =  -0.00000

 Dipole moment (field-independent basis, Debye):
    X=              0.4384    Y=              3.1169    Z=              0.1594  Tot=              3.1516
 Quadrupole moment (field-independent basis, Debye-Ang):
   XX=           -507.7309   YY=           -462.3269   ZZ=           -527.9521
   XY=              0.2238   XZ=             40.5043   YZ=              3.3486

 Normal termination of Gaussian 16 at Wed Sep  8 18:05:51 2021.
