 Gaussian 16, Revision A.03,
 Gaussian 16:  ES64L-G16RevA.03 25-Dec-2016

 -----------------------------------
 #p cam-b3lyp/Def2SVP td=(nstates=5)
 -----------------------------------

 --------------------------------
 TDDFT excited states in gaussian
 --------------------------------
 Symbolic Z-matrix:
 Charge =  0 Multiplicity = 1

                         Standard orientation:
 ---------------------------------------------------------------------
 Center     Atomic      Atomic             Coordinates (Angstroms)
 Number     Number       Type             X           Y           Z
 ---------------------------------------------------------------------
      1         12           0        5.125940    0.913884    0.486412
      2          6           0        5.897291   -2.037689   -1.385871
      3          6           0        5.704572    2.694716   -2.366111
      4          6           0        4.894943    3.558973    2.220416
      5          6           0        5.717270   -0.942764    3.375849
      6          7           0        5.717934    0.293554   -1.554514
      7          6           0        5.923838   -0.873451   -2.156903
      8          6           0        6.096001   -0.750089   -3.700443
      9          6           0        6.578986    0.767308   -3.779384
     10          6           0        5.933554    1.294016   -2.509770
     11          6           0        8.091142    0.932036   -3.666467
     12          6           0        4.747878   -0.962863   -4.467921
     13          6           0        4.883051   -1.182638   -5.977484
     14          1           0        3.964828   -2.098928   -6.636746
     15          7           0        4.800964    2.782926   -0.064882
     16          6           0        5.082944    3.332289   -1.270690
     17          6           0        4.655877    4.745404   -1.184660
     18          6           0        4.278075    5.021296    0.229286
     19          6           0        4.672852    3.790255    0.864949
     20          6           0        4.590076    5.658718   -2.370104
     21          6           0        3.669090    6.210289    0.902758
     22          8           0        3.638049    6.329393    2.175324
     23          6           0        3.182834    7.287112    0.021254
     24          7           0        5.494493    1.329418    2.498659
     25          6           0        5.258331    2.543838    3.006987
     26          6           0        5.322568    2.530437    4.505531
     27          6           0        5.413205    0.993872    4.930391
     28          6           0        5.470607    0.361475    3.517929
     29          6           0        6.491500    3.303006    5.132225
     30          6           0        4.346578    0.475934    5.927621
     31          6           0        2.984673    0.479536    5.270127
     32          7           0        5.531326   -1.165970    0.956424
     33          6           0        5.767232   -1.712969    2.225997
     34          6           0        6.099872   -3.135767    2.028349
     35          6           0        6.050261   -3.314818    0.647289
     36          6           0        5.734043   -2.075882    0.020124
     37          6           0        6.453353   -4.058916    3.051716
     38          6           0        6.215010   -4.258926   -0.446043
     39          8           0        6.392683   -5.475552   -0.521840
     40          6           0        6.242354   -3.442668   -1.813084
     41          6           0        5.313379   -4.133686   -2.773713
     42          8           0        4.082388   -4.155019   -2.569821
     43          8           0        5.985003   -4.450895   -3.891229
     44          6           0        5.113731   -5.113310   -4.898326
     45          1           0        6.086761    3.373231   -3.131284
     46          1           0        4.716616    4.422123    2.865093
     47          1           0        5.830725   -1.604205    4.236707
     48          1           0        6.855833   -1.405290   -4.126812
     49          1           0        6.172423    1.278933   -4.651547
     50          1           0        8.577451   -0.011835   -3.420435
     51          1           0        8.245972    1.659237   -2.869160
     52          1           0        8.499844    1.386017   -4.569595
     53          1           0        4.182276   -0.031116   -4.466002
     54          1           0        4.182203   -1.787471   -4.032767
     55          1           0        5.912849   -1.406948   -6.256966
     56          1           0        4.664856   -0.240618   -6.480663
     57          1           0        5.085297    5.224869   -3.237904
     58          1           0        5.186841    6.537947   -2.128162
     59          1           0        3.567924    5.960022   -2.599781
     60          1           0        4.009869    7.656613   -0.585402
     61          1           0        2.699489    8.014043    0.673020
     62          1           0        2.453804    6.871383   -0.674903
     63          1           0        4.424683    2.968632    4.939366
     64          1           0        6.363089    0.757632    5.410583
     65          1           0        6.179005    4.075088    5.835746
     66          1           0        7.086443    3.727822    4.324225
     67          1           0        7.228781    2.682714    5.641216
     68          1           0        4.286267    1.133855    6.793906
     69          1           0        4.549666   -0.531858    6.290057
     70          1           0        2.652254    1.508273    5.404407
     71          1           0        2.315562   -0.216326    5.777353
     72          1           0        3.059890    0.298758    4.197678
     73          1           0        5.916735   -4.981150    2.829241
     74          1           0        6.191425   -3.676259    4.037906
     75          1           0        7.530910   -4.123856    2.901684
     76          1           0        7.274115   -3.451880   -2.163094
     77          1           0        5.578852   -6.067190   -5.147341
     78          1           0        4.970626   -4.394262   -5.705107
     79          1           0        4.136883   -5.446437   -4.545999
     80         12           0       -5.285594   -1.024986    0.413819
     81          6           0       -5.576352    1.742792   -1.852006
     82          6           0       -4.838164    1.257464    2.908781
     83          6           0       -4.578150   -3.433211    2.354802
     84          6           0       -4.617032   -3.038678   -2.350916
     85          7           0       -5.235005    1.186263    0.404721
     86          6           0       -5.418952    2.131032   -0.505184
     87          6           0       -5.515360    3.569096    0.071208
     88          6           0       -4.708641    3.334213    1.439748
     89          6           0       -4.967596    1.840193    1.622787
     90          6           0       -3.210361    3.545555    1.299011
     91          6           0       -6.997495    4.004923    0.345661
     92          6           0       -7.188990    5.498981    0.615613
     93          1           0       -8.406195    6.143551    0.130390
     94          7           0       -5.267195   -1.113775    2.396332
     95          6           0       -5.096306   -0.087014    3.255306
     96          6           0       -5.143139   -0.677100    4.602066
     97          6           0       -5.190719   -2.158100    4.463899
     98          6           0       -4.988451   -2.296217    3.035573
     99          6           0       -5.219977    0.151644    5.851349
    100          6           0       -5.373560   -3.267147    5.455240
    101          8           0       -5.143708   -4.489992    5.147572
    102          6           0       -5.739385   -2.870354    6.822802
    103          7           0       -4.477563   -2.911799    0.083163
    104          6           0       -4.322262   -3.784262    1.094399
    105          6           0       -3.985192   -5.162897    0.578501
    106          6           0       -4.185054   -5.089223   -1.006490
    107          6           0       -4.532022   -3.590946   -1.148434
    108          6           0       -2.575155   -5.663633    0.890672
    109          6           0       -5.142012   -6.133215   -1.644442
    110          6           0       -6.562526   -5.871663   -1.198220
    111          7           0       -5.300698   -0.775403   -1.732232
    112          6           0       -4.962866   -1.741004   -2.705651
    113          6           0       -5.013295   -1.069703   -4.020655
    114          6           0       -5.357241    0.256100   -3.716605
    115          6           0       -5.490597    0.405660   -2.309717
    116          6           0       -4.713193   -1.672780   -5.274587
    117          6           0       -5.627411    1.565631   -4.265105
    118          8           0       -5.747380    2.024000   -5.400548
    119          6           0       -5.657464    2.616474   -3.072956
    120          6           0       -6.881659    3.474234   -3.240621
    121          8           0       -8.018370    2.980779   -3.135769
    122          8           0       -6.511646    4.767256   -3.280237
    123          6           0       -7.692481    5.658129   -3.434504
    124          1           0       -4.462955    1.877069    3.723764
    125          1           0       -4.428568   -4.323167    2.970487
    126          1           0       -4.517242   -3.621258   -3.269231
    127          1           0       -5.025121    4.330611   -0.523374
    128          1           0       -5.146035    3.900088    2.258191
    129          1           0       -2.920659    3.704086    0.270863
    130          1           0       -2.748769    2.647388    1.687965
    131          1           0       -2.881643    4.359928    1.950994
    132          1           0       -7.317486    3.596694    1.312974
    133          1           0       -7.639814    3.697426   -0.456532
    134          1           0       -6.305558    6.085146    0.334720
    135          1           0       -7.277658    5.648113    1.694465
    136          1           0       -5.000527    1.207069    5.648055
    137          1           0       -4.402218   -0.175240    6.502714
    138          1           0       -6.166155    0.026658    6.382190
    139          1           0       -4.976254   -2.206869    7.222664
    140          1           0       -5.912561   -3.803981    7.361530
    141          1           0       -6.669307   -2.292237    6.782412
    142          1           0       -4.662974   -5.903980    0.984102
    143          1           0       -3.238238   -5.244847   -1.544223
    144          1           0       -2.564669   -6.623586    1.440620
    145          1           0       -2.057586   -4.897691    1.452795
    146          1           0       -1.928172   -5.791465    0.024486
    147          1           0       -4.888810   -7.139028   -1.300371
    148          1           0       -5.106958   -6.145415   -2.728708
    149          1           0       -6.610677   -6.368175   -0.224443
    150          1           0       -7.270862   -6.308349   -1.899372
    151          1           0       -6.731915   -4.801566   -1.031342
    152          1           0       -5.473235   -1.341093   -5.969437
    153          1           0       -4.689403   -2.757854   -5.198349
    154          1           0       -3.721212   -1.252521   -5.460700
    155          1           0       -4.737851    3.200339   -3.127663
    156          1           0       -7.512791    6.276414   -4.319446
    157          1           0       -7.799240    6.182958   -2.466563
    158          1           0       -8.639305    5.195907   -3.688153
 ---------------------------------------------------------------------

 SCF Done:  E(RCAM-B3LYP) =  -4069.81208036     A.U. after   19 cycles

 Excitation energies and oscillator strengths:

 Excited State   1:      Singlet-A      1.6688 eV  742.94 nm  f=0.2353  <S**2>=0.000
     310 -> 316       -0.14349
     311 -> 313        0.38025
     312 -> 314        0.57140
 This state for optimization and/or second-order correction.
 Total Energy, E(TD-HF/TD-DFT) =  -4069.75075188
 Copying the excited state density for this state as the 1-particle RhoCI density.

 Excited State   2:      Singlet-A      1.6820 eV  737.10 nm  f=0.4685  <S**2>=0.000
     309 -> 315       -0.14631
     311 -> 313        0.57053
     312 -> 314       -0.37969

 Excited State   3:      Singlet-A      2.1841 eV  567.68 nm  f=0.0840  <S**2>=0.000
     309 -> 313        0.16973
     310 -> 314        0.62039
     312 -> 316        0.26179

 Excited State   4:      Singlet-A      2.1926 eV  565.48 nm  f=0.1117  <S**2>=0.000
     309 -> 313        0.61782
     310 -> 314       -0.16849
     311 -> 315        0.26830

 Excited State   5:      Singlet-A      2.4845 eV  499.04 nm  f=0.0000  <S**2>=0.000
     312 -> 313        0.70709

 The electronic state is 1-A.
 Alpha  occ. eigenvalues --  -46.87886 -46.87498 -19.26364 -19.26309 -19.19109
 Alpha  occ. eigenvalues --  -19.19101 -19.18946 -19.18577 -19.18253 -19.17955
 Alpha  occ. eigenvalues --  -14.42532 -14.42340 -14.41544 -14.41177 -14.39495
 Alpha  occ. eigenvalues --  -14.39195 -14.38674 -14.38446 -10.39167 -10.39028
 Alpha  occ. eigenvalues --  -10.35579 -10.35256 -10.34472 -10.34134 -10.31755
 Alpha  occ. eigenvalues --  -10.31737 -10.31478 -10.31164 -10.30989 -10.30880
 Alpha  occ. eigenvalues --  -10.30651 -10.30604 -10.30307 -10.30241 -10.30216
 Alpha  occ. eigenvalues --  -10.30021 -10.29942 -10.29722 -10.29703 -10.29346
 Alpha  occ. eigenvalues --  -10.29273 -10.29259 -10.28802 -10.28606 -10.28583
 Alpha  occ. eigenvalues --  -10.28552 -10.28452 -10.28261 -10.28167 -10.28006
 Alpha  occ. eigenvalues --  -10.27879 -10.27860 -10.27805 -10.27679 -10.27620
 Alpha  occ. eigenvalues --  -10.27575 -10.27547 -10.27512 -10.27489 -10.27345
 Alpha  occ. eigenvalues --  -10.27337 -10.27325 -10.27247 -10.27239 -10.27093
 Alpha  occ. eigenvalues --  -10.26963 -10.26741 -10.26598 -10.26548 -10.26325
 Alpha  occ. eigenvalues --  -10.26303 -10.26280 -10.26111 -10.25913 -10.25906
 Alpha  occ. eigenvalues --  -10.25874 -10.25754 -10.25732 -10.25554 -10.24987
 Alpha  occ. eigenvalues --  -10.24918 -10.24888 -10.24855 -10.24737 -10.24535
 Alpha  occ. eigenvalues --  -10.24514  -3.16629  -3.16248  -1.91511  -1.91130
 Alpha  occ. eigenvalues --   -1.91097  -1.90939  -1.90718  -1.90556  -1.16714
 Alpha  occ. eigenvalues --   -1.16598  -1.08710  -1.08570  -1.07351  -1.06887
 Alpha  occ. eigenvalues --   -1.06829  -1.06730  -1.04662  -1.04345  -1.03853
 Alpha  occ. eigenvalues --   -1.03501  -1.03325  -1.02866  -1.02502  -1.01947
 Alpha  occ. eigenvalues --   -0.92057  -0.91852  -0.89629  -0.89304  -0.89244
 Alpha  occ. eigenvalues --   -0.89019  -0.88398  -0.87996  -0.87950  -0.87751
 Alpha  occ. eigenvalues --   -0.87657  -0.87524  -0.87370  -0.86985  -0.85049
 Alpha  occ. eigenvalues --   -0.84865  -0.84054  -0.83657  -0.83083  -0.82778
 Alpha  occ. eigenvalues --   -0.82730  -0.82518  -0.81668  -0.81492  -0.80684
 Alpha  occ. eigenvalues --   -0.80317  -0.78885  -0.78496  -0.77306  -0.77008
 Alpha  occ. eigenvalues --   -0.77000  -0.76749  -0.75995  -0.75715  -0.75001
 Alpha  occ. eigenvalues --   -0.74571  -0.72861  -0.72544  -0.71758  -0.71401
 Alpha  occ. eigenvalues --   -0.70032  -0.69533  -0.68947  -0.68694  -0.67734
 Alpha  occ. eigenvalues --   -0.67453  -0.67287  -0.67083  -0.65355  -0.65147
 Alpha  occ. eigenvalues --   -0.64942  -0.64708  -0.64623  -0.64517  -0.64375
 Alpha  occ. eigenvalues --   -0.64002  -0.62385  -0.62169  -0.60542  -0.60179
 Alpha  occ. eigenvalues --   -0.59871  -0.59663  -0.59077  -0.58832  -0.58594
 Alpha  occ. eigenvalues --   -0.58277  -0.57669  -0.57458  -0.57410  -0.57067
 Alpha  occ. eigenvalues --   -0.56395  -0.56072  -0.56056  -0.55790  -0.55615
 Alpha  occ. eigenvalues --   -0.55445  -0.55338  -0.55071  -0.54624  -0.54319
 Alpha  occ. eigenvalues --   -0.53954  -0.53784  -0.53396  -0.53304  -0.53079
 Alpha  occ. eigenvalues --   -0.53015  -0.53006  -0.52846  -0.52779  -0.52567
 Alpha  occ. eigenvalues --   -0.52544  -0.52197  -0.51994  -0.51759  -0.51687
 Alpha  occ. eigenvalues --   -0.51543  -0.51284  -0.51067  -0.50674  -0.50337
 Alpha  occ. eigenvalues --   -0.50142  -0.50014  -0.49838  -0.49643  -0.49597
 Alpha  occ. eigenvalues --   -0.49357  -0.49300  -0.49161  -0.49082  -0.48978
 Alpha  occ. eigenvalues --   -0.48673  -0.48571  -0.48545  -0.48439  -0.48217
 Alpha  occ. eigenvalues --   -0.48149  -0.47782  -0.47449  -0.47386  -0.46951
 Alpha  occ. eigenvalues --   -0.46886  -0.46619  -0.46547  -0.46451  -0.46413
 Alpha  occ. eigenvalues --   -0.46255  -0.46113  -0.45907  -0.45899  -0.45699
 Alpha  occ. eigenvalues --   -0.45309  -0.44970  -0.44662  -0.44602  -0.44388
 Alpha  occ. eigenvalues --   -0.44335  -0.44248  -0.44157  -0.44107  -0.43998
 Alpha  occ. eigenvalues --   -0.43911  -0.43821  -0.43580  -0.43468  -0.43443
 Alpha  occ. eigenvalues --   -0.43231  -0.43114  -0.42844  -0.42803  -0.42757
 Alpha  occ. eigenvalues --   -0.42745  -0.42356  -0.42110  -0.41798  -0.41793
 Alpha  occ. eigenvalues --   -0.41600  -0.41527  -0.41314  -0.41224  -0.40955
 Alpha  occ. eigenvalues --   -0.40931  -0.40822  -0.40673  -0.40591  -0.40555
 Alpha  occ. eigenvalues --   -0.40283  -0.40281  -0.40120  -0.39573  -0.39205
 Alpha  occ. eigenvalues --   -0.38572  -0.38130  -0.37806  -0.37534  -0.37421
 Alpha  occ. eigenvalues --   -0.37330  -0.37089  -0.37050  -0.36805  -0.36678
 Alpha  occ. eigenvalues --   -0.36285  -0.36038  -0.34374  -0.34097  -0.33861
 Alpha  occ. eigenvalues --   -0.33783  -0.33277  -0.33016  -0.31475  -0.31132
 Alpha  occ. eigenvalues --   -0.31127  -0.30815  -0.30112  -0.29862  -0.29544
 Alpha  occ. eigenvalues --   -0.29409  -0.29186  -0.29074  -0.24169  -0.23875
 Alpha  occ. eigenvalues --   -0.21216  -0.20956
 Alpha virt. eigenvalues --   -0.08865  -0.08642  -0.01845  -0.01514  -0.00157
 Alpha virt. eigenvalues --    0.00106   0.02109   0.02340   0.03014   0.03381
 Alpha virt. eigenvalues --    0.04646   0.04882   0.05013   0.05234   0.06129

 Mulliken charges:
               1
     1  Mg   0.838731
     2  C   -0.002971
     3  C   -0.093522
     4  C   -0.046394
     5  C   -0.063942
     6  N   -0.256812
     7  C   -0.052237
     8  C   -0.014070
     9  C   -0.087084
    10  C    0.046297
    11  C    0.104737
    12  C    0.053284
    13  C   -0.072059
    14  H    0.036320
    15  N   -0.433096
    16  C    0.168270
    17  C   -0.176891
    18  C   -0.004363
    19  C    0.148576
    20  C    0.110010
    21  C    0.011504
    22  O   -0.250541
    23  C    0.062683
    24  N   -0.341096
    25  C    0.041278
    26  C   -0.028044
    27  C   -0.023958
    28  C    0.074715
    29  C    0.076185
    30  C    0.035228
    31  C   -0.004440
    32  N   -0.310521
    33  C    0.080472
    34  C   -0.169536
    35  C    0.008382
    36  C    0.082996
    37  C    0.127315
    38  C    0.046058
    39  O   -0.188304
    40  C   -0.005301
    41  C    0.213000
    42  O   -0.257611
    43  O   -0.304584
    44  C    0.157837
    45  H   -0.017183
    46  H   -0.017393
    47  H   -0.041380
    48  H    0.001051
    49  H   -0.003456
    50  H    0.025478
    51  H    0.016355
    52  H    0.017030
    53  H    0.011751
    54  H    0.043762
    55  H    0.017880
    56  H    0.018721
    57  H    0.006495
    58  H    0.026873
    59  H    0.039917
    60  H    0.038026
    61  H    0.034815
    62  H    0.031306
    63  H    0.015564
    64  H    0.009705
    65  H    0.022823
    66  H    0.012835
    67  H    0.004968
    68  H    0.005890
    69  H    0.005303
    70  H    0.007152
    71  H    0.018224
    72  H    0.029504
    73  H    0.047766
    74  H    0.009258
    75  H    0.046147
    76  H    0.035416
    77  H    0.043087
    78  H    0.046809
    79  H    0.052996
    80  Mg   0.838175
    81  C   -0.017237
    82  C   -0.088121
    83  C   -0.045300
    84  C   -0.063428
    85  N   -0.254650
    86  C   -0.049969
    87  C   -0.015067
    88  C   -0.090401
    89  C    0.045762
    90  C    0.114323
    91  C    0.062579
    92  C   -0.077637
    93  H    0.034279
    94  N   -0.423561
    95  C    0.163171
    96  C   -0.174756
    97  C   -0.007771
    98  C    0.152291
    99  C    0.099467
   100  C    0.015373
   101  O   -0.252831
   102  C    0.061290
   103  N   -0.350021
   104  C    0.038407
   105  C   -0.020527
   106  C   -0.034874
   107  C    0.089075
   108  C    0.072368
   109  C    0.034594
   110  C   -0.007556
   111  N   -0.324026
   112  C    0.078306
   113  C   -0.163113
   114  C    0.001687
   115  C    0.096366
   116  C    0.131661
   117  C    0.041847
   118  O   -0.189216
   119  C    0.001124
   120  C    0.211179
   121  O   -0.250951
   122  O   -0.305968
   123  C    0.152127
   124  H   -0.019528
   125  H   -0.015100
   126  H   -0.040191
   127  H   -0.001587
   128  H   -0.004436
   129  H    0.021111
   130  H    0.015132
   131  H    0.017514
   132  H    0.013989
   133  H    0.037459
   134  H    0.020422
   135  H    0.019735
   136  H    0.008811
   137  H    0.025736
   138  H    0.039474
   139  H    0.037884
   140  H    0.036198
   141  H    0.033719
   142  H    0.013799
   143  H    0.015005
   144  H    0.024813
   145  H    0.012730
   146  H    0.010430
   147  H    0.006754
   148  H    0.003297
   149  H    0.010837
   150  H    0.017273
   151  H    0.029590
   152  H    0.045270
   153  H    0.008752
   154  H    0.046535
   155  H    0.033795
   156  H    0.043201
   157  H    0.049537
   158  H    0.053566
 Sum of Mulliken charges =  -0.00000

 Dipole moment (field-independent basis, Debye):
    X=              3.2783    Y=              4.9857    Z=              1.2985  Tot=              6.1066
 Quadrupole moment (field-independent basis, Debye-Ang):
   XX=           -521.3008   YY=           -515.1610   ZZ=           -482.8888
   XY=             10.3113   XZ=            -40.9612   YZ=             13.0677

 Normal termination of Gaussian 16 at Fri Sep 10 17:22:51 2021.
