 Gaussian 16, Revision A.03,
 Gaussian 16:  ES64L-G16RevA.03 25-Dec-2016

 -----------------------------------
 #p cam-b3lyp/Def2SVP td=(nstates=5)
 -----------------------------------

 --------------------------------
 TDDFT excited states in gaussian
 --------------------------------
 Symbolic Z-matrix:
 Charge =  0 Multiplicity = 1

                         Standard orientation:
 ---------------------------------------------------------------------
 Center     Atomic      Atomic             Coordinates (Angstroms)
 Number     Number       Type             X           Y           Z
 ---------------------------------------------------------------------
      1         12           0       -4.112481    0.157064    0.372147
      2          6           0       -3.428837    3.450299    1.596667
      3          6           0       -5.045216    1.606802   -2.572566
      4          6           0       -5.149902   -2.686479   -0.573705
      5          6           0       -4.217680   -0.895942    3.692654
      6          7           0       -4.182180    2.270306   -0.283598
      7          6           0       -3.836618    3.432712    0.260984
      8          6           0       -3.876212    4.622121   -0.744557
      9          6           0       -4.915474    4.027313   -1.797237
     10          6           0       -4.676430    2.545954   -1.564091
     11          6           0       -6.369355    4.348329   -1.466055
     12          6           0       -2.481691    4.889320   -1.404593
     13          6           0       -2.353720    6.224460   -2.143768
     14          1           0       -1.079894    6.926780   -2.105547
     15          7           0       -4.506758   -0.525326   -1.439410
     16          6           0       -4.853487    0.209044   -2.523738
     17          6           0       -5.040831   -0.757139   -3.627401
     18          6           0       -4.960262   -2.127916   -3.050710
     19          6           0       -4.894387   -1.830761   -1.642613
     20          6           0       -5.219294   -0.348403   -5.057379
     21          6           0       -4.955611   -3.489884   -3.669704
     22          8           0       -5.112388   -4.552613   -2.976449
     23          6           0       -4.849914   -3.543318   -5.139063
     24          7           0       -4.831416   -1.508078    1.405620
     25          6           0       -5.158316   -2.632829    0.759823
     26          6           0       -5.373017   -3.768612    1.715773
     27          6           0       -4.885221   -3.243618    3.142724
     28          6           0       -4.531535   -1.787876    2.750307
     29          6           0       -6.813784   -4.286012    1.827574
     30          6           0       -3.814778   -4.090832    3.875389
     31          6           0       -2.506337   -4.029810    3.119509
     32          7           0       -3.698063    1.042256    2.310120
     33          6           0       -3.830297    0.427365    3.563554
     34          6           0       -3.541128    1.454408    4.581214
     35          6           0       -3.275242    2.607093    3.844691
     36          6           0       -3.416667    2.324928    2.455924
     37          6           0       -3.602952    1.271450    5.990873
     38          6           0       -2.928656    4.017633    3.908823
     39          8           0       -2.594315    4.788339    4.809779
     40          6           0       -3.133354    4.650188    2.461826
     41          6           0       -1.907562    5.462096    2.143160
     42          8           0       -0.801130    4.910412    1.973394
     43          8           0       -2.270838    6.721400    1.855537
     44          6           0       -1.103996    7.573016    1.501443
     45          1           0       -5.582419    1.962463   -3.453962
     46          1           0       -5.403284   -3.709480   -0.859548
     47          1           0       -4.148546   -1.172135    4.746405
     48          1           0       -4.258766    5.555054   -0.330174
     49          1           0       -4.656672    4.296373   -2.821127
     50          1           0       -6.459863    4.824024   -0.489611
     51          1           0       -6.887775    3.389318   -1.471841
     52          1           0       -6.825772    4.940463   -2.259678
     53          1           0       -2.340931    4.201451   -2.238310
     54          1           0       -1.683394    4.808155   -0.666041
     55          1           0       -3.170478    6.900637   -1.889600
     56          1           0       -2.478645    6.037673   -3.210400
     57          1           0       -5.402259    0.721557   -5.148233
     58          1           0       -6.140808   -0.812333   -5.408507
     59          1           0       -4.385443   -0.667892   -5.682640
     60          1           0       -5.685008   -2.998569   -5.579989
     61          1           0       -4.771961   -4.598957   -5.396743
     62          1           0       -3.944921   -3.018963   -5.447263
     63          1           0       -4.778670   -4.636190    1.432075
     64          1           0       -5.706435   -3.177440    3.856798
     65          1           0       -6.914943   -5.349928    1.611810
     66          1           0       -7.438197   -3.690874    1.161834
     67          1           0       -7.290709   -4.105850    2.790642
     68          1           0       -4.117140   -5.136956    3.909269
     69          1           0       -3.634558   -3.764355    4.899686
     70          1           0       -2.630875   -4.795918    2.355048
     71          1           0       -1.673335   -4.270117    3.781000
     72          1           0       -2.386606   -3.074887    2.607382
     73          1           0       -2.721013    1.763130    6.401243
     74          1           0       -3.624464    0.213723    6.252318
     75          1           0       -4.541018    1.777178    6.219183
     76          1           0       -4.030532    5.266276    2.513098
     77          1           0       -1.117819    8.431684    2.172809
     78          1           0       -1.175086    7.766513    0.430971
     79          1           0       -0.119765    7.157041    1.719603
     80         12           0        3.578069   -1.577920   -0.569747
     81          6           0        5.960984    1.072361   -0.149310
     82          6           0        1.539417    0.697257   -2.086987
     83          6           0        1.284554   -3.770392   -0.553345
     84          6           0        5.271273   -3.310407    1.935707
     85          7           0        3.829632    0.576256   -1.003856
     86          6           0        4.802399    1.462406   -0.852859
     87          6           0        4.551120    2.820392   -1.561600
     88          6           0        2.947154    2.767982   -1.619984
     89          6           0        2.751389    1.253345   -1.605332
     90          6           0        2.280661    3.347717   -0.383448
     91          6           0        5.176973    2.868914   -2.999645
     92          6           0        5.239042    4.263180   -3.627277
     93          1           0        6.379745    4.593849   -4.476932
     94          7           0        1.906879   -1.696238   -1.633566
     95          6           0        1.225465   -0.675396   -2.194657
     96          6           0        0.057248   -1.283564   -2.850069
     97          6           0        0.016261   -2.727066   -2.490444
     98          6           0        1.079044   -2.783969   -1.506903
     99          6           0       -0.839519   -0.523331   -3.783497
    100          6           0       -0.846277   -3.865013   -2.945758
    101          8           0       -0.864381   -4.986389   -2.325251
    102          6           0       -1.738356   -3.597135   -4.083265
    103          7           0        3.185223   -3.198162    0.672365
    104          6           0        2.152435   -4.023297    0.426520
    105          6           0        2.230612   -5.265020    1.282330
    106          6           0        3.667088   -5.213858    1.983417
    107          6           0        4.156562   -3.846481    1.457982
    108          6           0        1.147419   -5.405244    2.351633
    109          6           0        4.587141   -6.450894    1.793943
    110          6           0        5.015322   -6.559029    0.348134
    111          7           0        5.403348   -1.300039    0.552387
    112          6           0        5.912660   -2.133066    1.572554
    113          6           0        7.116962   -1.471015    2.114568
    114          6           0        7.212374   -0.278220    1.382012
    115          6           0        6.131609   -0.192712    0.463245
    116          6           0        7.924654   -1.957115    3.181086
    117          6           0        7.975635    0.933013    1.184408
    118          8           0        9.041909    1.368226    1.617286
    119          6           0        7.128398    1.921021    0.272040
    120          6           0        8.034686    2.450523   -0.805358
    121          8           0        8.501062    1.688114   -1.670147
    122          8           0        8.026389    3.795435   -0.766550
    123          6           0        8.902165    4.367519   -1.823690
    124          1           0        0.734259    1.375397   -2.371126
    125          1           0        0.581998   -4.606534   -0.580937
    126          1           0        5.910329   -3.832697    2.650884
    127          1           0        4.874631    3.690795   -1.003472
    128          1           0        2.571603    3.192030   -2.547628
    129          1           0        2.999468    3.592393    0.384402
    130          1           0        1.597270    2.585407   -0.032871
    131          1           0        1.660229    4.205959   -0.656965
    132          1           0        4.494535    2.376020   -3.703965
    133          1           0        6.154097    2.426381   -3.005037
    134          1           0        5.067441    5.055677   -2.888727
    135          1           0        4.407149    4.365480   -4.328353
    136          1           0       -0.659361    0.557101   -3.723517
    137          1           0       -1.863728   -0.648743   -3.415881
    138          1           0       -0.785512   -0.889455   -4.810966
    139          1           0       -2.402158   -2.772330   -3.835191
    140          1           0       -2.207796   -4.554362   -4.318230
    141          1           0       -1.131330   -3.267669   -4.933900
    142          1           0        2.168271   -6.158744    0.673672
    143          1           0        3.584041   -5.119196    3.076113
    144          1           0        0.566163   -6.342531    2.263814
    145          1           0        0.493795   -4.545280    2.290212
    146          1           0        1.503204   -5.352100    3.379151
    147          1           0        4.040488   -7.368417    2.025194
    148          1           0        5.469298   -6.433828    2.425204
    149          1           0        4.169786   -7.069957   -0.122088
    150          1           0        5.928149   -7.144960    0.261751
    151          1           0        5.099235   -5.567931   -0.112657
    152          1           0        8.954460   -1.811897    2.882903
    153          1           0        7.715198   -3.003436    3.393433
    154          1           0        7.595151   -1.300062    3.990396
    155          1           0        6.748676    2.716080    0.914911
    156          1           0        9.617610    5.027425   -1.323351
    157          1           0        8.218474    4.831223   -2.559428
    158          1           0        9.568202    3.689243   -2.344078
 ---------------------------------------------------------------------

 SCF Done:  E(RCAM-B3LYP) =  -4069.81149690     A.U. after   19 cycles

 Excitation energies and oscillator strengths:

 Excited State   1:      Singlet-A      1.6181 eV  766.25 nm  f=0.1618  <S**2>=0.000
     309 -> 315        0.11391
     310 -> 316        0.11024
     311 -> 313        0.48797
     312 -> 313       -0.10053
     312 -> 314       -0.47269
 This state for optimization and/or second-order correction.
 Total Energy, E(TD-HF/TD-DFT) =  -4069.75203404
 Copying the excited state density for this state as the 1-particle RhoCI density.

 Excited State   2:      Singlet-A      1.7092 eV  725.38 nm  f=0.5702  <S**2>=0.000
     309 -> 315        0.12846
     310 -> 316       -0.12861
     311 -> 313        0.47665
     312 -> 314        0.48920

 Excited State   3:      Singlet-A      2.1037 eV  589.35 nm  f=0.0001  <S**2>=0.000
     312 -> 313        0.69861

 Excited State   4:      Singlet-A      2.1740 eV  570.31 nm  f=0.0004  <S**2>=0.000
     309 -> 313        0.45032
     310 -> 314        0.45968
     311 -> 315       -0.18261
     312 -> 316        0.18451

 Excited State   5:      Singlet-A      2.1955 eV  564.71 nm  f=0.1659  <S**2>=0.000
     309 -> 313        0.45539
     310 -> 314       -0.44369
     311 -> 315       -0.20263
     312 -> 316       -0.19456

 The electronic state is 1-A.
 Alpha  occ. eigenvalues --  -46.88153 -46.87362 -19.26752 -19.26117 -19.19538
 Alpha  occ. eigenvalues --  -19.19093 -19.18921 -19.18552 -19.18344 -19.17770
 Alpha  occ. eigenvalues --  -14.42840 -14.42165 -14.41777 -14.41079 -14.39821
 Alpha  occ. eigenvalues --  -14.39061 -14.38949 -14.38302 -10.39568 -10.38843
 Alpha  occ. eigenvalues --  -10.35705 -10.35030 -10.34774 -10.33945 -10.32133
 Alpha  occ. eigenvalues --  -10.31794 -10.31563 -10.31355 -10.30967 -10.30960
 Alpha  occ. eigenvalues --  -10.30850 -10.30693 -10.30546 -10.30176 -10.30117
 Alpha  occ. eigenvalues --  -10.30079 -10.30039 -10.29869 -10.29654 -10.29636
 Alpha  occ. eigenvalues --  -10.29251 -10.29162 -10.29141 -10.29128 -10.28777
 Alpha  occ. eigenvalues --  -10.28557 -10.28456 -10.28320 -10.28195 -10.28116
 Alpha  occ. eigenvalues --  -10.28099 -10.28030 -10.27904 -10.27795 -10.27708
 Alpha  occ. eigenvalues --  -10.27677 -10.27609 -10.27569 -10.27563 -10.27379
 Alpha  occ. eigenvalues --  -10.27343 -10.27317 -10.27193 -10.27183 -10.27175
 Alpha  occ. eigenvalues --  -10.27132 -10.26752 -10.26604 -10.26595 -10.26415
 Alpha  occ. eigenvalues --  -10.26362 -10.26278 -10.26147 -10.26054 -10.25967
 Alpha  occ. eigenvalues --  -10.25659 -10.25597 -10.25543 -10.25255 -10.25224
 Alpha  occ. eigenvalues --  -10.25077 -10.25076 -10.24679 -10.24579 -10.24561
 Alpha  occ. eigenvalues --  -10.24416  -3.16894  -3.16111  -1.91773  -1.91362
 Alpha  occ. eigenvalues --   -1.91205  -1.90993  -1.90582  -1.90419  -1.17105
 Alpha  occ. eigenvalues --   -1.16408  -1.09010  -1.08380  -1.07459  -1.07134
 Alpha  occ. eigenvalues --   -1.06704  -1.06571  -1.04985  -1.04164  -1.04113
 Alpha  occ. eigenvalues --   -1.03608  -1.03365  -1.02771  -1.02757  -1.01818
 Alpha  occ. eigenvalues --   -0.92364  -0.91682  -0.89787  -0.89645  -0.89247
 Alpha  occ. eigenvalues --   -0.88711  -0.88514  -0.88232  -0.88066  -0.87992
 Alpha  occ. eigenvalues --   -0.87706  -0.87510  -0.87379  -0.86817  -0.85431
 Alpha  occ. eigenvalues --   -0.84634  -0.84153  -0.83670  -0.83347  -0.83053
 Alpha  occ. eigenvalues --   -0.82593  -0.82284  -0.81984  -0.81328  -0.80979
 Alpha  occ. eigenvalues --   -0.80163  -0.79177  -0.78345  -0.77598  -0.77304
 Alpha  occ. eigenvalues --   -0.76842  -0.76580  -0.76320  -0.75439  -0.75145
 Alpha  occ. eigenvalues --   -0.74557  -0.73126  -0.72402  -0.72012  -0.71247
 Alpha  occ. eigenvalues --   -0.70074  -0.69538  -0.69294  -0.68475  -0.68013
 Alpha  occ. eigenvalues --   -0.67699  -0.67335  -0.66927  -0.65731  -0.65225
 Alpha  occ. eigenvalues --   -0.64990  -0.64938  -0.64518  -0.64484  -0.64353
 Alpha  occ. eigenvalues --   -0.63955  -0.62689  -0.62027  -0.60769  -0.60236
 Alpha  occ. eigenvalues --   -0.60140  -0.59419  -0.59335  -0.58857  -0.58712
 Alpha  occ. eigenvalues --   -0.58142  -0.57994  -0.57605  -0.57278  -0.57034
 Alpha  occ. eigenvalues --   -0.56680  -0.56411  -0.55934  -0.55862  -0.55640
 Alpha  occ. eigenvalues --   -0.55626  -0.55280  -0.55018  -0.54826  -0.54369
 Alpha  occ. eigenvalues --   -0.54269  -0.53848  -0.53638  -0.53481  -0.53393
 Alpha  occ. eigenvalues --   -0.53273  -0.52948  -0.52833  -0.52600  -0.52544
 Alpha  occ. eigenvalues --   -0.52266  -0.52219  -0.52110  -0.51982  -0.51612
 Alpha  occ. eigenvalues --   -0.51549  -0.51369  -0.51099  -0.50899  -0.50477
 Alpha  occ. eigenvalues --   -0.50235  -0.50189  -0.49929  -0.49697  -0.49669
 Alpha  occ. eigenvalues --   -0.49487  -0.49339  -0.49022  -0.48925  -0.48843
 Alpha  occ. eigenvalues --   -0.48779  -0.48713  -0.48521  -0.48215  -0.48147
 Alpha  occ. eigenvalues --   -0.48030  -0.47932  -0.47610  -0.47235  -0.47145
 Alpha  occ. eigenvalues --   -0.46979  -0.46855  -0.46654  -0.46475  -0.46414
 Alpha  occ. eigenvalues --   -0.46199  -0.46173  -0.45956  -0.45826  -0.45542
 Alpha  occ. eigenvalues --   -0.45446  -0.44977  -0.44926  -0.44855  -0.44495
 Alpha  occ. eigenvalues --   -0.44435  -0.44363  -0.44244  -0.44093  -0.43885
 Alpha  occ. eigenvalues --   -0.43820  -0.43757  -0.43712  -0.43598  -0.43366
 Alpha  occ. eigenvalues --   -0.43285  -0.43123  -0.43053  -0.42847  -0.42677
 Alpha  occ. eigenvalues --   -0.42604  -0.42321  -0.42287  -0.42066  -0.41921
 Alpha  occ. eigenvalues --   -0.41700  -0.41489  -0.41358  -0.41269  -0.41193
 Alpha  occ. eigenvalues --   -0.41125  -0.40796  -0.40747  -0.40614  -0.40397
 Alpha  occ. eigenvalues --   -0.40313  -0.40186  -0.39894  -0.39575  -0.39204
 Alpha  occ. eigenvalues --   -0.38732  -0.38250  -0.38101  -0.37708  -0.37594
 Alpha  occ. eigenvalues --   -0.37359  -0.37127  -0.36998  -0.36861  -0.36565
 Alpha  occ. eigenvalues --   -0.36501  -0.35938  -0.34649  -0.34248  -0.33951
 Alpha  occ. eigenvalues --   -0.33611  -0.33559  -0.32883  -0.31596  -0.31379
 Alpha  occ. eigenvalues --   -0.30889  -0.30654  -0.30409  -0.29881  -0.29702
 Alpha  occ. eigenvalues --   -0.29674  -0.29020  -0.28915  -0.24439  -0.23739
 Alpha  occ. eigenvalues --   -0.21512  -0.20814
 Alpha virt. eigenvalues --   -0.09175  -0.08490  -0.02130  -0.01402  -0.00502
 Alpha virt. eigenvalues --    0.00352   0.01845   0.02404   0.02582   0.03567
 Alpha virt. eigenvalues --    0.04240   0.04518   0.04992   0.05417   0.05588

 Mulliken charges:
               1
     1  Mg   0.836607
     2  C   -0.004269
     3  C   -0.095908
     4  C   -0.043215
     5  C   -0.063001
     6  N   -0.256936
     7  C   -0.053298
     8  C   -0.013504
     9  C   -0.086022
    10  C    0.043947
    11  C    0.104630
    12  C    0.050409
    13  C   -0.071541
    14  H    0.034138
    15  N   -0.433659
    16  C    0.165089
    17  C   -0.187164
    18  C   -0.005038
    19  C    0.151256
    20  C    0.113081
    21  C   -0.001462
    22  O   -0.240581
    23  C    0.068179
    24  N   -0.340544
    25  C    0.039241
    26  C   -0.029424
    27  C   -0.025822
    28  C    0.076771
    29  C    0.075720
    30  C    0.045861
    31  C   -0.022931
    32  N   -0.311023
    33  C    0.081750
    34  C   -0.168538
    35  C    0.008685
    36  C    0.084135
    37  C    0.127101
    38  C    0.046686
    39  O   -0.187038
    40  C   -0.005848
    41  C    0.213167
    42  O   -0.258359
    43  O   -0.304139
    44  C    0.156893
    45  H   -0.017646
    46  H   -0.014124
    47  H   -0.040211
    48  H    0.002047
    49  H   -0.004740
    50  H    0.025971
    51  H    0.017404
    52  H    0.017341
    53  H    0.007352
    54  H    0.044490
    55  H    0.020475
    56  H    0.018347
    57  H    0.005550
    58  H    0.028726
    59  H    0.035307
    60  H    0.035874
    61  H    0.040004
    62  H    0.027739
    63  H    0.022162
    64  H    0.009803
    65  H    0.024898
    66  H    0.012070
    67  H    0.004694
    68  H    0.006567
    69  H    0.002517
    70  H    0.016981
    71  H    0.022436
    72  H    0.031794
    73  H    0.048497
    74  H    0.010127
    75  H    0.046858
    76  H    0.036004
    77  H    0.044842
    78  H    0.045806
    79  H    0.053398
    80  Mg   0.838271
    81  C   -0.016752
    82  C   -0.089543
    83  C   -0.046431
    84  C   -0.065126
    85  N   -0.255016
    86  C   -0.047883
    87  C   -0.015132
    88  C   -0.091944
    89  C    0.047745
    90  C    0.116869
    91  C    0.062865
    92  C   -0.076715
    93  H    0.033039
    94  N   -0.423169
    95  C    0.162864
    96  C   -0.177655
    97  C   -0.007520
    98  C    0.149160
    99  C    0.095624
   100  C    0.022672
   101  O   -0.247997
   102  C    0.035376
   103  N   -0.349973
   104  C    0.036529
   105  C   -0.017115
   106  C   -0.034887
   107  C    0.088892
   108  C    0.067340
   109  C    0.034972
   110  C   -0.007496
   111  N   -0.324099
   112  C    0.078591
   113  C   -0.163397
   114  C    0.002441
   115  C    0.096282
   116  C    0.131423
   117  C    0.042282
   118  O   -0.188620
   119  C    0.000909
   120  C    0.211039
   121  O   -0.251664
   122  O   -0.305224
   123  C    0.152380
   124  H   -0.018684
   125  H   -0.015524
   126  H   -0.041285
   127  H   -0.000524
   128  H   -0.008131
   129  H    0.023304
   130  H    0.022192
   131  H    0.019024
   132  H    0.012785
   133  H    0.036888
   134  H    0.020714
   135  H    0.018132
   136  H    0.005088
   137  H    0.043607
   138  H    0.032392
   139  H    0.046949
   140  H    0.044196
   141  H    0.030743
   142  H    0.013796
   143  H    0.011615
   144  H    0.023843
   145  H    0.017717
   146  H    0.003626
   147  H    0.005330
   148  H    0.003320
   149  H    0.010775
   150  H    0.017367
   151  H    0.030536
   152  H    0.045335
   153  H    0.007773
   154  H    0.047302
   155  H    0.036575
   156  H    0.043436
   157  H    0.049108
   158  H    0.053034
 Sum of Mulliken charges =  -0.00000

 Dipole moment (field-independent basis, Debye):
    X=             -6.8396    Y=              2.2305    Z=             -4.0850  Tot=              8.2730
 Quadrupole moment (field-independent basis, Debye-Ang):
   XX=           -548.4192   YY=           -495.2847   ZZ=           -489.9019
   XY=            -17.0023   XZ=              6.2038   YZ=            -58.1723

 Normal termination of Gaussian 16 at Thu Sep  9 08:46:46 2021.
