 Gaussian 16, Revision A.03,
 Gaussian 16:  ES64L-G16RevA.03 25-Dec-2016

 -----------------------------------
 #p cam-b3lyp/Def2SVP td=(nstates=5)
 -----------------------------------

 --------------------------------
 TDDFT excited states in gaussian
 --------------------------------
 Symbolic Z-matrix:
 Charge =  0 Multiplicity = 1

                         Standard orientation:
 ---------------------------------------------------------------------
 Center     Atomic      Atomic             Coordinates (Angstroms)
 Number     Number       Type             X           Y           Z
 ---------------------------------------------------------------------
      1         12           0      -15.794027   -0.761770   -0.035570
      2          6           0      -16.000367    2.727057    0.737556
      3          6           0      -16.645890    0.049765   -3.238507
      4          6           0      -16.062606   -3.864243   -0.634859
      5          6           0      -16.080005   -1.385021    3.381363
      6          7           0      -16.239312    1.177764   -1.005403
      7          6           0      -16.225185    2.447570   -0.612255
      8          6           0      -16.396991    3.459241   -1.784594
      9          6           0      -17.142892    2.511661   -2.827533
     10          6           0      -16.618451    1.167888   -2.353024
     11          6           0      -18.661414    2.524545   -2.684605
     12          6           0      -15.022898    3.958557   -2.345202
     13          6           0      -15.097292    5.183194   -3.261763
     14          1           0      -14.021487    6.161709   -3.211754
     15          7           0      -15.802065   -1.738994   -1.752491
     16          6           0      -16.162503   -1.247524   -2.962379
     17          6           0      -15.996565   -2.361446   -3.920670
     18          6           0      -15.692320   -3.592326   -3.139347
     19          6           0      -15.868290   -3.113680   -1.792012
     20          6           0      -16.080318   -2.188258   -5.406180
     21          6           0      -15.314759   -4.982448   -3.543254
     22          8           0      -15.321757   -5.956832   -2.715546
     23          6           0      -15.018045   -5.193812   -4.971654
     24          7           0      -16.256635   -2.405232    1.165539
     25          6           0      -16.248289   -3.647084    0.668831
     26          6           0      -16.328162   -4.672428    1.760724
     27          6           0      -16.147531   -3.873513    3.131440
     28          6           0      -16.072752   -2.436524    2.558954
     29          6           0      -17.624445   -5.492614    1.815083
     30          6           0      -15.018173   -4.349563    4.079250
     31          6           0      -13.670675   -4.081147    3.447348
     32          7           0      -15.826300    0.431593    1.777131
     33          6           0      -15.976568   -0.034866    3.091098
     34          6           0      -16.046457    1.150649    3.965020
     35          6           0      -15.948000    2.231745    3.091302
     36          6           0      -15.850834    1.752404    1.753736
     37          6           0      -16.241884    1.136747    5.374292
     38          6           0      -15.927058    3.680791    2.974324
     39          8           0      -15.882976    4.614951    3.776131
     40          6           0      -16.082746    4.061596    1.435956
     41          6           0      -15.032875    5.089830    1.113754
     42          8           0      -13.820665    4.793902    1.132205
     43          8           0      -15.622542    6.183704    0.607521
     44          6           0      -14.633966    7.232071    0.239010
     45          1           0      -17.133649    0.157154   -4.209331
     46          1           0      -16.049979   -4.945679   -0.785771
     47          1           0      -16.084110   -1.503042    4.466493
     48          1           0      -17.021697    4.321982   -1.552551
     49          1           0      -16.823466    2.702853   -3.851806
     50          1           0      -18.973901    3.084815   -1.803487
     51          1           0      -18.954123    1.478307   -2.594059
     52          1           0      -19.133284    2.889807   -3.597129
     53          1           0      -14.633391    3.223269   -3.049259
     54          1           0      -14.324267    4.158720   -1.532075
     55          1           0      -16.066621    5.677178   -3.189025
     56          1           0      -15.044955    4.840109   -4.295084
     57          1           0      -16.478738   -1.210339   -5.673543
     58          1           0      -16.827938   -2.894164   -5.767387
     59          1           0      -15.125818   -2.380844   -5.896253
     60          1           0      -15.890094   -4.918089   -5.564998
     61          1           0      -14.681050   -6.226098   -5.059228
     62          1           0      -14.217541   -4.516228   -5.270023
     63          1           0      -15.528875   -5.406459    1.667105
     64          1           0      -17.045780   -3.911139    3.748211
     65          1           0      -17.464269   -6.569297    1.753411
     66          1           0      -18.275518   -5.147493    1.012408
     67          1           0      -18.245129   -5.308951    2.691688
     68          1           0      -15.087707   -5.424567    4.241969
     69          1           0      -15.042076   -3.864206    5.055010
     70          1           0      -13.529619   -4.944925    2.798640
     71          1           0      -12.894265   -4.036062    4.211787
     72          1           0      -13.698637   -3.196619    2.810705
     73          1           0      -15.545980    1.867644    5.785966
     74          1           0      -16.065304    0.144461    5.788769
     75          1           0      -17.288387    1.434876    5.435982
     76          1           0      -17.091633    4.453452    1.310578
     77          1           0      -14.917515    8.141239    0.769339
     78          1           0      -14.611699    7.267784   -0.850317
     79          1           0      -13.617816    7.087281    0.607540
     80         12           0       15.963022   -0.775697    0.184534
     81          6           0       15.761181    2.789576   -0.172069
     82          6           0       15.109392   -1.003763   -3.109991
     83          6           0       15.691556   -3.912841    0.574469
     84          6           0       15.671316   -0.308724    3.625832
     85          7           0       15.518870    0.765052   -1.338974
     86          6           0       15.533657    2.089006   -1.374938
     87          6           0       15.370584    2.695738   -2.794388
     88          6           0       14.615245    1.464846   -3.496704
     89          6           0       15.136053    0.326850   -2.621258
     90          6           0       13.103652    1.525002   -3.352522
     91          6           0       16.750528    2.989993   -3.480797
     92          6           0       16.671795    3.864061   -4.734421
     93          1           0       17.755724    4.807444   -4.994379
     94          7           0       15.955769   -2.240415   -1.154536
     95          6           0       15.602313   -2.153155   -2.454057
     96          6           0       15.750248   -3.509887   -3.003204
     97          6           0       16.061562   -4.438190   -1.882467
     98          6           0       15.890774   -3.550550   -0.749767
     99          6           0       15.674890   -3.805484   -4.473018
    100          6           0       16.436785   -5.888476   -1.836860
    101          8           0       16.429499   -6.551705   -0.740088
    102          6           0       16.722523   -6.532607   -3.127182
    103          7           0       15.505315   -1.957259    1.832789
    104          6           0       15.505562   -3.298853    1.743125
    105          6           0       15.421089   -3.936876    3.109207
    106          6           0       15.608597   -2.740936    4.154272
    107          6           0       15.683127   -1.553578    3.169371
    108          6           0       14.122194   -4.681803    3.416340
    109          6           0       16.738026   -2.898481    5.208902
    110          6           0       18.087986   -2.854675    4.529879
    111          7           0       15.938779    0.916175    1.528053
    112          6           0       15.781046    0.889049    2.931070
    113          6           0       15.714249    2.292038    3.388881
    114          6           0       15.815437    3.043771    2.208565
    115          6           0       15.916438    2.170656    1.091885
    116          6           0       15.529675    2.720365    4.733717
    117          6           0       15.849099    4.377263    1.652358
    118          8           0       15.888247    5.513696    2.122154
    119          6           0       15.688240    4.270940    0.074637
    120          6           0       16.740228    5.139402   -0.559092
    121          8           0       17.946455    4.863020   -0.435664
    122          8           0       16.145637    6.022197   -1.382196
    123          6           0       17.149027    6.898858   -2.042870
    124          1           0       14.627638   -1.194539   -4.069370
    125          1           0       15.701556   -4.986468    0.776192
    126          1           0       15.679340   -0.078277    4.693308
    127          1           0       14.753880    3.585325   -2.840043
    128          1           0       14.942635    1.335357   -4.525006
    129          1           0       12.792915    2.325733   -2.697990
    130          1           0       12.808685    0.566991   -2.944762
    131          1           0       12.633324    1.590879   -4.337803
    132          1           0       17.135753    2.062028   -3.922655
    133          1           0       17.439406    3.422425   -2.781462
    134          1           0       15.698682    4.360916   -4.830031
    135          1           0       16.729720    3.216831   -5.612920
    136          1           0       15.271238   -2.953844   -5.034426
    137          1           0       14.926911   -4.595188   -4.602424
    138          1           0       16.626853   -4.149798   -4.882763
    139          1           0       15.852292   -6.447833   -3.773687
    140          1           0       17.058078   -7.542118   -2.881886
    141          1           0       17.534517   -5.985528   -3.619097
    142          1           0       16.219154   -4.655367    3.250482
    143          1           0       14.706078   -2.587328    4.763939
    144          1           0       14.281701   -5.740453    3.695452
    145          1           0       13.474889   -4.609701    2.552435
    146          1           0       13.510569   -4.239487    4.200856
    147          1           0       16.667414   -3.873845    5.696582
    148          1           0       16.708441   -2.145367    5.989238
    149          1           0       18.221460   -3.882546    4.179516
    150          1           0       18.864610   -2.575409    5.239034
    151          1           0       18.063380   -2.205918    3.646611
    152          1           0       16.220125    3.536947    4.897931
    153          1           0       15.699613    1.907540    5.436732
    154          1           0       14.479125    3.021165    4.700172
    155          1           0       14.679373    4.601898   -0.174841
    156          1           0       16.864175    7.932441   -1.823188
    157          1           0       17.158025    6.593997   -3.106220
    158          1           0       18.163745    6.873871   -1.663155
 ---------------------------------------------------------------------

 SCF Done:  E(RCAM-B3LYP) =  -4069.81176547     A.U. after   19 cycles

 Excitation energies and oscillator strengths:

 Excited State   1:      Singlet-A      1.6753 eV  740.06 nm  f=0.2287  <S**2>=0.000
     310 -> 316        0.16899
     311 -> 314       -0.15621
     312 -> 313        0.66803
     310 <- 316        0.10187
 This state for optimization and/or second-order correction.
 Total Energy, E(TD-HF/TD-DFT) =  -4069.75019829
 Copying the excited state density for this state as the 1-particle RhoCI density.

 Excited State   2:      Singlet-A      1.6801 eV  737.97 nm  f=0.5485  <S**2>=0.000
     309 -> 315        0.17098
     311 -> 314        0.66767
     312 -> 313        0.15617
     309 <- 315        0.10237

 Excited State   3:      Singlet-A      2.1861 eV  567.15 nm  f=0.0960  <S**2>=0.000
     310 -> 313        0.64215
     312 -> 316       -0.27298

 Excited State   4:      Singlet-A      2.1925 eV  565.49 nm  f=0.1043  <S**2>=0.000
     309 -> 314        0.64037
     311 -> 315       -0.27815

 Excited State   5:      Singlet-A      3.0658 eV  404.41 nm  f=0.0000  <S**2>=0.000
     311 -> 313        0.70711

 The electronic state is 1-A.
 Alpha  occ. eigenvalues --  -46.87796 -46.87660 -19.26350 -19.26281 -19.19161
 Alpha  occ. eigenvalues --  -19.19017 -19.18816 -19.18715 -19.18167 -19.18050
 Alpha  occ. eigenvalues --  -14.42498 -14.42449 -14.41449 -14.41359 -14.39402
 Alpha  occ. eigenvalues --  -14.39352 -14.38600 -14.38586 -10.39091 -10.39077
 Alpha  occ. eigenvalues --  -10.35450 -10.35392 -10.34387 -10.34228 -10.31757
 Alpha  occ. eigenvalues --  -10.31675 -10.31404 -10.31309 -10.31024 -10.30908
 Alpha  occ. eigenvalues --  -10.30569 -10.30507 -10.30398 -10.30361 -10.30207
 Alpha  occ. eigenvalues --  -10.30141 -10.29920 -10.29894 -10.29630 -10.29437
 Alpha  occ. eigenvalues --  -10.29401 -10.29254 -10.28748 -10.28720 -10.28657
 Alpha  occ. eigenvalues --  -10.28537 -10.28405 -10.28364 -10.28141 -10.28116
 Alpha  occ. eigenvalues --  -10.28001 -10.27792 -10.27727 -10.27669 -10.27584
 Alpha  occ. eigenvalues --  -10.27517 -10.27500 -10.27484 -10.27483 -10.27469
 Alpha  occ. eigenvalues --  -10.27465 -10.27449 -10.27403 -10.27375 -10.27156
 Alpha  occ. eigenvalues --  -10.27050 -10.26704 -10.26694 -10.26417 -10.26413
 Alpha  occ. eigenvalues --  -10.26233 -10.26183 -10.26136 -10.26025 -10.26019
 Alpha  occ. eigenvalues --  -10.25934 -10.25848 -10.25841 -10.25435 -10.25395
 Alpha  occ. eigenvalues --  -10.24872 -10.24832 -10.24787 -10.24730 -10.24690
 Alpha  occ. eigenvalues --  -10.24686  -3.16539  -3.16410  -1.91420  -1.91292
 Alpha  occ. eigenvalues --   -1.91007  -1.90881  -1.90849  -1.90718  -1.16644
 Alpha  occ. eigenvalues --   -1.16629  -1.08658  -1.08625  -1.07217  -1.06967
 Alpha  occ. eigenvalues --   -1.06946  -1.06639  -1.04580  -1.04495  -1.03760
 Alpha  occ. eigenvalues --   -1.03663  -1.03233  -1.03039  -1.02410  -1.02111
 Alpha  occ. eigenvalues --   -0.91987  -0.91971  -0.89519  -0.89494  -0.89187
 Alpha  occ. eigenvalues --   -0.89152  -0.88286  -0.88220  -0.87869  -0.87793
 Alpha  occ. eigenvalues --   -0.87684  -0.87672  -0.87274  -0.87121  -0.85000
 Alpha  occ. eigenvalues --   -0.84981  -0.83936  -0.83875  -0.82968  -0.82932
 Alpha  occ. eigenvalues --   -0.82653  -0.82648  -0.81596  -0.81584  -0.80595
 Alpha  occ. eigenvalues --   -0.80443  -0.78797  -0.78636  -0.77218  -0.77145
 Alpha  occ. eigenvalues --   -0.76933  -0.76898  -0.75922  -0.75839  -0.74897
 Alpha  occ. eigenvalues --   -0.74802  -0.72773  -0.72699  -0.71671  -0.71581
 Alpha  occ. eigenvalues --   -0.69906  -0.69757  -0.68872  -0.68828  -0.67640
 Alpha  occ. eigenvalues --   -0.67602  -0.67219  -0.67201  -0.65285  -0.65272
 Alpha  occ. eigenvalues --   -0.64852  -0.64770  -0.64654  -0.64620  -0.64269
 Alpha  occ. eigenvalues --   -0.64203  -0.62295  -0.62278  -0.60442  -0.60340
 Alpha  occ. eigenvalues --   -0.59803  -0.59797  -0.58993  -0.58986  -0.58503
 Alpha  occ. eigenvalues --   -0.58425  -0.57582  -0.57554  -0.57308  -0.57236
 Alpha  occ. eigenvalues --   -0.56309  -0.56204  -0.55976  -0.55887  -0.55520
 Alpha  occ. eigenvalues --   -0.55452  -0.55338  -0.55247  -0.54522  -0.54487
 Alpha  occ. eigenvalues --   -0.53913  -0.53894  -0.53298  -0.53228  -0.53221
 Alpha  occ. eigenvalues --   -0.53142  -0.52913  -0.52903  -0.52756  -0.52669
 Alpha  occ. eigenvalues --   -0.52437  -0.52401  -0.51913  -0.51884  -0.51659
 Alpha  occ. eigenvalues --   -0.51616  -0.51201  -0.51195  -0.50574  -0.50476
 Alpha  occ. eigenvalues --   -0.50031  -0.49980  -0.49919  -0.49867  -0.49514
 Alpha  occ. eigenvalues --   -0.49488  -0.49214  -0.49203  -0.49104  -0.49095
 Alpha  occ. eigenvalues --   -0.48591  -0.48558  -0.48461  -0.48445  -0.48375
 Alpha  occ. eigenvalues --   -0.48339  -0.47694  -0.47595  -0.47296  -0.47118
 Alpha  occ. eigenvalues --   -0.46796  -0.46709  -0.46554  -0.46554  -0.46358
 Alpha  occ. eigenvalues --   -0.46270  -0.46161  -0.46085  -0.45822  -0.45820
 Alpha  occ. eigenvalues --   -0.45208  -0.45201  -0.44576  -0.44514  -0.44507
 Alpha  occ. eigenvalues --   -0.44476  -0.44144  -0.44128  -0.44087  -0.44078
 Alpha  occ. eigenvalues --   -0.44018  -0.43940  -0.43553  -0.43493  -0.43386
 Alpha  occ. eigenvalues --   -0.43385  -0.43026  -0.42930  -0.42901  -0.42697
 Alpha  occ. eigenvalues --   -0.42653  -0.42553  -0.42008  -0.41964  -0.41703
 Alpha  occ. eigenvalues --   -0.41669  -0.41533  -0.41459  -0.41140  -0.40989
 Alpha  occ. eigenvalues --   -0.40868  -0.40824  -0.40723  -0.40699  -0.40571
 Alpha  occ. eigenvalues --   -0.40493  -0.40233  -0.40228  -0.39440  -0.39425
 Alpha  occ. eigenvalues --   -0.38468  -0.38350  -0.37747  -0.37655  -0.37320
 Alpha  occ. eigenvalues --   -0.37266  -0.37263  -0.37200  -0.36771  -0.36711
 Alpha  occ. eigenvalues --   -0.36217  -0.36191  -0.34285  -0.34253  -0.33862
 Alpha  occ. eigenvalues --   -0.33768  -0.33185  -0.33175  -0.31346  -0.31274
 Alpha  occ. eigenvalues --   -0.31035  -0.30973  -0.30027  -0.29955  -0.29449
 Alpha  occ. eigenvalues --   -0.29327  -0.29321  -0.29211  -0.24080  -0.24036
 Alpha  occ. eigenvalues --   -0.21127  -0.21117
 Alpha virt. eigenvalues --   -0.08792  -0.08774  -0.01749  -0.01684  -0.00058
 Alpha virt. eigenvalues --   -0.00029   0.02201   0.02208   0.03122   0.03226
 Alpha virt. eigenvalues --    0.04719   0.04729   0.05101   0.05165   0.06178

 Mulliken charges:
               1
     1  Mg   0.838714
     2  C   -0.002949
     3  C   -0.094129
     4  C   -0.045866
     5  C   -0.063953
     6  N   -0.256773
     7  C   -0.052463
     8  C   -0.014024
     9  C   -0.086986
    10  C    0.046311
    11  C    0.104813
    12  C    0.053481
    13  C   -0.071818
    14  H    0.036148
    15  N   -0.433128
    16  C    0.168406
    17  C   -0.177163
    18  C   -0.004015
    19  C    0.148705
    20  C    0.110184
    21  C    0.012274
    22  O   -0.249636
    23  C    0.062483
    24  N   -0.341122
    25  C    0.041243
    26  C   -0.028172
    27  C   -0.023979
    28  C    0.074831
    29  C    0.076173
    30  C    0.035133
    31  C   -0.004503
    32  N   -0.310472
    33  C    0.080409
    34  C   -0.169701
    35  C    0.008373
    36  C    0.082985
    37  C    0.127308
    38  C    0.046129
    39  O   -0.188399
    40  C   -0.005339
    41  C    0.212885
    42  O   -0.257097
    43  O   -0.304799
    44  C    0.157677
    45  H   -0.017613
    46  H   -0.016850
    47  H   -0.041479
    48  H    0.000949
    49  H   -0.004043
    50  H    0.025483
    51  H    0.016444
    52  H    0.016654
    53  H    0.011187
    54  H    0.044131
    55  H    0.017882
    56  H    0.017934
    57  H    0.005871
    58  H    0.026812
    59  H    0.039519
    60  H    0.037345
    61  H    0.035624
    62  H    0.031480
    63  H    0.016542
    64  H    0.009468
    65  H    0.023203
    66  H    0.012543
    67  H    0.004758
    68  H    0.006362
    69  H    0.004744
    70  H    0.008765
    71  H    0.018155
    72  H    0.028983
    73  H    0.047596
    74  H    0.009118
    75  H    0.046019
    76  H    0.035159
    77  H    0.042973
    78  H    0.046393
    79  H    0.053708
    80  Mg   0.837833
    81  C   -0.016831
    82  C   -0.087811
    83  C   -0.045496
    84  C   -0.064826
    85  N   -0.254573
    86  C   -0.049808
    87  C   -0.015090
    88  C   -0.090498
    89  C    0.045767
    90  C    0.114367
    91  C    0.062520
    92  C   -0.077894
    93  H    0.034892
    94  N   -0.423504
    95  C    0.162943
    96  C   -0.174626
    97  C   -0.007794
    98  C    0.152105
    99  C    0.099370
   100  C    0.015575
   101  O   -0.253171
   102  C    0.061192
   103  N   -0.350056
   104  C    0.037536
   105  C   -0.019854
   106  C   -0.034808
   107  C    0.088876
   108  C    0.073643
   109  C    0.034747
   110  C   -0.007685
   111  N   -0.324122
   112  C    0.078448
   113  C   -0.163115
   114  C    0.002271
   115  C    0.096204
   116  C    0.131484
   117  C    0.042391
   118  O   -0.187829
   119  C    0.000889
   120  C    0.211272
   121  O   -0.251030
   122  O   -0.305621
   123  C    0.152024
   124  H   -0.019666
   125  H   -0.015561
   126  H   -0.040421
   127  H   -0.000635
   128  H   -0.004347
   129  H    0.022496
   130  H    0.014456
   131  H    0.016271
   132  H    0.013912
   133  H    0.037677
   134  H    0.020794
   135  H    0.019578
   136  H    0.008751
   137  H    0.026146
   138  H    0.039782
   139  H    0.038252
   140  H    0.036401
   141  H    0.033889
   142  H    0.014397
   143  H    0.012470
   144  H    0.025151
   145  H    0.011656
   146  H    0.005728
   147  H    0.006279
   148  H    0.003671
   149  H    0.010929
   150  H    0.017937
   151  H    0.030089
   152  H    0.046013
   153  H    0.008532
   154  H    0.047012
   155  H    0.035066
   156  H    0.043930
   157  H    0.049479
   158  H    0.053579
 Sum of Mulliken charges =  -0.00000

 Dipole moment (field-independent basis, Debye):
    X=             -3.9462    Y=             -2.4005    Z=             -7.7154  Tot=              8.9924
 Quadrupole moment (field-independent basis, Debye-Ang):
   XX=           -516.3214   YY=           -549.1603   ZZ=           -449.7245
   XY=            -22.8351   XZ=              6.9033   YZ=            -46.1423

 Normal termination of Gaussian 16 at Sat Sep  4 19:59:19 2021.
