 Gaussian 16, Revision A.03,
 Gaussian 16:  ES64L-G16RevA.03 25-Dec-2016

 -----------------------------------
 #p cam-b3lyp/Def2SVP td=(nstates=5)
 -----------------------------------

 --------------------------------
 TDDFT excited states in gaussian
 --------------------------------
 Symbolic Z-matrix:
 Charge =  0 Multiplicity = 1

                         Standard orientation:
 ---------------------------------------------------------------------
 Center     Atomic      Atomic             Coordinates (Angstroms)
 Number     Number       Type             X           Y           Z
 ---------------------------------------------------------------------
      1         12           0        7.822771    0.692397    0.492469
      2          6           0        8.319791   -2.314000   -1.385499
      3          6           0        8.555378    2.417928   -2.358653
      4          6           0        7.835822    3.344777    2.230667
      5          6           0        8.248491   -1.214824    3.378111
      6          7           0        8.352342    0.024168   -1.550487
      7          6           0        8.450439   -1.155746   -2.154930
      8          6           0        8.630277   -1.046057   -3.698627
      9          6           0        9.248774    0.421395   -3.776362
     10          6           0        8.656092    1.002461   -2.504744
     11          6           0       10.769842    0.448096   -3.666167
     12          6           0        7.267018   -1.134446   -4.463770
     13          6           0        7.378954   -1.363179   -5.973905
     14          1           0        6.380200   -2.191350   -6.632669
     15          7           0        7.667680    2.584085   -0.055540
     16          6           0        7.996140    3.107520   -1.261117
     17          6           0        7.699179    4.553410   -1.172250
     18          6           0        7.350533    4.860189    0.242821
     19          6           0        7.633164    3.597404    0.875966
     20          6           0        7.714345    5.470809   -2.356268
     21          6           0        6.853140    6.098450    0.919165
     22          8           0        6.835345    6.217857    2.191957
     23          6           0        6.464970    7.216341    0.040140
     24          7           0        8.231156    1.069590    2.504578
     25          6           0        8.107055    2.299615    3.015087
     26          6           0        8.172535    2.278063    4.513482
     27          6           0        8.124183    0.738938    4.935987
     28          6           0        8.121415    0.106185    3.522521
     29          6           0        9.407867    2.940416    5.138986
     30          6           0        7.016785    0.318306    5.934564
     31          6           0        5.659628    0.446477    5.279739
     32          7           0        8.038669   -1.416400    0.958740
     33          6           0        8.226289   -1.984559    2.227073
     34          6           0        8.428131   -3.431349    2.026759
     35          6           0        8.359973   -3.602967    0.645547
     36          6           0        8.156307   -2.339460    0.020757
     37          6           0        8.698272   -4.384381    3.048124
     38          6           0        8.436413   -4.556389   -0.449442
     39          8           0        8.502850   -5.783995   -0.527310
     40          6           0        8.535204   -3.743806   -1.815376
     41          6           0        7.545630   -4.346181   -2.775166
     42          8           0        6.318152   -4.256087   -2.568899
     43          8           0        8.183679   -4.721230   -3.894440
     44          6           0        7.254080   -5.300280   -4.900771
     45          1           0        8.996150    3.060192   -3.123609
     46          1           0        7.737702    4.219520    2.876914
     47          1           0        8.303041   -1.885196    4.237808
     48          1           0        9.326765   -1.766804   -4.127409
     49          1           0        8.888714    0.969176   -4.647003
     50          1           0       11.168970   -0.536387   -3.422423
     51          1           0       10.991449    1.156987   -2.868134
     52          1           0       11.216399    0.864567   -4.569448
     53          1           0        6.788274   -0.155239   -4.459426
     54          1           0        6.629664   -1.905033   -4.028681
     55          1           0        8.383649   -1.679533   -6.255716
     56          1           0        7.246198   -0.404452   -6.475321
     57          1           0        8.166590    4.995206   -3.225648
     58          1           0        8.388846    6.291896   -2.114247
     59          1           0        6.723323    5.863955   -2.583520
     60          1           0        7.321010    7.510261   -0.567606
     61          1           0        6.050746    7.983083    0.693879
     62          1           0        5.699970    6.869563   -0.655179
     63          1           0        7.318892    2.795209    4.949692
     64          1           0        9.049592    0.416745    5.413986
     65          1           0        9.167978    3.736543    5.844209
     66          1           0       10.037424    3.310796    4.330427
     67          1           0       10.086764    2.254995    5.645655
     68          1           0        7.017979    0.977609    6.801896
     69          1           0        7.128274   -0.704329    6.295174
     70          1           0        5.422145    1.500911    5.416125
     71          1           0        4.931075   -0.186626    5.787284
     72          1           0        5.716187    0.261325    4.206889
     73          1           0        8.079805   -5.253781    2.825391
     74          1           0        8.473929   -3.981109    4.035365
     75          1           0        9.765221   -4.546560    2.895895
     76          1           0        9.561238   -3.846016   -2.167413
     77          1           0        7.630300   -6.292022   -5.152046
     78          1           0        7.175326   -4.569935   -5.706251
     79          1           0        6.251682   -5.543983   -4.547009
     80         12           0       -7.990213   -0.789984    0.407914
     81          6           0       -8.032815    1.996344   -1.853412
     82          6           0       -7.333046    1.438503    2.905229
     83          6           0       -7.500608   -3.255532    2.344095
     84          6           0       -7.512100   -2.851635   -2.360970
     85          7           0       -7.739250    1.407573    0.401849
     86          6           0       -7.838397    2.366566   -0.506351
     87          6           0       -7.802901    3.806540    0.072262
     88          6           0       -7.018339    3.497272    1.438889
     89          6           0       -7.411419    2.032603    1.620321
     90          6           0       -5.507311    3.572049    1.295527
     91          6           0       -9.238899    4.374578    0.350228
     92          6           0       -9.293582    5.879416    0.622671
     93          1           0      -10.448165    6.632503    0.140744
     94          7           0       -7.976341   -0.883226    2.390259
     95          6           0       -7.711446    0.122437    3.250350
     96          6           0       -7.809165   -0.463116    4.596366
     97          6           0       -7.991148   -1.933464    4.456190
     98          6           0       -7.804847   -2.087101    3.027281
     99          6           0       -7.808239    0.367205    5.846966
    100          6           0       -8.272046   -3.022937    5.446318
    101          8           0       -8.154631   -4.261091    5.136465
    102          6           0       -8.597873   -2.596767    6.815152
    103          7           0       -7.357273   -2.741801    0.073000
    104          6           0       -7.279909   -3.626354    1.082702
    105          6           0       -7.070239   -5.029052    0.564190
    106          6           0       -7.265463   -4.935042   -1.020299
    107          6           0       -7.475346   -3.411237   -1.159445
    108          6           0       -5.710872   -5.656133    0.872899
    109          6           0       -8.314348   -5.886905   -1.657870
    110          6           0       -9.704465   -5.498292   -1.208490
    111          7           0       -7.986503   -0.536659   -1.737746
    112          6           0       -7.739437   -1.527378   -2.713189
    113          6           0       -7.731153   -0.852174   -4.027143
    114          6           0       -7.952851    0.498880   -3.720544
    115          6           0       -8.069533    0.657686   -2.313187
    116          6           0       -7.489265   -1.477992   -5.282513
    117          6           0       -8.104119    1.828379   -4.266655
    118          8           0       -8.184078    2.297553   -5.401213
    119          6           0       -8.036556    2.875720   -3.072961
    120          6           0       -9.178188    3.841267   -3.237022
    121          8           0      -10.354782    3.452783   -3.130645
    122          8           0       -8.692487    5.095445   -3.275524
    123          6           0       -9.787918    6.090003   -3.426221
    124          1           0       -6.901696    2.020213    3.720357
    125          1           0       -7.431262   -4.156375    2.958229
    126          1           0       -7.467241   -3.439396   -3.280307
    127          1           0       -7.246685    4.521386   -0.522207
    128          1           0       -7.401109    4.099190    2.258986
    129          1           0       -5.206302    3.705278    0.267042
    130          1           0       -5.128402    2.635095    1.682306
    131          1           0       -5.104902    4.352218    1.948018
    132          1           0       -9.592832    3.995514    1.317588
    133          1           0       -9.907918    4.127878   -0.451139
    134          1           0       -8.361131    6.383473    0.340883
    135          1           0       -9.366395    6.034258    1.701895
    136          1           0       -7.494321    1.398685    5.644742
    137          1           0       -7.022320   -0.033554    6.496271
    138          1           0       -8.760888    0.327719    6.379477
    139          1           0       -7.776986   -2.005879    7.214463
    140          1           0       -8.854058   -3.511692    7.352894
    141          1           0       -9.471592   -1.936607    6.777395
    142          1           0       -7.811704   -5.706253    0.970058
    143          1           0       -6.337648   -5.175048   -1.560105
    144          1           0       -5.786510   -6.613953    1.421465
    145          1           0       -5.124927   -4.941181    1.435090
    146          1           0       -5.079728   -5.840750    0.005270
    147          1           0       -8.152806   -6.912082   -1.315711
    148          1           0       -8.282514   -5.900518   -2.742206
    149          1           0       -9.795677   -5.989933   -0.235327
    150          1           0      -10.450757   -5.867807   -1.908876
    151          1           0       -9.775779   -4.417511   -1.039775
    152          1           0       -8.217355   -1.077636   -5.975402
    153          1           0       -7.563874   -2.560881   -5.207855
    154          1           0       -6.463601   -1.149155   -5.469968
    155          1           0       -7.067872    3.373847   -3.128638
    156          1           0       -9.554493    6.690854   -4.310639
    157          1           0       -9.844869    6.620814   -2.457331
    158          1           0      -10.773218    5.715979   -3.678675
 ---------------------------------------------------------------------

 SCF Done:  E(RCAM-B3LYP) =  -4069.81184167     A.U. after   19 cycles

 Excitation energies and oscillator strengths:

 Excited State   1:      Singlet-A      1.6741 eV  740.61 nm  f=0.2798  <S**2>=0.000
     310 -> 316        0.15933
     311 -> 313        0.27066
     312 -> 314        0.63048
 This state for optimization and/or second-order correction.
 Total Energy, E(TD-HF/TD-DFT) =  -4069.75032002
 Copying the excited state density for this state as the 1-particle RhoCI density.

 Excited State   2:      Singlet-A      1.6806 eV  737.72 nm  f=0.4701  <S**2>=0.000
     309 -> 315        0.16139
     311 -> 313        0.63001
     312 -> 314       -0.27047

 Excited State   3:      Singlet-A      2.1858 eV  567.23 nm  f=0.0940  <S**2>=0.000
     310 -> 314        0.63884
     312 -> 316       -0.27126

 Excited State   4:      Singlet-A      2.1925 eV  565.50 nm  f=0.1047  <S**2>=0.000
     309 -> 313        0.63692
     311 -> 315       -0.27655

 Excited State   5:      Singlet-A      2.7659 eV  448.26 nm  f=0.0000  <S**2>=0.000
     312 -> 313        0.70710

 The electronic state is 1-A.
 Alpha  occ. eigenvalues --  -46.87836 -46.87592 -19.26326 -19.26305 -19.19130
 Alpha  occ. eigenvalues --  -19.19045 -19.18867 -19.18648 -19.18202 -19.18005
 Alpha  occ. eigenvalues --  -14.42486 -14.42431 -14.41491 -14.41286 -14.39443
 Alpha  occ. eigenvalues --  -14.39285 -14.38625 -14.38535 -10.39105 -10.39059
 Alpha  occ. eigenvalues --  -10.35500 -10.35325 -10.34422 -10.34183 -10.31743
 Alpha  occ. eigenvalues --  -10.31695 -10.31437 -10.31248 -10.30961 -10.30942
 Alpha  occ. eigenvalues --  -10.30606 -10.30549 -10.30331 -10.30299 -10.30251
 Alpha  occ. eigenvalues --  -10.30062 -10.29964 -10.29819 -10.29670 -10.29367
 Alpha  occ. eigenvalues --  -10.29338 -10.29294 -10.28770 -10.28669 -10.28623
 Alpha  occ. eigenvalues --  -10.28540 -10.28402 -10.28342 -10.28138 -10.28084
 Alpha  occ. eigenvalues --  -10.27938 -10.27830 -10.27762 -10.27624 -10.27603
 Alpha  occ. eigenvalues --  -10.27555 -10.27512 -10.27504 -10.27439 -10.27423
 Alpha  occ. eigenvalues --  -10.27421 -10.27406 -10.27402 -10.27276 -10.27188
 Alpha  occ. eigenvalues --  -10.27007 -10.26718 -10.26652 -10.26464 -10.26353
 Alpha  occ. eigenvalues --  -10.26254 -10.26249 -10.26061 -10.26051 -10.25964
 Alpha  occ. eigenvalues --  -10.25878 -10.25862 -10.25796 -10.25488 -10.25263
 Alpha  occ. eigenvalues --  -10.24869 -10.24830 -10.24812 -10.24763 -10.24655
 Alpha  occ. eigenvalues --  -10.24617  -3.16579  -3.16342  -1.91460  -1.91224
 Alpha  occ. eigenvalues --   -1.91047  -1.90889  -1.90813  -1.90650  -1.16655
 Alpha  occ. eigenvalues --   -1.16619  -1.08659  -1.08615  -1.07269  -1.06916
 Alpha  occ. eigenvalues --   -1.06900  -1.06667  -1.04616  -1.04431  -1.03801
 Alpha  occ. eigenvalues --   -1.03595  -1.03273  -1.02968  -1.02451  -1.02043
 Alpha  occ. eigenvalues --   -0.92007  -0.91928  -0.89568  -0.89419  -0.89211
 Alpha  occ. eigenvalues --   -0.89096  -0.88336  -0.88136  -0.87906  -0.87734
 Alpha  occ. eigenvalues --   -0.87707  -0.87618  -0.87314  -0.87057  -0.85010
 Alpha  occ. eigenvalues --   -0.84943  -0.83988  -0.83794  -0.83015  -0.82863
 Alpha  occ. eigenvalues --   -0.82681  -0.82595  -0.81616  -0.81550  -0.80631
 Alpha  occ. eigenvalues --   -0.80388  -0.78835  -0.78573  -0.77256  -0.77083
 Alpha  occ. eigenvalues --   -0.76964  -0.76839  -0.75952  -0.75785  -0.74942
 Alpha  occ. eigenvalues --   -0.74718  -0.72812  -0.72634  -0.71708  -0.71510
 Alpha  occ. eigenvalues --   -0.69963  -0.69674  -0.68903  -0.68770  -0.67679
 Alpha  occ. eigenvalues --   -0.67539  -0.67247  -0.67147  -0.65315  -0.65218
 Alpha  occ. eigenvalues --   -0.64890  -0.64708  -0.64656  -0.64597  -0.64316
 Alpha  occ. eigenvalues --   -0.64127  -0.62328  -0.62232  -0.60485  -0.60270
 Alpha  occ. eigenvalues --   -0.59833  -0.59739  -0.59025  -0.58927  -0.58541
 Alpha  occ. eigenvalues --   -0.58363  -0.57616  -0.57509  -0.57350  -0.57168
 Alpha  occ. eigenvalues --   -0.56346  -0.56145  -0.56004  -0.55844  -0.55559
 Alpha  occ. eigenvalues --   -0.55398  -0.55383  -0.55178  -0.54563  -0.54424
 Alpha  occ. eigenvalues --   -0.53919  -0.53858  -0.53339  -0.53255  -0.53164
 Alpha  occ. eigenvalues --   -0.53086  -0.52950  -0.52849  -0.52793  -0.52608
 Alpha  occ. eigenvalues --   -0.52496  -0.52324  -0.51950  -0.51829  -0.51645
 Alpha  occ. eigenvalues --   -0.51606  -0.51232  -0.51144  -0.50615  -0.50410
 Alpha  occ. eigenvalues --   -0.50080  -0.49958  -0.49916  -0.49784  -0.49548
 Alpha  occ. eigenvalues --   -0.49429  -0.49249  -0.49147  -0.49123  -0.49050
 Alpha  occ. eigenvalues --   -0.48624  -0.48508  -0.48505  -0.48485  -0.48298
 Alpha  occ. eigenvalues --   -0.48275  -0.47731  -0.47533  -0.47335  -0.47049
 Alpha  occ. eigenvalues --   -0.46836  -0.46643  -0.46581  -0.46497  -0.46399
 Alpha  occ. eigenvalues --   -0.46204  -0.46201  -0.46016  -0.45852  -0.45770
 Alpha  occ. eigenvalues --   -0.45248  -0.45121  -0.44611  -0.44546  -0.44459
 Alpha  occ. eigenvalues --   -0.44417  -0.44189  -0.44117  -0.44070  -0.44054
 Alpha  occ. eigenvalues --   -0.44010  -0.43884  -0.43527  -0.43505  -0.43421
 Alpha  occ. eigenvalues --   -0.43324  -0.43064  -0.42888  -0.42840  -0.42738
 Alpha  occ. eigenvalues --   -0.42695  -0.42476  -0.42053  -0.41898  -0.41740
 Alpha  occ. eigenvalues --   -0.41609  -0.41561  -0.41400  -0.41176  -0.40922
 Alpha  occ. eigenvalues --   -0.40904  -0.40868  -0.40662  -0.40637  -0.40616
 Alpha  occ. eigenvalues --   -0.40415  -0.40254  -0.40179  -0.39500  -0.39343
 Alpha  occ. eigenvalues --   -0.38514  -0.38268  -0.37771  -0.37603  -0.37364
 Alpha  occ. eigenvalues --   -0.37291  -0.37192  -0.37141  -0.36745  -0.36730
 Alpha  occ. eigenvalues --   -0.36228  -0.36150  -0.34324  -0.34188  -0.33825
 Alpha  occ. eigenvalues --   -0.33798  -0.33224  -0.33109  -0.31396  -0.31206
 Alpha  occ. eigenvalues --   -0.31074  -0.30907  -0.30061  -0.29910  -0.29489
 Alpha  occ. eigenvalues --   -0.29359  -0.29263  -0.29150  -0.24119  -0.23969
 Alpha  occ. eigenvalues --   -0.21166  -0.21049
 Alpha virt. eigenvalues --   -0.08813  -0.08727  -0.01791  -0.01614  -0.00099
 Alpha virt. eigenvalues --    0.00034   0.02163   0.02266   0.03074   0.03290
 Alpha virt. eigenvalues --    0.04687   0.04793   0.05072   0.05199   0.06160

 Mulliken charges:
               1
     1  Mg   0.838612
     2  C   -0.002925
     3  C   -0.093928
     4  C   -0.046050
     5  C   -0.064016
     6  N   -0.256793
     7  C   -0.052384
     8  C   -0.014022
     9  C   -0.087034
    10  C    0.046310
    11  C    0.104785
    12  C    0.053415
    13  C   -0.071952
    14  H    0.036385
    15  N   -0.433129
    16  C    0.168363
    17  C   -0.177062
    18  C   -0.004115
    19  C    0.148689
    20  C    0.110113
    21  C    0.012099
    22  O   -0.249938
    23  C    0.062537
    24  N   -0.341125
    25  C    0.041267
    26  C   -0.028147
    27  C   -0.023955
    28  C    0.074785
    29  C    0.076183
    30  C    0.035168
    31  C   -0.004456
    32  N   -0.310484
    33  C    0.080386
    34  C   -0.169707
    35  C    0.008402
    36  C    0.082967
    37  C    0.127314
    38  C    0.046136
    39  O   -0.188328
    40  C   -0.005340
    41  C    0.212938
    42  O   -0.257168
    43  O   -0.304764
    44  C    0.157680
    45  H   -0.017435
    46  H   -0.017036
    47  H   -0.041521
    48  H    0.001022
    49  H   -0.003826
    50  H    0.025492
    51  H    0.016397
    52  H    0.016819
    53  H    0.011292
    54  H    0.044066
    55  H    0.017891
    56  H    0.018164
    57  H    0.006093
    58  H    0.026857
    59  H    0.039643
    60  H    0.037552
    61  H    0.035347
    62  H    0.031483
    63  H    0.016226
    64  H    0.009535
    65  H    0.023042
    66  H    0.012668
    67  H    0.004812
    68  H    0.006190
    69  H    0.004850
    70  H    0.008385
    71  H    0.017971
    72  H    0.029109
    73  H    0.047625
    74  H    0.009069
    75  H    0.046083
    76  H    0.035254
    77  H    0.042999
    78  H    0.046549
    79  H    0.053620
    80  Mg   0.838009
    81  C   -0.016932
    82  C   -0.087808
    83  C   -0.045349
    84  C   -0.064569
    85  N   -0.254579
    86  C   -0.049875
    87  C   -0.015088
    88  C   -0.090517
    89  C    0.045792
    90  C    0.114341
    91  C    0.062544
    92  C   -0.077781
    93  H    0.034632
    94  N   -0.423543
    95  C    0.163004
    96  C   -0.174556
    97  C   -0.007693
    98  C    0.152165
    99  C    0.099342
   100  C    0.015602
   101  O   -0.252982
   102  C    0.061198
   103  N   -0.350016
   104  C    0.037742
   105  C   -0.020010
   106  C   -0.034808
   107  C    0.088911
   108  C    0.073333
   109  C    0.034704
   110  C   -0.007647
   111  N   -0.324081
   112  C    0.078405
   113  C   -0.163134
   114  C    0.002088
   115  C    0.096227
   116  C    0.131506
   117  C    0.042245
   118  O   -0.188372
   119  C    0.000942
   120  C    0.211200
   121  O   -0.251033
   122  O   -0.305695
   123  C    0.152093
   124  H   -0.019624
   125  H   -0.015329
   126  H   -0.040393
   127  H   -0.000891
   128  H   -0.004422
   129  H    0.022275
   130  H    0.014816
   131  H    0.016309
   132  H    0.013935
   133  H    0.037593
   134  H    0.020666
   135  H    0.019608
   136  H    0.008737
   137  H    0.026243
   138  H    0.039674
   139  H    0.038271
   140  H    0.036384
   141  H    0.033765
   142  H    0.014291
   143  H    0.012946
   144  H    0.025279
   145  H    0.012104
   146  H    0.006547
   147  H    0.006467
   148  H    0.003562
   149  H    0.010934
   150  H    0.017732
   151  H    0.029935
   152  H    0.045718
   153  H    0.008585
   154  H    0.046909
   155  H    0.034764
   156  H    0.043620
   157  H    0.049492
   158  H    0.053537
 Sum of Mulliken charges =  -0.00000

 Dipole moment (field-independent basis, Debye):
    X=              3.5984    Y=              4.8771    Z=              1.3302  Tot=              6.2051
 Quadrupole moment (field-independent basis, Debye-Ang):
   XX=           -519.7723   YY=           -516.0923   ZZ=           -482.4467
   XY=             15.8971   XZ=            -55.8326   YZ=             15.0881

 Normal termination of Gaussian 16 at Sat Sep  4 14:15:59 2021.
