 Gaussian 16, Revision A.03,
 Gaussian 16:  ES64L-G16RevA.03 25-Dec-2016

 -----------------------------------
 #p cam-b3lyp/Def2SVP td=(nstates=5)
 -----------------------------------

 --------------------------------
 TDDFT excited states in gaussian
 --------------------------------
 Symbolic Z-matrix:
 Charge =  0 Multiplicity = 1

                         Standard orientation:
 ---------------------------------------------------------------------
 Center     Atomic      Atomic             Coordinates (Angstroms)
 Number     Number       Type             X           Y           Z
 ---------------------------------------------------------------------
      1         12           0      -15.684279   -0.885169   -0.062784
      2          6           0      -15.919323    2.647241    0.465469
      3          6           0      -16.541514   -0.305694   -3.314310
      4          6           0      -15.927351   -4.023938   -0.444444
      5          6           0      -15.966461   -1.271192    3.389320
      6          7           0      -16.144982    0.978401   -1.165285
      7          6           0      -16.141347    2.272581   -0.861551
      8          6           0      -16.320946    3.198695   -2.101483
      9          6           0      -17.058710    2.174717   -3.075738
     10          6           0      -16.523519    0.871583   -2.508873
     11          6           0      -18.577340    2.185146   -2.933765
     12          6           0      -14.950754    3.668932   -2.695774
     13          6           0      -15.034775    4.826098   -3.695404
     14          1           0      -13.966996    5.814458   -3.713886
     15          7           0      -15.683708   -1.979653   -1.707458
     16          6           0      -16.047681   -1.576612   -2.948574
     17          6           0      -15.872313   -2.753194   -3.826971
     18          6           0      -15.558346   -3.924134   -2.961860
     19          6           0      -15.738718   -3.354247   -1.651108
     20          6           0      -15.956913   -2.684595   -5.320922
     21          6           0      -15.169322   -5.335892   -3.268020
     22          8           0      -15.168696   -6.250275   -2.374445
     23          6           0      -14.870356   -5.643819   -4.678284
     24          7           0      -16.133938   -2.444685    1.249981
     25          6           0      -16.115290   -3.718011    0.840987
     26          6           0      -16.187220   -4.665420    2.001669
     27          6           0      -16.013620   -3.771516    3.313367
     28          6           0      -15.950333   -2.377336    2.642156
     29          6           0      -17.476799   -5.490368    2.113278
     30          6           0      -14.880780   -4.171162    4.291822
     31          6           0      -13.535274   -3.936440    3.642500
     32          7           0      -15.726957    0.431266    1.662390
     33          6           0      -15.873916    0.056262    3.005687
     34          6           0      -15.953790    1.299165    3.794915
     35          6           0      -15.863812    2.317539    2.847991
     36          6           0      -15.762240    1.746995    1.547047
     37          6           0      -16.149629    1.381874    5.201770
     38          6           0      -15.854631    3.755038    2.630351
     39          8           0      -15.818463    4.743111    3.365127
     40          6           0      -16.012835    4.026473    1.069222
     41          6           0      -14.971252    5.038289    0.675975
     42          8           0      -13.756679    4.754257    0.714765
     43          8           0      -15.569619    6.089398    0.094884
     44          6           0      -14.589476    7.117572   -0.345950
     45          1           0      -17.029766   -0.270174   -4.290163
     46          1           0      -15.905859   -5.113120   -0.519658
     47          1           0      -15.970015   -1.313365    4.480036
     48          1           0      -16.952746    4.070383   -1.929984
     49          1           0      -16.740465    2.296690   -4.110902
     50          1           0      -18.894713    2.802868   -2.093756
     51          1           0      -18.861551    1.145405   -2.770500
     52          1           0      -19.051825    2.482095   -3.869426
     53          1           0      -14.555005    2.889585   -3.346974
     54          1           0      -14.254083    3.930940   -1.898699
     55          1           0      -16.008123    5.316031   -3.657069
     56          1           0      -14.979255    4.412303   -4.702325
     57          1           0      -16.363184   -1.730958   -5.655681
     58          1           0      -16.698621   -3.420020   -5.631934
     59          1           0      -15.000690   -2.903065   -5.796570
     60          1           0      -15.744398   -5.417217   -5.289227
     61          1           0      -14.524930   -6.676917   -4.693799
     62          1           0      -14.075286   -4.982163   -5.023281
     63          1           0      -15.381945   -5.397650    1.959259
     64          1           0      -16.911766   -3.773407    3.931432
     65          1           0      -17.307835   -6.567389    2.126728
     66          1           0      -18.130359   -5.207319    1.288636
     67          1           0      -18.099289   -5.251153    2.975078
     68          1           0      -14.941617   -5.232751    4.529044
     69          1           0      -14.909004   -3.619224    5.231406
     70          1           0      -13.386942   -4.842131    3.055513
     71          1           0      -12.759546   -3.831885    4.401793
     72          1           0      -13.570200   -3.098668    2.945792
     73          1           0      -15.459857    2.145322    5.561396
     74          1           0      -15.965129    0.422344    5.684330
     75          1           0      -17.198550    1.675036    5.242741
     76          1           0      -17.024832    4.400405    0.917044
     77          1           0      -14.880622    8.059132    0.119810
     78          1           0      -14.567089    7.077496   -1.435123
     79          1           0      -13.572320    7.007094    0.031576
     80         12           0       16.072536   -0.620206    0.155703
     81          6           0       14.660547    2.674029    0.338440
     82          6           0       16.450272   -0.110267   -3.195702
     83          6           0       16.899986   -3.671385   -0.114600
     84          6           0       14.560953   -1.287575    3.224160
     85          7           0       15.581663    1.101132   -1.143650
     86          6           0       15.105176    2.322192   -0.953049
     87          6           0       15.179586    3.243563   -2.200078
     88          6           0       15.207906    2.108859   -3.336091
     89          6           0       15.816791    0.966571   -2.525467
     90          6           0       13.823535    1.683121   -3.796095
     91          6           0       16.485609    4.112896   -2.223863
     92          6           0       16.480295    5.253710   -3.243802
     93          1           0       17.149111    6.503681   -2.893486
     94          7           0       17.040725   -1.564476   -1.296722
     95          6           0       17.108131   -1.206720   -2.596235
     96          6           0       17.922508   -2.239031   -3.255994
     97          6           0       18.192616   -3.322888   -2.272634
     98          6           0       17.352433   -2.895551   -1.171924
     99          6           0       18.430362   -2.099571   -4.661720
    100          6           0       19.053480   -4.548789   -2.320415
    101          8           0       18.953433   -5.476497   -1.441674
    102          6           0       19.951201   -4.674758   -3.477881
    103          7           0       15.603032   -2.312344    1.268609
    104          6           0       16.138750   -3.508319    0.967643
    105          6           0       15.877354   -4.514339    2.063077
    106          6           0       15.260112   -3.676545    3.277449
    107          6           0       15.185384   -2.284591    2.612418
    108          6           0       14.931471   -5.659653    1.702590
    109          6           0       15.971951   -3.801588    4.652343
    110          6           0       17.344243   -3.171296    4.582247
    111          7           0       14.989610    0.520576    1.636898
    112          6           0       14.421800    0.039062    2.836820
    113          6           0       13.689274    1.163816    3.453890
    114          6           0       13.863878    2.223861    2.551512
    115          6           0       14.632766    1.784829    1.439946
    116          6           0       12.944148    1.106522    4.665341
    117          6           0       13.563635    3.611511    2.281360
    118          8           0       13.020405    4.520618    2.907582
    119          6           0       13.959335    3.930251    0.775301
    120          6           0       14.746084    5.212201    0.763114
    121          8           0       15.862235    5.273995    1.308078
    122          8           0       14.153013    6.085250   -0.071407
    123          6           0       14.902785    7.368484   -0.125875
    124          1           0       16.404245   -0.142694   -4.284608
    125          1           0       17.251339   -4.705761   -0.104601
    126          1           0       14.145496   -1.388046    4.229139
    127          1           0       14.320487    3.888617   -2.340202
    128          1           0       15.864977    2.387094   -4.155982
    129          1           0       13.044548    2.130794   -3.197017
    130          1           0       13.800867    0.605296   -3.702128
    131          1           0       13.698542    1.895436   -4.861754
    132          1           0       17.310781    3.508598   -2.622192
    133          1           0       16.702300    4.501737   -1.247921
    134          1           0       15.475037    5.452238   -3.634938
    135          1           0       17.051441    4.938212   -4.120310
    136          1           0       17.933135   -1.276220   -5.189230
    137          1           0       18.118288   -2.998037   -5.205068
    138          1           0       19.518264   -2.017194   -4.710325
    139          1           0       19.364395   -4.660440   -4.393260
    140          1           0       20.548113   -5.569075   -3.288771
    141          1           0       20.605930   -3.796751   -3.509999
    142          1           0       16.799659   -4.978937    2.389592
    143          1           0       14.224591   -3.976914    3.494933
    144          1           0       15.383037   -6.659700    1.844277
    145          1           0       14.611881   -5.528544    0.677305
    146          1           0       13.985163   -5.663863    2.240810
    147          1           0       16.126113   -4.853583    4.904698
    148          1           0       15.416274   -3.352636    5.468844
    149          1           0       17.959227   -3.966422    4.150211
    150          1           0       17.692188   -2.899436    5.576762
    151          1           0       17.354939   -2.328571    3.881275
    152          1           0       13.185016    2.002592    5.221702
    153          1           0       13.178672    0.209276    5.234309
    154          1           0       11.926091    1.085782    4.267351
    155          1           0       13.034007    4.012342    0.203815
    156          1           0       14.194871    8.163212    0.128981
    157          1           0       15.359934    7.404878   -1.132577
    158          1           0       15.676601    7.528695    0.615741
 ---------------------------------------------------------------------

 SCF Done:  E(RCAM-B3LYP) =  -4069.81174992     A.U. after   19 cycles

 Excitation energies and oscillator strengths:

 Excited State   1:      Singlet-A      1.6753 eV  740.05 nm  f=0.2414  <S**2>=0.000
     310 -> 316        0.16899
     311 -> 313        0.66806
     312 -> 314       -0.15608
     310 <- 316        0.10187
 This state for optimization and/or second-order correction.
 Total Energy, E(TD-HF/TD-DFT) =  -4069.75018209
 Copying the excited state density for this state as the 1-particle RhoCI density.

 Excited State   2:      Singlet-A      1.6801 eV  737.97 nm  f=0.5369  <S**2>=0.000
     309 -> 315        0.17099
     311 -> 313        0.15604
     312 -> 314        0.66770
     309 <- 315        0.10237

 Excited State   3:      Singlet-A      2.1861 eV  567.15 nm  f=0.0948  <S**2>=0.000
     310 -> 313        0.64205
     311 -> 316       -0.27296

 Excited State   4:      Singlet-A      2.1925 eV  565.49 nm  f=0.1053  <S**2>=0.000
     309 -> 314        0.64029
     312 -> 315       -0.27811

 Excited State   5:      Singlet-A      3.0595 eV  405.24 nm  f=0.0000  <S**2>=0.000
     312 -> 313        0.70710

 The electronic state is 1-A.
 Alpha  occ. eigenvalues --  -46.87775 -46.87660 -19.26345 -19.26258 -19.19157
 Alpha  occ. eigenvalues --  -19.18994 -19.18795 -19.18715 -19.18146 -19.18048
 Alpha  occ. eigenvalues --  -14.42497 -14.42428 -14.41428 -14.41358 -14.39381
 Alpha  occ. eigenvalues --  -14.39351 -14.38599 -14.38564 -10.39087 -10.39054
 Alpha  occ. eigenvalues --  -10.35429 -10.35392 -10.34366 -10.34225 -10.31751
 Alpha  occ. eigenvalues --  -10.31652 -10.31383 -10.31307 -10.31023 -10.30887
 Alpha  occ. eigenvalues --  -10.30547 -10.30485 -10.30396 -10.30359 -10.30186
 Alpha  occ. eigenvalues --  -10.30141 -10.29899 -10.29893 -10.29609 -10.29436
 Alpha  occ. eigenvalues --  -10.29399 -10.29233 -10.28727 -10.28718 -10.28654
 Alpha  occ. eigenvalues --  -10.28516 -10.28404 -10.28343 -10.28140 -10.28095
 Alpha  occ. eigenvalues --  -10.27999 -10.27771 -10.27705 -10.27669 -10.27563
 Alpha  occ. eigenvalues --  -10.27517 -10.27483 -10.27479 -10.27468 -10.27464
 Alpha  occ. eigenvalues --  -10.27462 -10.27428 -10.27381 -10.27375 -10.27134
 Alpha  occ. eigenvalues --  -10.27047 -10.26692 -10.26682 -10.26417 -10.26393
 Alpha  occ. eigenvalues --  -10.26214 -10.26161 -10.26136 -10.26025 -10.25997
 Alpha  occ. eigenvalues --  -10.25933 -10.25845 -10.25819 -10.25416 -10.25397
 Alpha  occ. eigenvalues --  -10.24871 -10.24810 -10.24766 -10.24730 -10.24689
 Alpha  occ. eigenvalues --  -10.24664  -3.16517  -3.16410  -1.91399  -1.91292
 Alpha  occ. eigenvalues --   -1.90986  -1.90880  -1.90828  -1.90717  -1.16639
 Alpha  occ. eigenvalues --   -1.16607  -1.08654  -1.08603  -1.07197  -1.06967
 Alpha  occ. eigenvalues --   -1.06942  -1.06616  -1.04559  -1.04494  -1.03739
 Alpha  occ. eigenvalues --   -1.03662  -1.03212  -1.03038  -1.02389  -1.02110
 Alpha  occ. eigenvalues --   -0.91985  -0.91949  -0.89498  -0.89493  -0.89166
 Alpha  occ. eigenvalues --   -0.89151  -0.88265  -0.88219  -0.87848  -0.87791
 Alpha  occ. eigenvalues --   -0.87683  -0.87651  -0.87253  -0.87120  -0.84999
 Alpha  occ. eigenvalues --   -0.84960  -0.83914  -0.83875  -0.82947  -0.82932
 Alpha  occ. eigenvalues --   -0.82652  -0.82627  -0.81594  -0.81562  -0.80574
 Alpha  occ. eigenvalues --   -0.80441  -0.78776  -0.78635  -0.77196  -0.77144
 Alpha  occ. eigenvalues --   -0.76912  -0.76897  -0.75901  -0.75837  -0.74876
 Alpha  occ. eigenvalues --   -0.74802  -0.72752  -0.72698  -0.71650  -0.71580
 Alpha  occ. eigenvalues --   -0.69885  -0.69757  -0.68851  -0.68826  -0.67619
 Alpha  occ. eigenvalues --   -0.67600  -0.67199  -0.67198  -0.65270  -0.65264
 Alpha  occ. eigenvalues --   -0.64831  -0.64769  -0.64652  -0.64598  -0.64247
 Alpha  occ. eigenvalues --   -0.64203  -0.62276  -0.62273  -0.60421  -0.60339
 Alpha  occ. eigenvalues --   -0.59796  -0.59782  -0.58992  -0.58965  -0.58481
 Alpha  occ. eigenvalues --   -0.58424  -0.57561  -0.57551  -0.57287  -0.57235
 Alpha  occ. eigenvalues --   -0.56288  -0.56203  -0.55954  -0.55884  -0.55499
 Alpha  occ. eigenvalues --   -0.55451  -0.55317  -0.55246  -0.54500  -0.54486
 Alpha  occ. eigenvalues --   -0.53912  -0.53873  -0.53277  -0.53227  -0.53200
 Alpha  occ. eigenvalues --   -0.53141  -0.52901  -0.52892  -0.52735  -0.52668
 Alpha  occ. eigenvalues --   -0.52416  -0.52400  -0.51891  -0.51881  -0.51658
 Alpha  occ. eigenvalues --   -0.51595  -0.51199  -0.51173  -0.50553  -0.50476
 Alpha  occ. eigenvalues --   -0.50010  -0.49980  -0.49898  -0.49867  -0.49493
 Alpha  occ. eigenvalues --   -0.49487  -0.49201  -0.49192  -0.49103  -0.49074
 Alpha  occ. eigenvalues --   -0.48570  -0.48557  -0.48440  -0.48424  -0.48375
 Alpha  occ. eigenvalues --   -0.48338  -0.47673  -0.47594  -0.47275  -0.47118
 Alpha  occ. eigenvalues --   -0.46775  -0.46708  -0.46553  -0.46533  -0.46337
 Alpha  occ. eigenvalues --   -0.46269  -0.46140  -0.46084  -0.45819  -0.45798
 Alpha  occ. eigenvalues --   -0.45208  -0.45180  -0.44555  -0.44512  -0.44486
 Alpha  occ. eigenvalues --   -0.44475  -0.44126  -0.44123  -0.44077  -0.44066
 Alpha  occ. eigenvalues --   -0.43997  -0.43938  -0.43551  -0.43471  -0.43384
 Alpha  occ. eigenvalues --   -0.43364  -0.43005  -0.42928  -0.42899  -0.42675
 Alpha  occ. eigenvalues --   -0.42631  -0.42553  -0.41987  -0.41963  -0.41682
 Alpha  occ. eigenvalues --   -0.41667  -0.41512  -0.41458  -0.41119  -0.40989
 Alpha  occ. eigenvalues --   -0.40847  -0.40803  -0.40722  -0.40698  -0.40549
 Alpha  occ. eigenvalues --   -0.40492  -0.40227  -0.40212  -0.39425  -0.39419
 Alpha  occ. eigenvalues --   -0.38447  -0.38350  -0.37726  -0.37653  -0.37298
 Alpha  occ. eigenvalues --   -0.37265  -0.37241  -0.37199  -0.36768  -0.36688
 Alpha  occ. eigenvalues --   -0.36216  -0.36169  -0.34264  -0.34252  -0.33859
 Alpha  occ. eigenvalues --   -0.33745  -0.33174  -0.33164  -0.31325  -0.31274
 Alpha  occ. eigenvalues --   -0.31014  -0.30972  -0.30005  -0.29952  -0.29428
 Alpha  occ. eigenvalues --   -0.29326  -0.29299  -0.29210  -0.24058  -0.24035
 Alpha  occ. eigenvalues --   -0.21116  -0.21106
 Alpha virt. eigenvalues --   -0.08791  -0.08752  -0.01728  -0.01683  -0.00037
 Alpha virt. eigenvalues --   -0.00028   0.02209   0.02223   0.03146   0.03226
 Alpha virt. eigenvalues --    0.04730   0.04740   0.05124   0.05169   0.06183

 Mulliken charges:
               1
     1  Mg   0.838819
     2  C   -0.002938
     3  C   -0.094128
     4  C   -0.045888
     5  C   -0.063953
     6  N   -0.256804
     7  C   -0.052449
     8  C   -0.014017
     9  C   -0.086998
    10  C    0.046329
    11  C    0.104819
    12  C    0.053472
    13  C   -0.071812
    14  H    0.036175
    15  N   -0.433143
    16  C    0.168417
    17  C   -0.177171
    18  C   -0.004035
    19  C    0.148716
    20  C    0.110190
    21  C    0.012291
    22  O   -0.249648
    23  C    0.062473
    24  N   -0.341135
    25  C    0.041243
    26  C   -0.028184
    27  C   -0.023951
    28  C    0.074817
    29  C    0.076190
    30  C    0.035133
    31  C   -0.004504
    32  N   -0.310488
    33  C    0.080422
    34  C   -0.169692
    35  C    0.008372
    36  C    0.083012
    37  C    0.127305
    38  C    0.046147
    39  O   -0.188388
    40  C   -0.005367
    41  C    0.212884
    42  O   -0.257062
    43  O   -0.304813
    44  C    0.157673
    45  H   -0.017633
    46  H   -0.016860
    47  H   -0.041478
    48  H    0.000938
    49  H   -0.004048
    50  H    0.025472
    51  H    0.016431
    52  H    0.016630
    53  H    0.011201
    54  H    0.044163
    55  H    0.017854
    56  H    0.017923
    57  H    0.005859
    58  H    0.026786
    59  H    0.039530
    60  H    0.037326
    61  H    0.035616
    62  H    0.031504
    63  H    0.016547
    64  H    0.009448
    65  H    0.023188
    66  H    0.012527
    67  H    0.004739
    68  H    0.006344
    69  H    0.004747
    70  H    0.008761
    71  H    0.018185
    72  H    0.028996
    73  H    0.047625
    74  H    0.009123
    75  H    0.045996
    76  H    0.035138
    77  H    0.042961
    78  H    0.046383
    79  H    0.053745
    80  Mg   0.837820
    81  C   -0.016813
    82  C   -0.087802
    83  C   -0.045508
    84  C   -0.064865
    85  N   -0.254568
    86  C   -0.049829
    87  C   -0.015095
    88  C   -0.090503
    89  C    0.045758
    90  C    0.114379
    91  C    0.062521
    92  C   -0.077894
    93  H    0.034919
    94  N   -0.423475
    95  C    0.162906
    96  C   -0.174640
    97  C   -0.007805
    98  C    0.152092
    99  C    0.099366
   100  C    0.015552
   101  O   -0.253194
   102  C    0.061207
   103  N   -0.350054
   104  C    0.037516
   105  C   -0.019832
   106  C   -0.034805
   107  C    0.088929
   108  C    0.073638
   109  C    0.034720
   110  C   -0.007685
   111  N   -0.324117
   112  C    0.078457
   113  C   -0.163103
   114  C    0.002286
   115  C    0.096195
   116  C    0.131484
   117  C    0.042412
   118  O   -0.187764
   119  C    0.000904
   120  C    0.211272
   121  O   -0.251021
   122  O   -0.305622
   123  C    0.152014
   124  H   -0.019682
   125  H   -0.015576
   126  H   -0.040407
   127  H   -0.000623
   128  H   -0.004337
   129  H    0.022491
   130  H    0.014420
   131  H    0.016256
   132  H    0.013912
   133  H    0.037689
   134  H    0.020790
   135  H    0.019571
   136  H    0.008748
   137  H    0.026119
   138  H    0.039786
   139  H    0.038238
   140  H    0.036388
   141  H    0.033896
   142  H    0.014398
   143  H    0.012456
   144  H    0.025135
   145  H    0.011629
   146  H    0.005706
   147  H    0.006270
   148  H    0.003691
   149  H    0.010922
   150  H    0.017953
   151  H    0.030101
   152  H    0.046054
   153  H    0.008533
   154  H    0.047029
   155  H    0.035070
   156  H    0.043965
   157  H    0.049469
   158  H    0.053589
 Sum of Mulliken charges =  -0.00000

 Dipole moment (field-independent basis, Debye):
    X=             -1.8927    Y=             -2.0402    Z=             -8.3583  Tot=              8.8095
 Quadrupole moment (field-independent basis, Debye-Ang):
   XX=           -453.0860   YY=           -539.4352   ZZ=           -458.7184
   XY=              8.0124   XZ=             -9.0889   YZ=            -55.8316

 Normal termination of Gaussian 16 at Sun Sep 12 19:05:51 2021.
