 Gaussian 16, Revision A.03,
 Gaussian 16:  ES64L-G16RevA.03 25-Dec-2016

 -----------------------------------
 #p cam-b3lyp/Def2SVP td=(nstates=5)
 -----------------------------------

 --------------------------------
 TDDFT excited states in gaussian
 --------------------------------
 Symbolic Z-matrix:
 Charge =  0 Multiplicity = 1

                         Standard orientation:
 ---------------------------------------------------------------------
 Center     Atomic      Atomic             Coordinates (Angstroms)
 Number     Number       Type             X           Y           Z
 ---------------------------------------------------------------------
      1         12           0        5.132536   -1.029252    0.168884
      2          6           0        5.695942    1.889065   -1.825662
      3          6           0        6.483106    0.684749    2.792093
      4          6           0        5.064789   -3.730890    1.828156
      5          6           0        4.898257   -2.834714   -2.802829
      6          7           0        5.948334    1.021767    0.337530
      7          6           0        6.051489    2.060261   -0.485915
      8          6           0        6.502132    3.370809    0.225956
      9          6           0        7.243234    2.731566    1.484580
     10          6           0        6.490770    1.415142    1.566736
     11          6           0        8.719759    2.438804    1.238272
     12          6           0        5.287928    4.256595    0.665072
     13          6           0        5.638342    5.691612    1.069164
     14          1           0        4.702930    6.758361    0.746056
     15          7           0        5.229806   -1.338687    2.117637
     16          6           0        5.802286   -0.527036    3.038928
     17          6           0        5.614290   -1.195864    4.344305
     18          6           0        5.054230   -2.551228    4.084657
     19          6           0        5.119220   -2.605086    2.646515
     20          6           0        5.907870   -0.536160    5.656689
     21          6           0        4.551528   -3.631232    4.989650
     22          8           0        4.325307   -4.818187    4.571875
     23          6           0        4.413247   -3.282315    6.415195
     24          7           0        5.218928   -3.039567   -0.386817
     25          6           0        5.110492   -4.012654    0.524405
     26          6           0        4.915703   -5.350291   -0.125766
     27          6           0        4.669228   -5.056673   -1.675861
     28          6           0        4.857241   -3.519601   -1.657702
     29          6           0        6.075454   -6.344051    0.027297
     30          6           0        3.376046   -5.634195   -2.304008
     31          6           0        2.166683   -4.941353   -1.717060
     32          7           0        5.091159   -0.560214   -1.949921
     33          6           0        5.010873   -1.470614   -3.013594
     34          6           0        5.124552   -0.690371   -4.259534
     35          6           0        5.280719    0.626375   -3.831005
     36          6           0        5.291877    0.662968   -2.407338
     37          6           0        5.136066   -1.223587   -5.578617
     38          6           0        5.465458    2.007945   -4.244517
     39          8           0        5.443191    2.600271   -5.324400
     40          6           0        5.863761    2.865492   -2.963191
     41          6           0        5.007604    4.102543   -2.960108
     42          8           0        3.774554    4.026724   -2.783460
     43          8           0        5.795371    5.188304   -2.927119
     44          6           0        5.008000    6.449659   -2.892655
     45          1           0        7.099944    1.037760    3.620849
     46          1           0        4.929360   -4.674809    2.360240
     47          1           0        4.749105   -3.319748   -3.769239
     48          1           0        7.200296    3.981920   -0.346349
     49          1           0        7.084269    3.316082    2.390556
     50          1           0        8.988848    2.598635    0.194257
     51          1           0        8.858519    1.392525    1.511292
     52          1           0        9.347477    3.012352    1.920759
     53          1           0        4.897644    3.886899    1.613262
     54          1           0        4.524204    4.277474   -0.113141
     55          1           0        6.647065    5.959525    0.753555
     56          1           0        5.672885    5.741192    2.157534
     57          1           0        6.462058    0.392069    5.523228
     58          1           0        6.595938   -1.188455    6.194073
     59          1           0        5.006294   -0.383974    6.250264
     60          1           0        5.382143   -2.969094    6.804658
     61          1           0        3.957334   -4.148262    6.893869
     62          1           0        3.753143   -2.419096    6.505000
     63          1           0        4.045253   -5.861140    0.283839
     64          1           0        5.469162   -5.455740   -2.299980
     65          1           0        5.784262   -7.289657    0.485271
     66          1           0        6.862774   -5.857214    0.602107
     67          1           0        6.598618   -6.582093   -0.898475
     68          1           0        3.282451   -6.694487   -2.071697
     69          1           0        3.339553   -5.527755   -3.388254
     70          1           0        1.996755   -5.490560   -0.791680
     71          1           0        1.312281   -5.033707   -2.388387
     72          1           0        2.391223   -3.909318   -1.446930
     73          1           0        4.495724   -0.574374   -6.175656
     74          1           0        4.779430   -2.253256   -5.592618
     75          1           0        6.196320   -1.145612   -5.818692
     76          1           0        6.923086    3.101022   -3.060544
     77          1           0        5.339008    7.057769   -3.734599
     78          1           0        5.129008    6.863220   -1.891291
     79          1           0        3.943163    6.359292   -3.110126
     80         12           0       -5.289746    0.723840    0.852407
     81          6           0       -5.634820   -1.468515   -1.967799
     82          6           0       -4.144733    3.092581   -1.318443
     83          6           0       -4.550591    2.522084    3.359879
     84          6           0       -5.358500   -2.106363    2.884872
     85          7           0       -4.976094    0.696462   -1.336908
     86          6           0       -5.200382   -0.171495   -2.311943
     87          6           0       -5.021649    0.406629   -3.741416
     88          6           0       -4.023670    1.614474   -3.389273
     89          6           0       -4.424565    1.846359   -1.933868
     90          6           0       -2.558232    1.213629   -3.422974
     91          6           0       -6.370307    0.933522   -4.346019
     92          6           0       -6.331012    1.226257   -5.847525
     93          1           0       -7.527550    0.958008   -6.640497
     94          7           0       -4.938103    2.673113    0.975909
     95          6           0       -4.498461    3.484643   -0.008682
     96          6           0       -4.381248    4.821473    0.594075
     97          6           0       -4.629758    4.700150    2.056340
     98          6           0       -4.696740    3.259057    2.193661
     99          6           0       -4.139755    6.061398   -0.216908
    100          6           0       -4.769595    5.712985    3.152157
    101          8           0       -4.745347    5.375242    4.388349
    102          6           0       -4.841941    7.121663    2.737540
    103          7           0       -4.784158    0.265481    2.816241
    104          6           0       -4.561590    1.237911    3.717781
    105          6           0       -4.487430    0.677101    5.117920
    106          6           0       -4.949220   -0.849036    4.994471
    107          6           0       -5.132931   -0.934775    3.463365
    108          6           0       -3.115176    0.740691    5.788187
    109          6           0       -6.120882   -1.305742    5.906238
    110          6           0       -7.400408   -0.619702    5.484867
    111          7           0       -5.647244   -1.387739    0.566950
    112          6           0       -5.602177   -2.400973    1.549501
    113          6           0       -5.799179   -3.689908    0.855064
    114          6           0       -5.923204   -3.336287   -0.496997
    115          6           0       -5.791209   -1.928361   -0.637819
    116          6           0       -5.796123   -4.974345    1.468537
    117          6           0       -6.125149   -3.834912   -1.838370
    118          8           0       -6.384528   -4.934004   -2.326692
    119          6           0       -5.821155   -2.660369   -2.865226
    120          6           0       -6.943752   -2.615642   -3.865373
    121          8           0       -8.095910   -2.311972   -3.509128
    122          8           0       -6.433555   -2.724800   -5.105599
    123          6           0       -7.507465   -2.674584   -6.133225
    124          1           0       -3.561969    3.826920   -1.875224
    125          1           0       -4.404420    3.106089    4.271495
    126          1           0       -5.490484   -3.025482    3.459749
    127          1           0       -4.554216   -0.267656   -4.448959
    128          1           0       -4.241030    2.494197   -3.989435
    129          1           0       -2.434594    0.150035   -3.563047
    130          1           0       -2.147464    1.519991   -2.469840
    131          1           0       -2.025818    1.794731   -4.181381
    132          1           0       -6.564124    1.943584   -3.962680
    133          1           0       -7.174418    0.257024   -4.130670
    134          1           0       -5.445847    0.793026   -6.328913
    135          1           0       -6.212376    2.303375   -5.988087
    136          1           0       -3.833715    5.818358   -1.241931
    137          1           0       -3.266598    6.561545    0.215892
    138          1           0       -4.987412    6.749684   -0.196646
    139          1           0       -3.946828    7.379392    2.176450
    140          1           0       -5.029861    7.686378    3.652778
    141          1           0       -5.688405    7.241593    2.052185
    142          1           0       -5.168552    1.197920    5.779691
    143          1           0       -4.135872   -1.543008    5.252742
    144          1           0       -3.124788    1.284538    6.751626
    145          1           0       -2.419580    1.200582    5.098848
    146          1           0       -2.648601   -0.224503    5.977662
    147          1           0       -5.934530   -1.006744    6.940659
    148          1           0       -6.276409   -2.379431    5.904391
    149          1           0       -7.338005    0.349691    5.988315
    150          1           0       -8.267019   -1.184646    5.822282
    151          1           0       -7.408373   -0.430481    4.405152
    152          1           0       -6.619842   -5.527393    1.037105
    153          1           0       -5.890052   -4.898719    2.549840
    154          1           0       -4.808340   -5.332461    1.166361
    155          1           0       -4.861613   -2.877186   -3.336236
    156          1           0       -7.411223   -3.579978   -6.740421
    157          1           0       -7.380622   -1.705152   -6.650770
    158          1           0       -8.532533   -2.757183   -5.791372
 ---------------------------------------------------------------------

 SCF Done:  E(RCAM-B3LYP) =  -4069.81234853     A.U. after   19 cycles

 Excitation energies and oscillator strengths:

 Excited State   1:      Singlet-A      1.6728 eV  741.20 nm  f=0.3423  <S**2>=0.000
     310 -> 316        0.15997
     311 -> 313        0.25089
     312 -> 314        0.63845
 This state for optimization and/or second-order correction.
 Total Energy, E(TD-HF/TD-DFT) =  -4069.75087602
 Copying the excited state density for this state as the 1-particle RhoCI density.

 Excited State   2:      Singlet-A      1.6786 eV  738.63 nm  f=0.3587  <S**2>=0.000
     309 -> 315        0.16307
     311 -> 313        0.63809
     312 -> 314       -0.25096

 Excited State   3:      Singlet-A      2.1851 eV  567.41 nm  f=0.1016  <S**2>=0.000
     310 -> 314        0.64217
     312 -> 316       -0.27112

 Excited State   4:      Singlet-A      2.1927 eV  565.45 nm  f=0.0965  <S**2>=0.000
     309 -> 313        0.64028
     311 -> 315       -0.27776

 Excited State   5:      Singlet-A      2.4764 eV  500.66 nm  f=0.0000  <S**2>=0.000
     312 -> 313        0.70709

 The electronic state is 1-A.
 Alpha  occ. eigenvalues --  -46.87895 -46.87483 -19.26503 -19.26199 -19.19248
 Alpha  occ. eigenvalues --  -19.19009 -19.18905 -19.18595 -19.18316 -19.17899
 Alpha  occ. eigenvalues --  -14.42550 -14.42296 -14.41539 -14.41192 -14.39500
 Alpha  occ. eigenvalues --  -14.39176 -14.38694 -14.38427 -10.39297 -10.38937
 Alpha  occ. eigenvalues --  -10.35537 -10.35274 -10.34538 -10.34075 -10.31920
 Alpha  occ. eigenvalues --  -10.31614 -10.31514 -10.31087 -10.31013 -10.30818
 Alpha  occ. eigenvalues --  -10.30678 -10.30610 -10.30282 -10.30241 -10.30177
 Alpha  occ. eigenvalues --  -10.30012 -10.29980 -10.29750 -10.29736 -10.29347
 Alpha  occ. eigenvalues --  -10.29260 -10.29240 -10.28866 -10.28676 -10.28474
 Alpha  occ. eigenvalues --  -10.28457 -10.28423 -10.28225 -10.28221 -10.27901
 Alpha  occ. eigenvalues --  -10.27828 -10.27824 -10.27816 -10.27686 -10.27560
 Alpha  occ. eigenvalues --  -10.27543 -10.27514 -10.27498 -10.27444 -10.27410
 Alpha  occ. eigenvalues --  -10.27312 -10.27306 -10.27303 -10.27287 -10.27269
 Alpha  occ. eigenvalues --  -10.26888 -10.26838 -10.26494 -10.26464 -10.26329
 Alpha  occ. eigenvalues --  -10.26315 -10.26191 -10.26107 -10.26049 -10.25965
 Alpha  occ. eigenvalues --  -10.25768 -10.25706 -10.25544 -10.25475 -10.25362
 Alpha  occ. eigenvalues --  -10.24949 -10.24880 -10.24703 -10.24681 -10.24645
 Alpha  occ. eigenvalues --  -10.24535  -3.16638  -3.16233  -1.91520  -1.91115
 Alpha  occ. eigenvalues --   -1.91106  -1.90949  -1.90703  -1.90541  -1.16852
 Alpha  occ. eigenvalues --   -1.16492  -1.08783  -1.08508  -1.07305  -1.06866
 Alpha  occ. eigenvalues --   -1.06851  -1.06794  -1.04684  -1.04295  -1.03854
 Alpha  occ. eigenvalues --   -1.03486  -1.03334  -1.02874  -1.02510  -1.01940
 Alpha  occ. eigenvalues --   -0.92092  -0.91810  -0.89590  -0.89353  -0.89297
 Alpha  occ. eigenvalues --   -0.88873  -0.88351  -0.88097  -0.87983  -0.87772
 Alpha  occ. eigenvalues --   -0.87628  -0.87487  -0.87367  -0.86961  -0.85092
 Alpha  occ. eigenvalues --   -0.84770  -0.84001  -0.83765  -0.83047  -0.82801
 Alpha  occ. eigenvalues --   -0.82760  -0.82447  -0.81736  -0.81430  -0.80717
 Alpha  occ. eigenvalues --   -0.80273  -0.78895  -0.78465  -0.77311  -0.77051
 Alpha  occ. eigenvalues --   -0.76958  -0.76702  -0.76046  -0.75608  -0.74975
 Alpha  occ. eigenvalues --   -0.74674  -0.72873  -0.72523  -0.71771  -0.71390
 Alpha  occ. eigenvalues --   -0.69950  -0.69641  -0.68981  -0.68612  -0.67749
 Alpha  occ. eigenvalues --   -0.67439  -0.67333  -0.67004  -0.65402  -0.65055
 Alpha  occ. eigenvalues --   -0.64972  -0.64729  -0.64596  -0.64469  -0.64343
 Alpha  occ. eigenvalues --   -0.64064  -0.62455  -0.62122  -0.60530  -0.60190
 Alpha  occ. eigenvalues --   -0.59913  -0.59558  -0.59090  -0.58822  -0.58613
 Alpha  occ. eigenvalues --   -0.58260  -0.57740  -0.57406  -0.57392  -0.57095
 Alpha  occ. eigenvalues --   -0.56423  -0.56145  -0.56028  -0.55717  -0.55627
 Alpha  occ. eigenvalues --   -0.55440  -0.55287  -0.55117  -0.54643  -0.54356
 Alpha  occ. eigenvalues --   -0.54008  -0.53652  -0.53398  -0.53336  -0.53070
 Alpha  occ. eigenvalues --   -0.53048  -0.52962  -0.52854  -0.52719  -0.52480
 Alpha  occ. eigenvalues --   -0.52479  -0.52290  -0.52036  -0.51734  -0.51731
 Alpha  occ. eigenvalues --   -0.51449  -0.51308  -0.51034  -0.50654  -0.50322
 Alpha  occ. eigenvalues --   -0.50093  -0.50009  -0.49808  -0.49709  -0.49625
 Alpha  occ. eigenvalues --   -0.49335  -0.49295  -0.49211  -0.49013  -0.48865
 Alpha  occ. eigenvalues --   -0.48725  -0.48562  -0.48538  -0.48358  -0.48257
 Alpha  occ. eigenvalues --   -0.48186  -0.47795  -0.47409  -0.47395  -0.46955
 Alpha  occ. eigenvalues --   -0.46890  -0.46671  -0.46533  -0.46462  -0.46318
 Alpha  occ. eigenvalues --   -0.46269  -0.46109  -0.45960  -0.45944  -0.45652
 Alpha  occ. eigenvalues --   -0.45271  -0.45087  -0.44709  -0.44597  -0.44354
 Alpha  occ. eigenvalues --   -0.44262  -0.44244  -0.44186  -0.44135  -0.43939
 Alpha  occ. eigenvalues --   -0.43901  -0.43770  -0.43641  -0.43480  -0.43391
 Alpha  occ. eigenvalues --   -0.43192  -0.43133  -0.42882  -0.42775  -0.42734
 Alpha  occ. eigenvalues --   -0.42721  -0.42420  -0.42092  -0.41814  -0.41808
 Alpha  occ. eigenvalues --   -0.41639  -0.41498  -0.41254  -0.41240  -0.40964
 Alpha  occ. eigenvalues --   -0.40915  -0.40782  -0.40640  -0.40567  -0.40502
 Alpha  occ. eigenvalues --   -0.40352  -0.40324  -0.40009  -0.39476  -0.39313
 Alpha  occ. eigenvalues --   -0.38537  -0.38211  -0.37868  -0.37443  -0.37396
 Alpha  occ. eigenvalues --   -0.37380  -0.37109  -0.36986  -0.36888  -0.36625
 Alpha  occ. eigenvalues --   -0.36311  -0.36061  -0.34390  -0.34077  -0.33979
 Alpha  occ. eigenvalues --   -0.33707  -0.33294  -0.33000  -0.31434  -0.31153
 Alpha  occ. eigenvalues --   -0.31138  -0.30795  -0.30179  -0.29803  -0.29552
 Alpha  occ. eigenvalues --   -0.29435  -0.29165  -0.29045  -0.24182  -0.23856
 Alpha  occ. eigenvalues --   -0.21226  -0.20938
 Alpha virt. eigenvalues --   -0.08876  -0.08619  -0.01843  -0.01515  -0.00160
 Alpha virt. eigenvalues --    0.00141   0.02080   0.02361   0.03010   0.03391
 Alpha virt. eigenvalues --    0.04613   0.04894   0.04943   0.05321   0.06047

 Mulliken charges:
               1
     1  Mg   0.838767
     2  C   -0.003491
     3  C   -0.093967
     4  C   -0.045685
     5  C   -0.063813
     6  N   -0.256882
     7  C   -0.052490
     8  C   -0.014084
     9  C   -0.087067
    10  C    0.046423
    11  C    0.104731
    12  C    0.053401
    13  C   -0.071606
    14  H    0.035001
    15  N   -0.433219
    16  C    0.168640
    17  C   -0.176924
    18  C   -0.003830
    19  C    0.148844
    20  C    0.110082
    21  C    0.012274
    22  O   -0.249261
    23  C    0.062454
    24  N   -0.341207
    25  C    0.041462
    26  C   -0.028298
    27  C   -0.024065
    28  C    0.074909
    29  C    0.076077
    30  C    0.035015
    31  C   -0.004687
    32  N   -0.310243
    33  C    0.080046
    34  C   -0.170268
    35  C    0.007930
    36  C    0.082538
    37  C    0.127502
    38  C    0.045298
    39  O   -0.189359
    40  C   -0.005055
    41  C    0.212961
    42  O   -0.258847
    43  O   -0.304235
    44  C    0.158190
    45  H   -0.017335
    46  H   -0.016449
    47  H   -0.041251
    48  H    0.000826
    49  H   -0.003762
    50  H    0.025458
    51  H    0.016642
    52  H    0.016920
    53  H    0.011804
    54  H    0.043072
    55  H    0.018059
    56  H    0.018672
    57  H    0.006135
    58  H    0.027088
    59  H    0.039888
    60  H    0.037620
    61  H    0.035706
    62  H    0.031338
    63  H    0.017003
    64  H    0.009614
    65  H    0.023637
    66  H    0.012416
    67  H    0.004993
    68  H    0.007196
    69  H    0.004793
    70  H    0.009218
    71  H    0.019347
    72  H    0.027995
    73  H    0.046502
    74  H    0.009466
    75  H    0.046247
    76  H    0.035425
    77  H    0.043048
    78  H    0.046840
    79  H    0.051863
    80  Mg   0.837931
    81  C   -0.016858
    82  C   -0.086888
    83  C   -0.046021
    84  C   -0.064985
    85  N   -0.254745
    86  C   -0.049354
    87  C   -0.015233
    88  C   -0.090313
    89  C    0.045280
    90  C    0.113727
    91  C    0.062428
    92  C   -0.077719
    93  H    0.033809
    94  N   -0.423624
    95  C    0.162680
    96  C   -0.173626
    97  C   -0.008473
    98  C    0.152610
    99  C    0.099178
   100  C    0.015263
   101  O   -0.254123
   102  C    0.061323
   103  N   -0.350078
   104  C    0.037617
   105  C   -0.019713
   106  C   -0.034832
   107  C    0.088803
   108  C    0.074007
   109  C    0.034884
   110  C   -0.007557
   111  N   -0.324030
   112  C    0.078259
   113  C   -0.163395
   114  C    0.002071
   115  C    0.096120
   116  C    0.131577
   117  C    0.041966
   118  O   -0.188695
   119  C    0.001140
   120  C    0.211269
   121  O   -0.251203
   122  O   -0.305555
   123  C    0.152157
   124  H   -0.016498
   125  H   -0.016545
   126  H   -0.040831
   127  H   -0.000579
   128  H   -0.004015
   129  H    0.021228
   130  H    0.016750
   131  H    0.021213
   132  H    0.013666
   133  H    0.036993
   134  H    0.021463
   135  H    0.019991
   136  H    0.010285
   137  H    0.026347
   138  H    0.039145
   139  H    0.038205
   140  H    0.035567
   141  H    0.033976
   142  H    0.013964
   143  H    0.012320
   144  H    0.023957
   145  H    0.011377
   146  H    0.004959
   147  H    0.005494
   148  H    0.003650
   149  H    0.010573
   150  H    0.017633
   151  H    0.030499
   152  H    0.045525
   153  H    0.008273
   154  H    0.046849
   155  H    0.034894
   156  H    0.043413
   157  H    0.049899
   158  H    0.053284
 Sum of Mulliken charges =  -0.00000

 Dipole moment (field-independent basis, Debye):
    X=              5.0672    Y=              3.8751    Z=              2.4525  Tot=              6.8343
 Quadrupole moment (field-independent basis, Debye-Ang):
   XX=           -519.5657   YY=           -503.3954   ZZ=           -496.1822
   XY=            -13.7322   XZ=             27.5089   YZ=              0.1877

 Normal termination of Gaussian 16 at Sat Sep  4 06:49:11 2021.
