 Gaussian 16, Revision A.03,
 Gaussian 16:  ES64L-G16RevA.03 25-Dec-2016

 -----------------------------------
 #p cam-b3lyp/Def2SVP td=(nstates=5)
 -----------------------------------

 --------------------------------
 TDDFT excited states in gaussian
 --------------------------------
 Symbolic Z-matrix:
 Charge =  0 Multiplicity = 1

                         Standard orientation:
 ---------------------------------------------------------------------
 Center     Atomic      Atomic             Coordinates (Angstroms)
 Number     Number       Type             X           Y           Z
 ---------------------------------------------------------------------
      1         12           0       15.492339    0.745763    0.459201
      2          6           0       15.767442   -2.490029   -1.046185
      3          6           0       16.409418    2.060970   -2.552819
      4          6           0       15.698311    3.573695    1.879410
      5          6           0       15.713873   -0.838515    3.555432
      6          7           0       15.996217   -0.197527   -1.479087
      7          6           0       16.005515   -1.444138   -1.940656
      8          6           0       16.217662   -1.530788   -3.481714
      9          6           0       16.956783   -0.137127   -3.712820
     10          6           0       16.394716    0.634652   -2.531990
     11          6           0       18.472944   -0.220266   -3.568447
     12          6           0       14.863757   -1.598101   -4.265385
     13          6           0       14.979677   -2.010341   -5.735751
     14          1           0       13.926022   -2.826824   -6.319285
     15          7           0       15.503056    2.566578   -0.307198
     16          6           0       15.892363    2.917098   -1.556542
     17          6           0       15.714922    4.382632   -1.642614
     18          6           0       15.371072    4.880054   -0.281573
     19          6           0       15.538251    3.681459    0.499963
     20          6           0       15.824369    5.150868   -2.923857
     21          6           0       14.967626    6.224989    0.234676
     22          8           0       14.940118    6.493643    1.484333
     23          6           0       14.687075    7.259869   -0.776935
     24          7           0       15.899434    1.321835    2.423901
     25          6           0       15.869831    2.609145    2.785760
     26          6           0       15.910133    2.757979    4.277793
     27          6           0       15.727859    1.287835    4.873785
     28          6           0       15.694503    0.496230    3.543177
     29          6           0       17.186295    3.387384    4.853354
     30          6           0       14.574107    1.077556    5.886237
     31          6           0       13.242526    1.237029    5.187267
     32          7           0       15.525483   -1.304425    1.171013
     33          6           0       15.645743   -1.733421    2.500740
     34          6           0       15.730051   -3.205236    2.473870
     35          6           0       15.669259   -3.531345    1.120430
     36          6           0       15.580696   -2.337415    0.349080
     37          6           0       15.904457   -4.050760    3.604846
     38          6           0       15.683330   -4.609455    0.145064
     39          8           0       15.648990   -5.839070    0.211097
     40          6           0       15.870229   -3.973003   -1.302633
     41          6           0       14.849087   -4.601966   -2.210919
     42          8           0       13.630259   -4.389802   -2.047186
     43          8           0       15.471079   -5.155634   -3.263117
     44          6           0       14.512351   -5.771787   -4.218811
     45          1           0       16.913675    2.571661   -3.375534
     46          1           0       15.663052    4.523128    2.417715
     47          1           0       15.699380   -1.405819    4.487853
     48          1           0       16.858561   -2.350503   -3.806888
     49          1           0       16.656861    0.332146   -4.649598
     50          1           0       18.785290   -1.198357   -3.202796
     51          1           0       18.740182    0.557026   -2.852281
     52          1           0       18.966390    0.050261   -4.502312
     53          1           0       14.467808   -0.589775   -4.386066
     54          1           0       14.158081   -2.258608   -3.760332
     55          1           0       15.958931   -2.437376   -5.953954
     56          1           0       14.934604   -1.109363   -6.347638
     57          1           0       16.249022    4.541886   -3.720949
     58          1           0       16.560780    5.937652   -2.761439
     59          1           0       14.872972    5.593211   -3.219676
     60          1           0       15.573821    7.410722   -1.392950
     61          1           0       14.327770    8.128726   -0.226630
     62          1           0       13.906804    6.896793   -1.446489
     63          1           0       15.095648    3.389685    4.629915
     64          1           0       16.615882    0.950368    5.408766
     65          1           0       17.002344    4.277319    5.455752
     66          1           0       17.856805    3.608645    4.023444
     67          1           0       17.798135    2.713579    5.452566
     68          1           0       14.616536    1.831624    6.671429
     69          1           0       14.594869    0.098544    6.365148
     70          1           0       13.091173    2.315854    5.195053
     71          1           0       12.456251    0.728438    5.746120
     72          1           0       13.300120    0.923586    4.144711
     73          1           0       15.219577   -4.887620    3.468558
     74          1           0       15.699077   -3.517925    4.533020
     75          1           0       16.956518   -4.315025    3.499078
     76          1           0       16.889579   -4.198007   -1.614755
     77          1           0       14.808919   -6.813179   -4.344450
     78          1           0       14.506858   -5.136822   -5.104923
     79          1           0       13.487856   -5.890887   -3.864458
     80         12           0      -16.243654    0.324451   -0.172666
     81          6           0      -13.654881   -2.056873    0.539139
     82          6           0      -13.787880    2.665994   -0.520335
     83          6           0      -18.513661    2.533556   -0.358010
     84          6           0      -18.490041   -1.877895    1.327049
     85          7           0      -14.042907    0.198782    0.009500
     86          6           0      -13.167183   -0.771744    0.222870
     87          6           0      -11.685764   -0.359400    0.010898
     88          6           0      -11.838785    1.220585    0.253994
     89          6           0      -13.304304    1.388021   -0.142108
     90          6           0      -11.689144    1.622448    1.711883
     91          6           0      -11.180613   -0.670804   -1.441642
     92          6           0       -9.664397   -0.581306   -1.628228
     93          1           0       -9.019941   -1.515012   -2.547648
     94          7           0      -16.176531    2.178966   -0.876090
     95          6           0      -15.091541    2.976480   -0.965745
     96          6           0      -15.571799    4.247190   -1.530389
     97          6           0      -17.056672    4.192291   -1.613096
     98          6           0      -17.313554    2.947058   -0.917759
     99          6           0      -14.645100    5.329353   -2.003239
    100          6           0      -18.077479    5.115006   -2.207030
    101          8           0      -19.327725    4.987782   -1.954973
    102          6           0      -17.562224    6.228344   -3.017257
    103          7           0      -18.176488    0.427127    0.586251
    104          6           0      -18.971247    1.476968    0.313962
    105          6           0      -20.396682    1.204828    0.731643
    106          6           0      -20.441526   -0.345428    1.121859
    107          6           0      -18.948371   -0.695584    0.939429
    108          6           0      -20.917884    2.039127    1.901561
    109          6           0      -21.500122   -1.222740    0.399123
    110          6           0      -21.157129   -1.341392   -1.068417
    111          7           0      -16.163578   -1.690721    0.602416
    112          6           0      -17.213580   -2.413093    1.210491
    113          6           0      -16.646658   -3.694684    1.677990
    114          6           0      -15.290325   -3.618696    1.327191
    115          6           0      -15.026025   -2.368980    0.704406
    116          6           0      -17.356310   -4.713706    2.373773
    117          6           0      -14.019826   -4.307122    1.351665
    118          8           0      -13.648601   -5.434111    1.676973
    119          6           0      -12.877898   -3.274639    0.956221
    120          6           0      -11.995776   -3.928860   -0.071575
    121          8           0      -12.441363   -4.215096   -1.196806
    122          8           0      -10.722919   -3.910236    0.364161
    123          6           0       -9.808198   -4.538250   -0.626145
    124          1           0      -13.118812    3.522003   -0.428214
    125          1           0      -19.356830    3.214781   -0.493968
    126          1           0      -19.146160   -2.659232    1.716522
    127          1           0      -10.990192   -0.780134    0.727087
    128          1           0      -11.195953    1.787183   -0.414660
    129          1           0      -11.621835    0.762754    2.361902
    130          1           0      -12.568726    2.207081    1.947642
    131          1           0      -10.837316    2.298098    1.831140
    132          1           0      -11.500491    0.136653   -2.112784
    133          1           0      -11.528826   -1.631337   -1.768389
    134          1           0       -9.131888   -0.556590   -0.669702
    135          1           0       -9.427856    0.379848   -2.091093
    136          1           0      -13.616865    5.155602   -1.662737
    137          1           0      -14.946668    6.252513   -1.496597
    138          1           0      -14.696334    5.485782   -3.082851
    139          1           0      -16.895046    6.837145   -2.411706
    140          1           0      -18.444217    6.723187   -3.428456
    141          1           0      -16.958466    5.816715   -3.833758
    142          1           0      -21.080556    1.380393   -0.089695
    143          1           0      -20.670431   -0.490816    2.187835
    144          1           0      -21.831343    2.612894    1.655695
    145          1           0      -20.127668    2.703006    2.226137
    146          1           0      -21.135017    1.477608    2.808618
    147          1           0      -22.483558   -0.749092    0.450699
    148          1           0      -21.598872   -2.216849    0.822197
    149          1           0      -21.573491   -0.423515   -1.494149
    150          1           0      -21.623904   -2.224136   -1.500755
    151          1           0      -20.072176   -1.313628   -1.222515
    152          1           0      -17.055306   -5.656558    1.936826
    153          1           0      -18.432191   -4.567644    2.303736
    154          1           0      -16.985242   -4.551204    3.389239
    155          1           0      -12.331067   -3.026396    1.866672
    156          1           0       -9.267868   -5.333133   -0.102778
    157          1           0       -9.205477   -3.709799   -1.043448
    158          1           0      -10.257216   -5.090415   -1.443418
 ---------------------------------------------------------------------

 SCF Done:  E(RCAM-B3LYP) =  -4069.81176937     A.U. after   19 cycles

 Excitation energies and oscillator strengths:

 Excited State   1:      Singlet-A      1.6753 eV  740.07 nm  f=0.2053  <S**2>=0.000
     310 -> 316        0.16810
     311 -> 314       -0.16972
     312 -> 313        0.66473
     310 <- 316        0.10134
 This state for optimization and/or second-order correction.
 Total Energy, E(TD-HF/TD-DFT) =  -4069.75020345
 Copying the excited state density for this state as the 1-particle RhoCI density.

 Excited State   2:      Singlet-A      1.6801 eV  737.95 nm  f=0.5718  <S**2>=0.000
     309 -> 315        0.17013
     311 -> 314        0.66436
     312 -> 313        0.16966
     309 <- 315        0.10186

 Excited State   3:      Singlet-A      2.1861 eV  567.16 nm  f=0.1030  <S**2>=0.000
     310 -> 313        0.64248
     312 -> 316       -0.27307

 Excited State   4:      Singlet-A      2.1925 eV  565.50 nm  f=0.0985  <S**2>=0.000
     309 -> 314        0.64071
     311 -> 315       -0.27827

 Excited State   5:      Singlet-A      3.0619 eV  404.93 nm  f=0.0000  <S**2>=0.000
     312 -> 314        0.70709

 The electronic state is 1-A.
 Alpha  occ. eigenvalues --  -46.87812 -46.87658 -19.26334 -19.26294 -19.19148
 Alpha  occ. eigenvalues --  -19.19031 -19.18834 -19.18715 -19.18182 -19.18046
 Alpha  occ. eigenvalues --  -14.42495 -14.42465 -14.41465 -14.41358 -14.39418
 Alpha  occ. eigenvalues --  -14.39350 -14.38602 -14.38597 -10.39090 -10.39078
 Alpha  occ. eigenvalues --  -10.35467 -10.35392 -10.34402 -10.34223 -10.31735
 Alpha  occ. eigenvalues --  -10.31687 -10.31419 -10.31305 -10.31019 -10.30924
 Alpha  occ. eigenvalues --  -10.30584 -10.30523 -10.30396 -10.30358 -10.30223
 Alpha  occ. eigenvalues --  -10.30141 -10.29936 -10.29893 -10.29646 -10.29435
 Alpha  occ. eigenvalues --  -10.29399 -10.29270 -10.28762 -10.28711 -10.28639
 Alpha  occ. eigenvalues --  -10.28550 -10.28402 -10.28380 -10.28133 -10.28129
 Alpha  occ. eigenvalues --  -10.27999 -10.27808 -10.27742 -10.27666 -10.27600
 Alpha  occ. eigenvalues --  -10.27519 -10.27517 -10.27498 -10.27480 -10.27466
 Alpha  occ. eigenvalues --  -10.27466 -10.27463 -10.27418 -10.27377 -10.27170
 Alpha  occ. eigenvalues --  -10.27043 -10.26718 -10.26682 -10.26432 -10.26417
 Alpha  occ. eigenvalues --  -10.26246 -10.26201 -10.26140 -10.26034 -10.26017
 Alpha  occ. eigenvalues --  -10.25933 -10.25855 -10.25849 -10.25451 -10.25401
 Alpha  occ. eigenvalues --  -10.24870 -10.24847 -10.24803 -10.24733 -10.24707
 Alpha  occ. eigenvalues --  -10.24688  -3.16555  -3.16408  -1.91436  -1.91290
 Alpha  occ. eigenvalues --   -1.91023  -1.90879  -1.90865  -1.90716  -1.16642
 Alpha  occ. eigenvalues --   -1.16628  -1.08652  -1.08639  -1.07235  -1.06967
 Alpha  occ. eigenvalues --   -1.06933  -1.06653  -1.04596  -1.04492  -1.03776
 Alpha  occ. eigenvalues --   -1.03661  -1.03249  -1.03037  -1.02426  -1.02109
 Alpha  occ. eigenvalues --   -0.91986  -0.91983  -0.89535  -0.89494  -0.89201
 Alpha  occ. eigenvalues --   -0.89144  -0.88303  -0.88220  -0.87884  -0.87791
 Alpha  occ. eigenvalues --   -0.87687  -0.87681  -0.87291  -0.87119  -0.84996
 Alpha  occ. eigenvalues --   -0.84994  -0.83952  -0.83876  -0.82985  -0.82932
 Alpha  occ. eigenvalues --   -0.82663  -0.82648  -0.81598  -0.81588  -0.80610
 Alpha  occ. eigenvalues --   -0.80437  -0.78813  -0.78634  -0.77233  -0.77141
 Alpha  occ. eigenvalues --   -0.76947  -0.76892  -0.75936  -0.75832  -0.74913
 Alpha  occ. eigenvalues --   -0.74801  -0.72789  -0.72697  -0.71686  -0.71578
 Alpha  occ. eigenvalues --   -0.69924  -0.69758  -0.68887  -0.68822  -0.67656
 Alpha  occ. eigenvalues --   -0.67598  -0.67234  -0.67194  -0.65300  -0.65265
 Alpha  occ. eigenvalues --   -0.64868  -0.64767  -0.64648  -0.64635  -0.64285
 Alpha  occ. eigenvalues --   -0.64203  -0.62310  -0.62270  -0.60458  -0.60339
 Alpha  occ. eigenvalues --   -0.59818  -0.59791  -0.59002  -0.58990  -0.58518
 Alpha  occ. eigenvalues --   -0.58422  -0.57597  -0.57547  -0.57324  -0.57235
 Alpha  occ. eigenvalues --   -0.56324  -0.56201  -0.55990  -0.55877  -0.55536
 Alpha  occ. eigenvalues --   -0.55447  -0.55354  -0.55244  -0.54537  -0.54483
 Alpha  occ. eigenvalues --   -0.53908  -0.53906  -0.53314  -0.53237  -0.53225
 Alpha  occ. eigenvalues --   -0.53137  -0.52928  -0.52896  -0.52772  -0.52666
 Alpha  occ. eigenvalues --   -0.52455  -0.52402  -0.51928  -0.51883  -0.51653
 Alpha  occ. eigenvalues --   -0.51631  -0.51210  -0.51197  -0.50591  -0.50475
 Alpha  occ. eigenvalues --   -0.50048  -0.49977  -0.49935  -0.49867  -0.49529
 Alpha  occ. eigenvalues --   -0.49484  -0.49229  -0.49198  -0.49109  -0.49099
 Alpha  occ. eigenvalues --   -0.48606  -0.48552  -0.48477  -0.48460  -0.48375
 Alpha  occ. eigenvalues --   -0.48337  -0.47710  -0.47591  -0.47312  -0.47116
 Alpha  occ. eigenvalues --   -0.46812  -0.46706  -0.46569  -0.46548  -0.46374
 Alpha  occ. eigenvalues --   -0.46268  -0.46176  -0.46082  -0.45834  -0.45816
 Alpha  occ. eigenvalues --   -0.45217  -0.45208  -0.44591  -0.44523  -0.44509
 Alpha  occ. eigenvalues --   -0.44471  -0.44160  -0.44123  -0.44102  -0.44076
 Alpha  occ. eigenvalues --   -0.44034  -0.43935  -0.43545  -0.43507  -0.43400
 Alpha  occ. eigenvalues --   -0.43381  -0.43041  -0.42922  -0.42895  -0.42712
 Alpha  occ. eigenvalues --   -0.42669  -0.42553  -0.42024  -0.41961  -0.41718
 Alpha  occ. eigenvalues --   -0.41665  -0.41547  -0.41453  -0.41155  -0.40986
 Alpha  occ. eigenvalues --   -0.40884  -0.40841  -0.40719  -0.40694  -0.40587
 Alpha  occ. eigenvalues --   -0.40492  -0.40248  -0.40219  -0.39458  -0.39426
 Alpha  occ. eigenvalues --   -0.38484  -0.38349  -0.37762  -0.37646  -0.37336
 Alpha  occ. eigenvalues --   -0.37277  -0.37264  -0.37194  -0.36761  -0.36725
 Alpha  occ. eigenvalues --   -0.36213  -0.36206  -0.34301  -0.34251  -0.33852
 Alpha  occ. eigenvalues --   -0.33782  -0.33201  -0.33173  -0.31363  -0.31273
 Alpha  occ. eigenvalues --   -0.31050  -0.30970  -0.30041  -0.29950  -0.29465
 Alpha  occ. eigenvalues --   -0.29336  -0.29326  -0.29209  -0.24095  -0.24034
 Alpha  occ. eigenvalues --   -0.21143  -0.21115
 Alpha virt. eigenvalues --   -0.08790  -0.08789  -0.01765  -0.01682  -0.00074
 Alpha virt. eigenvalues --   -0.00027   0.02186   0.02210   0.03105   0.03228
 Alpha virt. eigenvalues --    0.04704   0.04734   0.05087   0.05176   0.06165

 Mulliken charges:
               1
     1  Mg   0.838716
     2  C   -0.002967
     3  C   -0.094113
     4  C   -0.045915
     5  C   -0.063979
     6  N   -0.256779
     7  C   -0.052467
     8  C   -0.013998
     9  C   -0.087014
    10  C    0.046310
    11  C    0.104809
    12  C    0.053474
    13  C   -0.071827
    14  H    0.036158
    15  N   -0.433152
    16  C    0.168392
    17  C   -0.177164
    18  C   -0.004032
    19  C    0.148713
    20  C    0.110179
    21  C    0.012245
    22  O   -0.249662
    23  C    0.062494
    24  N   -0.341158
    25  C    0.041262
    26  C   -0.028171
    27  C   -0.024000
    28  C    0.074867
    29  C    0.076176
    30  C    0.035149
    31  C   -0.004504
    32  N   -0.310466
    33  C    0.080415
    34  C   -0.169702
    35  C    0.008373
    36  C    0.082991
    37  C    0.127310
    38  C    0.046148
    39  O   -0.188359
    40  C   -0.005338
    41  C    0.212887
    42  O   -0.257125
    43  O   -0.304782
    44  C    0.157670
    45  H   -0.017590
    46  H   -0.016867
    47  H   -0.041469
    48  H    0.000976
    49  H   -0.004033
    50  H    0.025498
    51  H    0.016445
    52  H    0.016683
    53  H    0.011165
    54  H    0.044111
    55  H    0.017913
    56  H    0.017942
    57  H    0.005893
    58  H    0.026827
    59  H    0.039489
    60  H    0.037375
    61  H    0.035588
    62  H    0.031446
    63  H    0.016505
    64  H    0.009494
    65  H    0.023188
    66  H    0.012562
    67  H    0.004777
    68  H    0.006354
    69  H    0.004764
    70  H    0.008728
    71  H    0.018124
    72  H    0.028977
    73  H    0.047608
    74  H    0.009116
    75  H    0.046050
    76  H    0.035189
    77  H    0.043009
    78  H    0.046404
    79  H    0.053694
    80  Mg   0.837787
    81  C   -0.016824
    82  C   -0.087774
    83  C   -0.045527
    84  C   -0.064895
    85  N   -0.254553
    86  C   -0.049827
    87  C   -0.015067
    88  C   -0.090502
    89  C    0.045742
    90  C    0.114372
    91  C    0.062509
    92  C   -0.077952
    93  H    0.035017
    94  N   -0.423486
    95  C    0.162909
    96  C   -0.174626
    97  C   -0.007829
    98  C    0.152111
    99  C    0.099373
   100  C    0.015562
   101  O   -0.253210
   102  C    0.061203
   103  N   -0.350060
   104  C    0.037518
   105  C   -0.019840
   106  C   -0.034803
   107  C    0.088915
   108  C    0.073673
   109  C    0.034737
   110  C   -0.007675
   111  N   -0.324096
   112  C    0.078438
   113  C   -0.163143
   114  C    0.002277
   115  C    0.096208
   116  C    0.131493
   117  C    0.042387
   118  O   -0.187776
   119  C    0.000922
   120  C    0.211289
   121  O   -0.251044
   122  O   -0.305613
   123  C    0.151995
   124  H   -0.019640
   125  H   -0.015594
   126  H   -0.040471
   127  H   -0.000567
   128  H   -0.004293
   129  H    0.022492
   130  H    0.014382
   131  H    0.016340
   132  H    0.013878
   133  H    0.037683
   134  H    0.020879
   135  H    0.019577
   136  H    0.008784
   137  H    0.026126
   138  H    0.039778
   139  H    0.038249
   140  H    0.036372
   141  H    0.033897
   142  H    0.014390
   143  H    0.012406
   144  H    0.025119
   145  H    0.011636
   146  H    0.005658
   147  H    0.006244
   148  H    0.003653
   149  H    0.010921
   150  H    0.017932
   151  H    0.030120
   152  H    0.046037
   153  H    0.008492
   154  H    0.046955
   155  H    0.035084
   156  H    0.044049
   157  H    0.049544
   158  H    0.053578
 Sum of Mulliken charges =  -0.00000

 Dipole moment (field-independent basis, Debye):
    X=              3.9518    Y=              7.0553    Z=             -2.5264  Tot=              8.4721
 Quadrupole moment (field-independent basis, Debye-Ang):
   XX=           -484.3766   YY=           -557.0720   ZZ=           -471.2397
   XY=              8.6760   XZ=            -62.7865   YZ=            -10.2683

 Normal termination of Gaussian 16 at Sun Sep 12 16:49:18 2021.
