 Gaussian 16, Revision A.03,
 Gaussian 16:  ES64L-G16RevA.03 25-Dec-2016

 -----------------------------------
 #p cam-b3lyp/Def2SVP td=(nstates=5)
 -----------------------------------

 --------------------------------
 TDDFT excited states in gaussian
 --------------------------------
 Symbolic Z-matrix:
 Charge =  0 Multiplicity = 1

                         Standard orientation:
 ---------------------------------------------------------------------
 Center     Atomic      Atomic             Coordinates (Angstroms)
 Number     Number       Type             X           Y           Z
 ---------------------------------------------------------------------
      1         12           0       15.628906   -0.781206    0.216677
      2          6           0       15.882665    2.193585   -1.757770
      3          6           0       16.481956    1.118531    2.919706
      4          6           0       15.855532   -3.463293    1.893481
      5          6           0       15.916654   -2.594813   -2.745365
      6          7           0       16.096480    1.372304    0.427428
      7          6           0       16.099942    2.415810   -0.396134
      8          6           0       16.281455    3.779463    0.335218
      9          6           0       17.012000    3.262219    1.654597
     10          6           0       16.471565    1.843588    1.691204
     11          6           0       18.530967    3.206053    1.527770
     12          6           0       14.912332    4.462149    0.668649
     13          6           0       14.999940    5.933586    1.084041
     14          1           0       13.937053    6.840459    0.677594
     15          7           0       15.619321   -1.075551    2.170166
     16          6           0       15.982600   -0.185833    3.125004
     17          6           0       15.799477   -0.878647    4.418509
     18          6           0       15.481567   -2.304728    4.129859
     19          6           0       15.667615   -2.344674    2.701864
     20          6           0       15.881175   -0.183703    5.742944
     21          6           0       15.084861   -3.452294    5.003844
     22          8           0       15.081625   -4.659184    4.581966
     23          6           0       14.781308   -3.132480    6.410477
     24          7           0       16.073649   -2.751690   -0.309663
     25          6           0       16.047779   -3.731620    0.600311
     26          6           0       16.117514   -5.081879   -0.049211
     27          6           0       15.951210   -4.827477   -1.616812
     28          6           0       15.893402   -3.280013   -1.599928
     29          6           0       17.403213   -5.881003    0.204541
     30          6           0       14.818520   -5.600050   -2.338314
     31          6           0       13.472793   -5.107451   -1.855133
     32          7           0       15.681875   -0.320095   -1.903610
     33          6           0       15.829881   -1.229554   -2.960801
     34          6           0       15.917649   -0.438537   -4.202033
     35          6           0       15.830684    0.885476   -3.776271
     36          6           0       15.723452    0.920388   -2.356561
     37          6           0       16.116950   -0.960530   -5.510557
     38          6           0       15.828181    2.279765   -4.188350
     39          8           0       15.798523    2.863459   -5.272745
     40          6           0       15.984346    3.186634   -2.888724
     41          6           0       14.946958    4.273479   -2.965558
     42          8           0       13.731074    4.004134   -2.885275
     43          8           0       15.549284    5.469640   -2.882221
     44          6           0       14.573314    6.591248   -2.922634
     45          1           0       16.968259    1.562505    3.790532
     46          1           0       15.828458   -4.417875    2.423083
     47          1           0       15.922364   -3.095254   -3.715406
     48          1           0       16.917954    4.494055   -0.186942
     49          1           0       16.692120    3.812526    2.539222
     50          1           0       18.853232    3.408436    0.506443
     51          1           0       18.810357    2.194093    1.821662
     52          1           0       19.004893    3.869834    2.251349
     53          1           0       14.511300    4.033639    1.587133
     54          1           0       14.218705    4.364173   -0.167179
     55          1           0       15.975793    6.357609    0.845665
     56          1           0       14.940177    5.985707    2.171199
     57          1           0       16.291457    0.820469    5.643687
     58          1           0       16.618539   -0.720675    6.339320
     59          1           0       14.922847   -0.176580    6.262453
     60          1           0       15.655138   -2.671460    6.871378
     61          1           0       14.430714   -4.060399    6.860920
     62          1           0       13.988792   -2.384125    6.439332
     63          1           0       15.308516   -5.724239    0.296221
     64          1           0       16.850674   -5.094337   -2.172171
     65          1           0       17.228922   -6.861615    0.648081
     66          1           0       18.056381   -5.277502    0.834183
     67          1           0       18.028753   -6.031783   -0.674880
     68          1           0       14.874591   -6.662340   -2.103061
     69          1           0       14.851529   -5.498412   -3.423132
     70          1           0       13.318684   -5.678497   -0.940262
     71          1           0       12.699245   -5.331745   -2.590338
     72          1           0       13.510375   -4.053504   -1.578964
     73          1           0       15.431766   -0.418963   -6.162629
     74          1           0       15.928726   -2.033470   -5.541771
     75          1           0       17.167402   -0.716122   -5.667628
     76          1           0       16.997858    3.586187   -2.905226
     77          1           0       14.870150    7.245644   -3.742322
     78          1           0       14.548365    7.016605   -1.919213
     79          1           0       13.556442    6.334840   -3.221909
     80         12           0      -16.118501   -0.518618   -0.230332
     81          6           0      -13.847827    1.836114    1.245582
     82          6           0      -18.579775    1.799651    0.219456
     83          6           0      -18.221491   -2.726766   -1.107235
     84          6           0      -13.782644   -3.005519    0.480159
     85          7           0      -16.093008    1.518294    0.631402
     86          6           0      -15.160689    2.331857    1.103888
     87          6           0      -15.646620    3.782174    1.368490
     88          6           0      -17.212353    3.480243    1.558670
     89          6           0      -17.318580    2.205442    0.724245
     90          6           0      -17.591046    3.145905    2.991907
     91          6           0      -15.389010    4.731285    0.145854
     92          6           0      -15.553655    6.223188    0.443994
     93          1           0      -14.670277    7.169612   -0.231588
     94          7           0      -17.988069   -0.329894   -0.868819
     95          6           0      -18.837487    0.686471   -0.610450
     96          6           0      -20.095380    0.342468   -1.291275
     97          6           0      -19.972267   -1.037294   -1.835167
     98          6           0      -18.702406   -1.434622   -1.261000
     99          6           0      -21.229428    1.313922   -1.445086
    100          6           0      -20.857755   -1.867058   -2.714714
    101          8           0      -20.666645   -3.125208   -2.867538
    102          6           0      -22.010419   -1.181989   -3.317663
    103          7           0      -16.114497   -2.594415   -0.114556
    104          6           0      -17.131035   -3.316815   -0.617260
    105          6           0      -16.783576   -4.785503   -0.668322
    106          6           0      -15.225303   -4.870739   -0.318909
    107          6           0      -14.949691   -3.379543   -0.026081
    108          6           0      -17.568376   -5.688246    0.283280
    109          6           0      -14.313975   -5.604041   -1.340887
    110          6           0      -14.241554   -4.813899   -2.627669
    111          7           0      -14.093976   -0.581903    0.521564
    112          6           0      -13.310685   -1.730976    0.766831
    113          6           0      -12.047980   -1.273858    1.382500
    114          6           0      -12.194938    0.118420    1.474542
    115          6           0      -13.468138    0.499877    0.971617
    116          6           0      -10.982679   -2.112353    1.816300
    117          6           0      -11.566789    1.351052    1.892569
    118          8           0      -10.452153    1.659100    2.312604
    119          6           0      -12.659787    2.504987    1.879444
    120          6           0      -12.068933    3.696432    1.176672
    121          8           0      -11.784998    3.640171   -0.032793
    122          8           0      -12.138640    4.766585    1.989259
    123          6           0      -11.574738    5.975894    1.332427
    124          1           0      -19.464309    2.361702    0.520431
    125          1           0      -18.864851   -3.518852   -1.497315
    126          1           0      -12.963472   -3.709654    0.640934
    127          1           0      -15.244616    4.239569    2.264566
    128          1           0      -17.822123    4.270020    1.127626
    129          1           0      -16.722407    3.050517    3.626344
    130          1           0      -18.128648    2.208021    2.942971
    131          1           0      -18.303507    3.882047    3.375069
    132          1           0      -16.194002    4.596392   -0.588000
    133          1           0      -14.419995    4.552263   -0.277914
    134          1           0      -15.583906    6.427385    1.521184
    135          1           0      -16.534118    6.543083    0.082920
    136          1           0      -21.097429    2.191663   -0.800450
    137          1           0      -22.126846    0.822305   -1.054166
    138          1           0      -21.405227    1.594803   -2.485701
    139          1           0      -22.637523   -0.769590   -2.530811
    140          1           0      -22.471421   -1.915341   -3.982151
    141          1           0      -21.644416   -0.333037   -3.905833
    142          1           0      -16.943408   -5.186401   -1.661724
    143          1           0      -15.047603   -5.413647    0.621042
    144          1           0      -18.103353   -6.507155   -0.233691
    145          1           0      -18.262014   -5.074127    0.842083
    146          1           0      -16.978896   -6.149017    1.074096
    147          1           0      -14.739608   -6.577185   -1.597766
    148          1           0      -13.307911   -5.779132   -0.974600
    149          1           0      -15.147258   -5.122684   -3.158175
    150          1           0      -13.346767   -5.076355   -3.188503
    151          1           0      -14.323543   -3.738066   -2.434043
    152          1           0      -10.064153   -1.642048    1.491296
    153          1           0      -11.079276   -3.118411    1.413463
    154          1           0      -11.141764   -2.086132    2.897630
    155          1           0      -12.914910    2.726374    2.916492
    156          1           0      -10.795705    6.365440    1.995043
    157          1           0      -12.439001    6.635655    1.128714
    158          1           0      -11.018790    5.833705    0.413108
 ---------------------------------------------------------------------

 SCF Done:  E(RCAM-B3LYP) =  -4069.81175766     A.U. after   19 cycles

 Excitation energies and oscillator strengths:

 Excited State   1:      Singlet-A      1.6756 eV  739.95 nm  f=0.3756  <S**2>=0.000
     309 -> 315        0.17312
     311 -> 313        0.68412
     309 <- 315        0.10434
 This state for optimization and/or second-order correction.
 Total Energy, E(TD-HF/TD-DFT) =  -4069.75018140
 Copying the excited state density for this state as the 1-particle RhoCI density.

 Excited State   2:      Singlet-A      1.6799 eV  738.04 nm  f=0.4060  <S**2>=0.000
     310 -> 316        0.17506
     312 -> 314        0.68377
     310 <- 316        0.10484

 Excited State   3:      Singlet-A      2.1861 eV  567.15 nm  f=0.0946  <S**2>=0.000
     309 -> 313        0.64203
     311 -> 315       -0.27295

 Excited State   4:      Singlet-A      2.1925 eV  565.49 nm  f=0.1054  <S**2>=0.000
     310 -> 314        0.64026
     312 -> 316       -0.27811

 Excited State   5:      Singlet-A      3.0453 eV  407.14 nm  f=0.0000  <S**2>=0.000
     312 -> 313        0.70709

 The electronic state is 1-A.
 Alpha  occ. eigenvalues --  -46.87722 -46.87660 -19.26346 -19.26208 -19.19157
 Alpha  occ. eigenvalues --  -19.18942 -19.18741 -19.18714 -19.18096 -19.18050
 Alpha  occ. eigenvalues --  -14.42498 -14.42376 -14.41376 -14.41360 -14.39352
 Alpha  occ. eigenvalues --  -14.39329 -14.38600 -14.38513 -10.39087 -10.39002
 Alpha  occ. eigenvalues --  -10.35391 -10.35374 -10.34316 -10.34228 -10.31752
 Alpha  occ. eigenvalues --  -10.31602 -10.31332 -10.31309 -10.31024 -10.30835
 Alpha  occ. eigenvalues --  -10.30496 -10.30434 -10.30398 -10.30360 -10.30141
 Alpha  occ. eigenvalues --  -10.30134 -10.29895 -10.29848 -10.29557 -10.29437
 Alpha  occ. eigenvalues --  -10.29401 -10.29181 -10.28720 -10.28675 -10.28653
 Alpha  occ. eigenvalues --  -10.28460 -10.28405 -10.28291 -10.28142 -10.28044
 Alpha  occ. eigenvalues --  -10.28001 -10.27720 -10.27670 -10.27654 -10.27518
 Alpha  occ. eigenvalues --  -10.27511 -10.27484 -10.27468 -10.27465 -10.27430
 Alpha  occ. eigenvalues --  -10.27408 -10.27379 -10.27376 -10.27330 -10.27084
 Alpha  occ. eigenvalues --  -10.27050 -10.26692 -10.26626 -10.26415 -10.26335
 Alpha  occ. eigenvalues --  -10.26166 -10.26135 -10.26111 -10.26029 -10.25946
 Alpha  occ. eigenvalues --  -10.25934 -10.25849 -10.25773 -10.25400 -10.25369
 Alpha  occ. eigenvalues --  -10.24873 -10.24759 -10.24726 -10.24715 -10.24690
 Alpha  occ. eigenvalues --  -10.24610  -3.16465  -3.16410  -1.91347  -1.91293
 Alpha  occ. eigenvalues --   -1.90933  -1.90881  -1.90775  -1.90718  -1.16640
 Alpha  occ. eigenvalues --   -1.16556  -1.08657  -1.08554  -1.07142  -1.06967
 Alpha  occ. eigenvalues --   -1.06942  -1.06565  -1.04507  -1.04496  -1.03687
 Alpha  occ. eigenvalues --   -1.03664  -1.03160  -1.03039  -1.02338  -1.02112
 Alpha  occ. eigenvalues --   -0.91987  -0.91898  -0.89494  -0.89447  -0.89152
 Alpha  occ. eigenvalues --   -0.89114  -0.88220  -0.88215  -0.87798  -0.87793
 Alpha  occ. eigenvalues --   -0.87684  -0.87599  -0.87200  -0.87120  -0.85000
 Alpha  occ. eigenvalues --   -0.84908  -0.83875  -0.83864  -0.82931  -0.82893
 Alpha  occ. eigenvalues --   -0.82653  -0.82574  -0.81595  -0.81511  -0.80522
 Alpha  occ. eigenvalues --   -0.80442  -0.78724  -0.78635  -0.77145  -0.77145
 Alpha  occ. eigenvalues --   -0.76898  -0.76860  -0.75850  -0.75839  -0.74827
 Alpha  occ. eigenvalues --   -0.74803  -0.72701  -0.72699  -0.71600  -0.71582
 Alpha  occ. eigenvalues --   -0.69834  -0.69756  -0.68827  -0.68799  -0.67602
 Alpha  occ. eigenvalues --   -0.67568  -0.67200  -0.67144  -0.65272  -0.65212
 Alpha  occ. eigenvalues --   -0.64780  -0.64770  -0.64653  -0.64547  -0.64203
 Alpha  occ. eigenvalues --   -0.64196  -0.62277  -0.62223  -0.60369  -0.60340
 Alpha  occ. eigenvalues --   -0.59797  -0.59731  -0.58993  -0.58914  -0.58430
 Alpha  occ. eigenvalues --   -0.58425  -0.57553  -0.57510  -0.57236  -0.57235
 Alpha  occ. eigenvalues --   -0.56237  -0.56204  -0.55903  -0.55885  -0.55451
 Alpha  occ. eigenvalues --   -0.55447  -0.55266  -0.55247  -0.54487  -0.54449
 Alpha  occ. eigenvalues --   -0.53913  -0.53821  -0.53227  -0.53225  -0.53148
 Alpha  occ. eigenvalues --   -0.53141  -0.52901  -0.52840  -0.52682  -0.52668
 Alpha  occ. eigenvalues --   -0.52399  -0.52364  -0.51884  -0.51843  -0.51658
 Alpha  occ. eigenvalues --   -0.51542  -0.51200  -0.51122  -0.50498  -0.50475
 Alpha  occ. eigenvalues --   -0.49980  -0.49959  -0.49867  -0.49845  -0.49488
 Alpha  occ. eigenvalues --   -0.49441  -0.49202  -0.49141  -0.49105  -0.49023
 Alpha  occ. eigenvalues --   -0.48558  -0.48520  -0.48389  -0.48376  -0.48372
 Alpha  occ. eigenvalues --   -0.48338  -0.47621  -0.47595  -0.47224  -0.47118
 Alpha  occ. eigenvalues --   -0.46724  -0.46709  -0.46554  -0.46481  -0.46286
 Alpha  occ. eigenvalues --   -0.46270  -0.46090  -0.46085  -0.45821  -0.45749
 Alpha  occ. eigenvalues --   -0.45209  -0.45130  -0.44514  -0.44504  -0.44476
 Alpha  occ. eigenvalues --   -0.44433  -0.44128  -0.44077  -0.44071  -0.44015
 Alpha  occ. eigenvalues --   -0.43946  -0.43939  -0.43552  -0.43420  -0.43386
 Alpha  occ. eigenvalues --   -0.43312  -0.42954  -0.42929  -0.42900  -0.42624
 Alpha  occ. eigenvalues --   -0.42580  -0.42553  -0.41963  -0.41935  -0.41669
 Alpha  occ. eigenvalues --   -0.41631  -0.41459  -0.41459  -0.41069  -0.40990
 Alpha  occ. eigenvalues --   -0.40795  -0.40749  -0.40722  -0.40698  -0.40499
 Alpha  occ. eigenvalues --   -0.40493  -0.40227  -0.40158  -0.39424  -0.39367
 Alpha  occ. eigenvalues --   -0.38397  -0.38351  -0.37672  -0.37653  -0.37266
 Alpha  occ. eigenvalues --   -0.37248  -0.37200  -0.37189  -0.36769  -0.36638
 Alpha  occ. eigenvalues --   -0.36217  -0.36118  -0.34253  -0.34212  -0.33859
 Alpha  occ. eigenvalues --   -0.33693  -0.33176  -0.33112  -0.31273  -0.31271
 Alpha  occ. eigenvalues --   -0.30973  -0.30962  -0.29956  -0.29955  -0.29375
 Alpha  occ. eigenvalues --   -0.29327  -0.29248  -0.29211  -0.24036  -0.24007
 Alpha  occ. eigenvalues --   -0.21117  -0.21054
 Alpha virt. eigenvalues --   -0.08792  -0.08701  -0.01684  -0.01676  -0.00029
 Alpha virt. eigenvalues --    0.00016   0.02207   0.02274   0.03201   0.03229
 Alpha virt. eigenvalues --    0.04729   0.04792   0.05168   0.05175   0.06183

 Mulliken charges:
               1
     1  Mg   0.838779
     2  C   -0.002933
     3  C   -0.094074
     4  C   -0.045864
     5  C   -0.063979
     6  N   -0.256769
     7  C   -0.052456
     8  C   -0.014017
     9  C   -0.086983
    10  C    0.046323
    11  C    0.104827
    12  C    0.053450
    13  C   -0.071833
    14  H    0.036254
    15  N   -0.433111
    16  C    0.168446
    17  C   -0.177157
    18  C   -0.003994
    19  C    0.148745
    20  C    0.110199
    21  C    0.012329
    22  O   -0.249654
    23  C    0.062448
    24  N   -0.341127
    25  C    0.041231
    26  C   -0.028153
    27  C   -0.023983
    28  C    0.074874
    29  C    0.076205
    30  C    0.035134
    31  C   -0.004508
    32  N   -0.310458
    33  C    0.080418
    34  C   -0.169703
    35  C    0.008350
    36  C    0.083011
    37  C    0.127302
    38  C    0.046132
    39  O   -0.188471
    40  C   -0.005350
    41  C    0.212872
    42  O   -0.256975
    43  O   -0.304856
    44  C    0.157676
    45  H   -0.017652
    46  H   -0.016870
    47  H   -0.041530
    48  H    0.000881
    49  H   -0.004014
    50  H    0.025428
    51  H    0.016404
    52  H    0.016596
    53  H    0.011286
    54  H    0.044207
    55  H    0.017771
    56  H    0.017958
    57  H    0.005856
    58  H    0.026746
    59  H    0.039646
    60  H    0.037278
    61  H    0.035647
    62  H    0.031623
    63  H    0.016584
    64  H    0.009378
    65  H    0.023166
    66  H    0.012500
    67  H    0.004677
    68  H    0.006301
    69  H    0.004700
    70  H    0.008798
    71  H    0.018213
    72  H    0.029056
    73  H    0.047602
    74  H    0.009100
    75  H    0.045918
    76  H    0.035071
    77  H    0.042879
    78  H    0.046403
    79  H    0.053794
    80  Mg   0.837826
    81  C   -0.016809
    82  C   -0.087785
    83  C   -0.045515
    84  C   -0.064892
    85  N   -0.254554
    86  C   -0.049845
    87  C   -0.015095
    88  C   -0.090506
    89  C    0.045750
    90  C    0.114387
    91  C    0.062527
    92  C   -0.077924
    93  H    0.034971
    94  N   -0.423483
    95  C    0.162930
    96  C   -0.174632
    97  C   -0.007795
    98  C    0.152121
    99  C    0.099371
   100  C    0.015580
   101  O   -0.253172
   102  C    0.061184
   103  N   -0.350058
   104  C    0.037520
   105  C   -0.019812
   106  C   -0.034852
   107  C    0.088925
   108  C    0.073655
   109  C    0.034750
   110  C   -0.007695
   111  N   -0.324088
   112  C    0.078465
   113  C   -0.163098
   114  C    0.002248
   115  C    0.096216
   116  C    0.131475
   117  C    0.042413
   118  O   -0.187828
   119  C    0.000907
   120  C    0.211258
   121  O   -0.250929
   122  O   -0.305678
   123  C    0.152009
   124  H   -0.019678
   125  H   -0.015569
   126  H   -0.040422
   127  H   -0.000670
   128  H   -0.004312
   129  H    0.022431
   130  H    0.014406
   131  H    0.016260
   132  H    0.013941
   133  H    0.037724
   134  H    0.020748
   135  H    0.019594
   136  H    0.008757
   137  H    0.026126
   138  H    0.039827
   139  H    0.038238
   140  H    0.036415
   141  H    0.033928
   142  H    0.014432
   143  H    0.012397
   144  H    0.025151
   145  H    0.011607
   146  H    0.005651
   147  H    0.006266
   148  H    0.003682
   149  H    0.010935
   150  H    0.018020
   151  H    0.030107
   152  H    0.046104
   153  H    0.008551
   154  H    0.046890
   155  H    0.034974
   156  H    0.043903
   157  H    0.049476
   158  H    0.053667
 Sum of Mulliken charges =  -0.00000

 Dipole moment (field-independent basis, Debye):
    X=             -2.1409    Y=              2.3342    Z=              4.9587  Tot=              5.8840
 Quadrupole moment (field-independent basis, Debye-Ang):
   XX=           -337.9620   YY=           -469.2826   ZZ=           -519.5182
   XY=            -36.2654   XZ=             41.8087   YZ=             31.9047

 Normal termination of Gaussian 16 at Sun Sep 12 15:30:09 2021.
