 Gaussian 16, Revision A.03,
 Gaussian 16:  ES64L-G16RevA.03 25-Dec-2016

 -----------------------------------
 #p cam-b3lyp/Def2SVP td=(nstates=5)
 -----------------------------------

 --------------------------------
 TDDFT excited states in gaussian
 --------------------------------
 Symbolic Z-matrix:
 Charge =  0 Multiplicity = 1

                         Standard orientation:
 ---------------------------------------------------------------------
 Center     Atomic      Atomic             Coordinates (Angstroms)
 Number     Number       Type             X           Y           Z
 ---------------------------------------------------------------------
      1         12           0        3.762387   -0.551074    0.649798
      2          6           0        4.397958    2.610633   -0.903222
      3          6           0        4.623607    0.900372    3.615379
      4          6           0        3.648179   -3.432733    1.968744
      5          6           0        4.058266   -1.995248   -2.508124
      6          7           0        4.408869    1.503074    1.162813
      7          6           0        4.554413    2.636976    0.484392
      8          6           0        4.814933    3.873278    1.396018
      9          6           0        5.417568    3.125209    2.668504
     10          6           0        4.750367    1.772380    2.493520
     11          6           0        6.930112    2.938674    2.605902
     12          6           0        3.495713    4.637733    1.752386
     13          6           0        3.691042    6.029451    2.360925
     14          1           0        2.739718    7.079043    2.028229
     15          7           0        3.612183   -1.087509    2.545194
     16          6           0        3.997679   -0.364935    3.624345
     17          6           0        3.677628   -1.194582    4.805842
     18          6           0        3.250004   -2.535229    4.318096
     19          6           0        3.514837   -2.412294    2.907377
     20          6           0        3.744030   -0.683717    6.212383
     21          6           0        2.701172   -3.740149    5.014575
     22          8           0        2.613928   -4.878045    4.438246
     23          6           0        2.345964   -3.572706    6.435432
     24          7           0        4.057876   -2.473017   -0.109449
     25          6           0        3.890729   -3.552899    0.661849
     26          6           0        3.876428   -4.810646   -0.155346
     27          6           0        3.825610   -4.345356   -1.682001
     28          6           0        3.906502   -2.814157   -1.464848
     29          6           0        5.067904   -5.756151    0.050605
     30          6           0        2.672063   -4.907241   -2.550351
     31          6           0        1.350234   -4.351631   -2.069557
     32          7           0        3.980491    0.166872   -1.386873
     33          6           0        4.107529   -0.611778   -2.546287
     34          6           0        4.338564    0.317451   -3.667547
     35          6           0        4.346448    1.579221   -3.076177
     36          6           0        4.160007    1.444730   -1.670672
     37          6           0        4.566181   -0.051891   -5.022616
     38          6           0        4.493601    3.008031   -3.301355
     39          8           0        4.580053    3.724141   -4.299957
     40          6           0        4.654574    3.724041   -1.888116
     41          6           0        3.725544    4.907202   -1.869604
     42          8           0        2.487740    4.748902   -1.881779
     43          8           0        4.427235    6.019252   -1.602177
     44          6           0        3.560270    7.226183   -1.540191
     45          1           0        5.096187    1.181583    4.558528
     46          1           0        3.504348   -4.439423    2.366645
     47          1           0        4.075570   -2.367323   -3.534143
     48          1           0        5.542621    4.583078    1.002218
     49          1           0        5.097393    3.587729    3.601930
     50          1           0        7.328429    3.236284    1.636009
     51          1           0        7.099582    1.875434    2.777053
     52          1           0        7.418784    3.456689    3.431515
     53          1           0        3.004730    4.137499    2.587110
     54          1           0        2.846120    4.713766    0.879704
     55          1           0        4.713372    6.383673    2.225728
     56          1           0        3.572781    5.949362    3.441573
     57          1           0        4.248170    0.280456    6.264899
     58          1           0        4.393924   -1.360590    6.766631
     59          1           0        2.761521   -0.649502    6.683378
     60          1           0        3.229324   -3.260413    6.992835
     61          1           0        1.887511   -4.511743    6.743458
     62          1           0        1.623733   -2.760785    6.525519
     63          1           0        2.994072   -5.410104    0.064936
     64          1           0        4.728302   -4.625769   -2.225315
     65          1           0        4.780393   -6.763411    0.353045
     66          1           0        5.734845   -5.303140    0.783586
     67          1           0        5.727648   -5.854498   -0.811070
     68          1           0        2.618399   -5.991134   -2.454221
     69          1           0        2.777433   -4.673057   -3.609741
     70          1           0        1.092123   -5.016041   -1.245682
     71          1           0        0.603925   -4.405277   -2.862877
     72          1           0        1.466367   -3.349647   -1.656001
     73          1           0        3.971836    0.631500   -5.628998
     74          1           0        4.284250   -1.088979   -5.203072
     75          1           0        5.641752    0.107511   -5.097419
     76          1           0        5.699174    4.022429   -1.805067
     77          1           0        3.962225    7.947035   -2.252258
     78          1           0        3.515125    7.521777   -0.491864
     79          1           0        2.543675    7.109330   -1.917312
     80         12           0       -4.107489    0.288984    0.184418
     81          6           0       -3.252245   -1.357603   -2.887443
     82          6           0       -4.378337   -2.805348    1.593797
     83          6           0       -5.297834    1.682057    2.774764
     84          6           0       -4.878869    3.113385   -1.705936
     85          7           0       -3.826372   -1.743199   -0.642285
     86          6           0       -3.441553   -2.243827   -1.806605
     87          6           0       -3.170987   -3.772267   -1.791680
     88          6           0       -4.095375   -4.167895   -0.539543
     89          6           0       -4.075687   -2.836772    0.209055
     90          6           0       -5.532101   -4.477269   -0.926119
     91          6           0       -1.662622   -4.109645   -1.521421
     92          6           0       -1.268942   -5.562260   -1.798340
     93          1           0        0.061187   -5.832302   -2.337135
     94          7           0       -4.274416   -0.385337    2.043446
     95          6           0       -4.348284   -1.673757    2.438155
     96          6           0       -4.482321   -1.638813    3.902721
     97          6           0       -4.647233   -0.221343    4.324988
     98          6           0       -4.769747    0.425700    3.034097
     99          6           0       -4.368093   -2.865934    4.759795
    100          6           0       -4.700352    0.440468    5.668630
    101          8           0       -5.088761    1.654123    5.806550
    102          6           0       -4.373694   -0.402506    6.828007
    103          7           0       -5.163861    2.055747    0.475903
    104          6           0       -5.516547    2.454694    1.710561
    105          6           0       -6.019764    3.878446    1.700829
    106          6           0       -5.703273    4.435963    0.235704
    107          6           0       -5.127437    3.153598   -0.404112
    108          6           0       -7.506787    4.060519    2.004109
    109          6           0       -4.871696    5.744772    0.145168
    110          6           0       -3.461911    5.495120    0.630525
    111          7           0       -3.908608    0.877501   -1.884917
    112          6           0       -4.319593    2.095963   -2.468466
    113          6           0       -4.079656    1.985345   -3.921952
    114          6           0       -3.563061    0.691421   -4.087394
    115          6           0       -3.505338    0.034241   -2.828710
    116          6           0       -4.380077    2.981906   -4.892898
    117          6           0       -3.063404   -0.271750   -5.042039
    118          8           0       -2.798955   -0.247321   -6.243378
    119          6           0       -2.958235   -1.686305   -4.324847
    120          6           0       -1.611046   -2.272010   -4.648217
    121          8           0       -0.570691   -1.730755   -4.234333
    122          8           0       -1.780114   -3.485664   -5.203957
    123          6           0       -0.471672   -4.111747   -5.532319
    124          1           0       -4.711576   -3.726297    2.073059
    125          1           0       -5.620446    2.248104    3.651685
    126          1           0       -5.001583    3.986098   -2.350906
    127          1           0       -3.500129   -4.300532   -2.678448
    128          1           0       -3.635319   -4.949243    0.059789
    129          1           0       -5.723894   -4.264545   -1.967324
    130          1           0       -6.148206   -3.852644   -0.292622
    131          1           0       -5.779225   -5.509801   -0.663194
    132          1           0       -1.474116   -4.066603   -0.440974
    133          1           0       -1.020151   -3.449972   -2.071583
    134          1           0       -2.033592   -6.093144   -2.378364
    135          1           0       -1.232940   -6.099356   -0.847421
    136          1           0       -4.412957   -3.782255    4.158352
    137          1           0       -5.268102   -2.905670    5.382903
    138          1           0       -3.489730   -2.846376    5.408469
    139          1           0       -5.054642   -1.249636    6.861877
    140          1           0       -4.379193    0.269261    7.688571
    141          1           0       -3.367270   -0.813066    6.689578
    142          1           0       -5.489659    4.480952    2.428195
    143          1           0       -6.623713    4.676556   -0.316328
    144          1           0       -7.698162    4.731485    2.862744
    145          1           0       -7.941305    3.085310    2.179364
    146          1           0       -8.104877    4.434266    1.174773
    147          1           0       -5.295263    6.508755    0.801730
    148          1           0       -4.833980    6.164264   -0.854630
    149          1           0       -3.555169    5.586111    1.716853
    150          1           0       -2.780535    6.242419    0.228895
    151          1           0       -3.146335    4.468404    0.411619
    152          1           0       -3.533305    3.027261   -5.564783
    153          1           0       -4.570878    3.946345   -4.426841
    154          1           0       -5.283048    2.555050   -5.337540
    155          1           0       -3.774361   -2.305155   -4.699734
    156          1           0       -0.496044   -4.363130   -6.597165
    157          1           0       -0.354113   -4.949522   -4.819539
    158          1           0        0.410549   -3.484269   -5.483290
 ---------------------------------------------------------------------

 SCF Done:  E(RCAM-B3LYP) =  -4069.78332753     A.U. after   19 cycles

 Excitation energies and oscillator strengths:

 Excited State   1:      Singlet-A      1.6351 eV  758.29 nm  f=0.0047  <S**2>=0.000
     309 -> 315       -0.11074
     310 -> 316        0.11851
     311 -> 313       -0.11186
     311 -> 314       -0.45779
     312 -> 313        0.49103
     312 -> 314       -0.10346
 This state for optimization and/or second-order correction.
 Total Energy, E(TD-HF/TD-DFT) =  -4069.72324048
 Copying the excited state density for this state as the 1-particle RhoCI density.

 Excited State   2:      Singlet-A      1.7092 eV  725.41 nm  f=0.6787  <S**2>=0.000
     309 -> 315        0.13315
     310 -> 316        0.12348
     311 -> 313       -0.14796
     311 -> 314        0.47481
     312 -> 313        0.44223
     312 -> 314        0.15689

 Excited State   3:      Singlet-A      2.1780 eV  569.25 nm  f=0.0178  <S**2>=0.000
     309 -> 314        0.39067
     310 -> 313        0.51405
     311 -> 315       -0.15096
     312 -> 316       -0.20033

 Excited State   4:      Singlet-A      2.1949 eV  564.87 nm  f=0.1569  <S**2>=0.000
     309 -> 314        0.50680
     310 -> 313       -0.38481
     311 -> 315       -0.21967
     312 -> 316        0.16687

 Excited State   5:      Singlet-A      2.3817 eV  520.57 nm  f=0.0000  <S**2>=0.000
     311 -> 313        0.68059
     312 -> 313        0.18845

 The electronic state is 1-A.
 Alpha  occ. eigenvalues --  -46.87582 -46.87441 -19.26553 -19.26087 -19.19287
 Alpha  occ. eigenvalues --  -19.18790 -19.18747 -19.18599 -19.17914 -19.17878
 Alpha  occ. eigenvalues --  -14.42260 -14.42239 -14.41277 -14.41148 -14.39206
 Alpha  occ. eigenvalues --  -14.39146 -14.38369 -14.38328 -10.39178 -10.38854
 Alpha  occ. eigenvalues --  -10.35390 -10.35283 -10.34133 -10.34065 -10.32194
 Alpha  occ. eigenvalues --  -10.31524 -10.31158 -10.31055 -10.30805 -10.30739
 Alpha  occ. eigenvalues --  -10.30310 -10.30284 -10.30184 -10.30126 -10.30082
 Alpha  occ. eigenvalues --  -10.29939 -10.29735 -10.29678 -10.29395 -10.29226
 Alpha  occ. eigenvalues --  -10.29186 -10.29053 -10.28568 -10.28443 -10.28381
 Alpha  occ. eigenvalues --  -10.28206 -10.28154 -10.27923 -10.27830 -10.27787
 Alpha  occ. eigenvalues --  -10.27560 -10.27536 -10.27511 -10.27458 -10.27426
 Alpha  occ. eigenvalues --  -10.27382 -10.27339 -10.27317 -10.27284 -10.27279
 Alpha  occ. eigenvalues --  -10.27270 -10.27194 -10.27192 -10.26997 -10.26958
 Alpha  occ. eigenvalues --  -10.26934 -10.26528 -10.26448 -10.26384 -10.26363
 Alpha  occ. eigenvalues --  -10.26281 -10.26058 -10.25909 -10.25806 -10.25768
 Alpha  occ. eigenvalues --  -10.25706 -10.25557 -10.25451 -10.25433 -10.25250
 Alpha  occ. eigenvalues --  -10.24656 -10.24622 -10.24574 -10.24491 -10.24447
 Alpha  occ. eigenvalues --  -10.24365  -3.16324  -3.16190  -1.91205  -1.91073
 Alpha  occ. eigenvalues --   -1.90793  -1.90661  -1.90634  -1.90498  -1.16831
 Alpha  occ. eigenvalues --   -1.16430  -1.08507  -1.08365  -1.07161  -1.07055
 Alpha  occ. eigenvalues --   -1.06857  -1.06415  -1.04373  -1.04266  -1.03580
 Alpha  occ. eigenvalues --   -1.03446  -1.03018  -1.02824  -1.02201  -1.01893
 Alpha  occ. eigenvalues --   -0.91808  -0.91751  -0.89528  -0.89288  -0.89001
 Alpha  occ. eigenvalues --   -0.88851  -0.88253  -0.88014  -0.87580  -0.87541
 Alpha  occ. eigenvalues --   -0.87472  -0.87438  -0.87122  -0.86952  -0.84894
 Alpha  occ. eigenvalues --   -0.84765  -0.83989  -0.83701  -0.82946  -0.82804
 Alpha  occ. eigenvalues --   -0.82556  -0.82427  -0.81580  -0.81386  -0.80436
 Alpha  occ. eigenvalues --   -0.80308  -0.78610  -0.78436  -0.77368  -0.76909
 Alpha  occ. eigenvalues --   -0.76837  -0.76544  -0.75770  -0.75649  -0.74833
 Alpha  occ. eigenvalues --   -0.74630  -0.72594  -0.72460  -0.71506  -0.71390
 Alpha  occ. eigenvalues --   -0.70119  -0.69538  -0.68712  -0.68553  -0.67465
 Alpha  occ. eigenvalues --   -0.67418  -0.67060  -0.66873  -0.65155  -0.65051
 Alpha  occ. eigenvalues --   -0.64738  -0.64628  -0.64498  -0.64461  -0.64187
 Alpha  occ. eigenvalues --   -0.64005  -0.62283  -0.62133  -0.60313  -0.60164
 Alpha  occ. eigenvalues --   -0.59611  -0.59532  -0.58835  -0.58791  -0.58333
 Alpha  occ. eigenvalues --   -0.58272  -0.57490  -0.57366  -0.57198  -0.57067
 Alpha  occ. eigenvalues --   -0.56460  -0.56116  -0.55958  -0.55805  -0.55612
 Alpha  occ. eigenvalues --   -0.55348  -0.55308  -0.55114  -0.54594  -0.54401
 Alpha  occ. eigenvalues --   -0.53744  -0.53712  -0.53191  -0.53094  -0.53075
 Alpha  occ. eigenvalues --   -0.52984  -0.52902  -0.52726  -0.52665  -0.52558
 Alpha  occ. eigenvalues --   -0.52460  -0.52179  -0.51714  -0.51628  -0.51539
 Alpha  occ. eigenvalues --   -0.51424  -0.51253  -0.50982  -0.50514  -0.50366
 Alpha  occ. eigenvalues --   -0.50265  -0.49805  -0.49684  -0.49613  -0.49396
 Alpha  occ. eigenvalues --   -0.49240  -0.49049  -0.49011  -0.48931  -0.48848
 Alpha  occ. eigenvalues --   -0.48588  -0.48371  -0.48334  -0.48288  -0.48204
 Alpha  occ. eigenvalues --   -0.48157  -0.47557  -0.47423  -0.47147  -0.46979
 Alpha  occ. eigenvalues --   -0.46672  -0.46505  -0.46458  -0.46322  -0.46197
 Alpha  occ. eigenvalues --   -0.46094  -0.46032  -0.45920  -0.45788  -0.45529
 Alpha  occ. eigenvalues --   -0.45309  -0.45005  -0.44534  -0.44390  -0.44325
 Alpha  occ. eigenvalues --   -0.44141  -0.44090  -0.43978  -0.43936  -0.43825
 Alpha  occ. eigenvalues --   -0.43818  -0.43609  -0.43526  -0.43310  -0.43247
 Alpha  occ. eigenvalues --   -0.43143  -0.42927  -0.42854  -0.42725  -0.42695
 Alpha  occ. eigenvalues --   -0.42495  -0.42325  -0.42001  -0.41698  -0.41548
 Alpha  occ. eigenvalues --   -0.41473  -0.41425  -0.41244  -0.40979  -0.40865
 Alpha  occ. eigenvalues --   -0.40762  -0.40726  -0.40604  -0.40531  -0.40477
 Alpha  occ. eigenvalues --   -0.40286  -0.40059  -0.39742  -0.39222  -0.39003
 Alpha  occ. eigenvalues --   -0.38430  -0.38000  -0.37575  -0.37255  -0.37117
 Alpha  occ. eigenvalues --   -0.37061  -0.37009  -0.36877  -0.36576  -0.36115
 Alpha  occ. eigenvalues --   -0.36038  -0.34559  -0.34069  -0.34039  -0.33858
 Alpha  occ. eigenvalues --   -0.33542  -0.32969  -0.32961  -0.31280  -0.31157
 Alpha  occ. eigenvalues --   -0.30847  -0.30774  -0.29788  -0.29769  -0.29258
 Alpha  occ. eigenvalues --   -0.29134  -0.29044  -0.28985  -0.23866  -0.23826
 Alpha  occ. eigenvalues --   -0.20914  -0.20890
 Alpha virt. eigenvalues --   -0.08584  -0.08561  -0.01572  -0.01477   0.00099
 Alpha virt. eigenvalues --    0.00148   0.02320   0.02431   0.02553   0.04402
 Alpha virt. eigenvalues --    0.04790   0.05030   0.05135   0.05320   0.06332

 Mulliken charges:
               1
     1  Mg   0.840340
     2  C   -0.003051
     3  C   -0.093953
     4  C   -0.047350
     5  C   -0.057513
     6  N   -0.256618
     7  C   -0.052157
     8  C   -0.014086
     9  C   -0.086873
    10  C    0.045676
    11  C    0.104968
    12  C    0.053379
    13  C   -0.071393
    14  H    0.035328
    15  N   -0.432776
    16  C    0.167580
    17  C   -0.177972
    18  C   -0.005261
    19  C    0.148207
    20  C    0.110419
    21  C    0.010658
    22  O   -0.252037
    23  C    0.063170
    24  N   -0.340958
    25  C    0.040804
    26  C   -0.030007
    27  C   -0.022166
    28  C    0.075054
    29  C    0.077343
    30  C    0.065586
    31  C   -0.037699
    32  N   -0.312252
    33  C    0.086059
    34  C   -0.161674
    35  C    0.008036
    36  C    0.085968
    37  C    0.127622
    38  C    0.047991
    39  O   -0.187558
    40  C   -0.006213
    41  C    0.212821
    42  O   -0.255889
    43  O   -0.304996
    44  C    0.158061
    45  H   -0.018332
    46  H   -0.018967
    47  H   -0.042039
    48  H    0.000728
    49  H   -0.004271
    50  H    0.025173
    51  H    0.016214
    52  H    0.016130
    53  H    0.011616
    54  H    0.044249
    55  H    0.017615
    56  H    0.018101
    57  H    0.005952
    58  H    0.025799
    59  H    0.038017
    60  H    0.038092
    61  H    0.033371
    62  H    0.029473
    63  H    0.016517
    64  H    0.008376
    65  H    0.021612
    66  H    0.013238
    67  H    0.004582
    68  H   -0.002623
    69  H   -0.000064
    70  H    0.019149
    71  H    0.026993
    72  H    0.042547
    73  H    0.052214
    74  H    0.009549
    75  H    0.044089
    76  H    0.034581
    77  H    0.042600
    78  H    0.045941
    79  H    0.053083
    80  Mg   0.838042
    81  C   -0.017768
    82  C   -0.086675
    83  C   -0.045841
    84  C   -0.063611
    85  N   -0.254866
    86  C   -0.050432
    87  C   -0.000058
    88  C   -0.087711
    89  C    0.044874
    90  C    0.115182
    91  C    0.040859
    92  C   -0.105478
    93  H    0.040322
    94  N   -0.423374
    95  C    0.162560
    96  C   -0.175130
    97  C   -0.008832
    98  C    0.151928
    99  C    0.099803
   100  C    0.014498
   101  O   -0.254134
   102  C    0.062001
   103  N   -0.350114
   104  C    0.037421
   105  C   -0.019494
   106  C   -0.035010
   107  C    0.089173
   108  C    0.073925
   109  C    0.034706
   110  C   -0.007326
   111  N   -0.324903
   112  C    0.080456
   113  C   -0.159835
   114  C    0.002554
   115  C    0.097943
   116  C    0.131034
   117  C    0.044136
   118  O   -0.188024
   119  C   -0.001037
   120  C    0.210831
   121  O   -0.249776
   122  O   -0.305134
   123  C    0.150518
   124  H   -0.019650
   125  H   -0.016468
   126  H   -0.039838
   127  H   -0.002852
   128  H   -0.002682
   129  H    0.021561
   130  H    0.013620
   131  H    0.016205
   132  H    0.013735
   133  H    0.047880
   134  H    0.009509
   135  H    0.014764
   136  H    0.010110
   137  H    0.025270
   138  H    0.038606
   139  H    0.038737
   140  H    0.034950
   141  H    0.031741
   142  H    0.013680
   143  H    0.011977
   144  H    0.024279
   145  H    0.011409
   146  H    0.005364
   147  H    0.004835
   148  H    0.004242
   149  H    0.008577
   150  H    0.019260
   151  H    0.032906
   152  H    0.048553
   153  H    0.009222
   154  H    0.045839
   155  H    0.035102
   156  H    0.044852
   157  H    0.059597
   158  H    0.052979
 Sum of Mulliken charges =  -0.00000

 Dipole moment (field-independent basis, Debye):
    X=              0.5621    Y=             -2.2208    Z=              5.8448  Tot=              6.2777
 Quadrupole moment (field-independent basis, Debye-Ang):
   XX=           -492.4309   YY=           -473.6756   ZZ=           -528.8032
   XY=              5.6938   XZ=             18.4942   YZ=             24.3160

 Normal termination of Gaussian 16 at Wed Sep  8 19:53:02 2021.
