 Gaussian 16, Revision A.03,
 Gaussian 16:  ES64L-G16RevA.03 25-Dec-2016

 -----------------------------------
 #p cam-b3lyp/Def2SVP td=(nstates=5)
 -----------------------------------

 --------------------------------
 TDDFT excited states in gaussian
 --------------------------------
 Symbolic Z-matrix:
 Charge =  0 Multiplicity = 1

                         Standard orientation:
 ---------------------------------------------------------------------
 Center     Atomic      Atomic             Coordinates (Angstroms)
 Number     Number       Type             X           Y           Z
 ---------------------------------------------------------------------
      1         12           0        3.998472   -1.534380    0.571100
      2          6           0        4.998522    1.694735   -0.605732
      3          6           0        4.712791   -0.442212    3.723873
      4          6           0        3.557238   -4.507036    1.583646
      5          6           0        4.450627   -2.697336   -2.682936
      6          7           0        4.751757    0.402277    1.334362
      7          6           0        5.038798    1.578510    0.785495
      8          6           0        5.313522    2.698544    1.833076
      9          6           0        5.748686    1.787701    3.067173
     10          6           0        4.998940    0.517080    2.707551
     11          6           0        7.242820    1.483053    3.102594
     12          6           0        4.030070    3.533174    2.161518
     13          6           0        4.277281    4.841077    2.918902
     14          1           0        3.438957    5.992364    2.620409
     15          7           0        3.648919   -2.230907    2.386454
     16          6           0        3.995096   -1.646570    3.558630
     17          6           0        3.515038   -2.553366    4.623499
     18          6           0        3.030657   -3.802601    3.973206
     19          6           0        3.422132   -3.571040    2.606273
     20          6           0        3.500626   -2.183154    6.074873
     21          6           0        2.336053   -5.017543    4.501951
     22          8           0        2.212576   -6.085572    3.810111
     23          6           0        1.875732   -4.954447    5.900938
     24          7           0        4.211842   -3.395005   -0.350953
     25          6           0        3.899551   -4.524510    0.293777
     26          6           0        3.859886   -5.695041   -0.643358
     27          6           0        3.973230   -5.086820   -2.115422
     28          6           0        4.150255   -3.594543   -1.741201
     29          6           0        4.955341   -6.751149   -0.441795
     30          6           0        2.858190   -5.467700   -3.121421
     31          6           0        1.545956   -4.851669   -2.690553
     32          7           0        4.441048   -0.650217   -1.361108
     33          6           0        4.606689   -1.325203   -2.579152
     34          6           0        5.000692   -0.317839   -3.581174
     35          6           0        5.053350    0.878273   -2.868161
     36          6           0        4.739337    0.629234   -1.501535
     37          6           0        5.313524   -0.576812   -4.944810
     38          6           0        5.325869    2.304713   -2.937874
     39          8           0        5.549855    3.101174   -3.850548
     40          6           0        5.420261    2.870001   -1.452153
     41          6           0        4.584468    4.119218   -1.387207
     42          8           0        3.343731    4.065919   -1.510082
     43          8           0        5.342596    5.139461   -0.957222
     44          6           0        4.566584    6.403062   -0.842013
     45          1           0        5.123832   -0.290326    4.723832
     46          1           0        3.305137   -5.531036    1.867029
     47          1           0        4.526506   -2.972265   -3.736554
     48          1           0        6.123101    3.379182    1.568998
     49          1           0        5.386485    2.186115    4.014695
     50          1           0        7.742823    1.835751    2.200639
     51          1           0        7.316910    0.398112    3.179444
     52          1           0        7.697558    1.879518    4.010783
     53          1           0        3.434191    2.999723    2.902072
     54          1           0        3.464027    3.743846    1.253477
     55          1           0        5.331078    5.120373    2.898558
     56          1           0        4.062524    4.670652    3.973906
     57          1           0        4.069508   -1.273212    6.261752
     58          1           0        4.048732   -2.960303    6.607159
     59          1           0        2.487212   -2.111663    6.470112
     60          1           0        2.729825   -4.769812    6.552847
     61          1           0        1.323691   -5.876856    6.077749
     62          1           0        1.211492   -4.097390    6.015774
     63          1           0        2.919567   -6.237197   -0.552297
     64          1           0        4.894955   -5.389223   -2.613066
     65          1           0        4.568496   -7.754900   -0.264202
     66          1           0        5.590145   -6.425324    0.381705
     67          1           0        5.676225   -6.823081   -1.255779
     68          1           0        2.715358   -6.547637   -3.138183
     69          1           0        3.069915   -5.145299   -4.140970
     70          1           0        1.170046   -5.566309   -1.959244
     71          1           0        0.867379   -4.769043   -3.540209
     72          1           0        1.701674   -3.905707   -2.171519
     73          1           0        4.825501    0.207060   -5.523902
     74          1           0        4.970753   -1.565593   -5.248821
     75          1           0        6.400492   -0.500859   -4.920566
     76          1           0        6.473566    3.071704   -1.259838
     77          1           0        5.080217    7.151351   -1.445735
     78          1           0        4.455417    6.602337    0.223977
     79          1           0        3.579565    6.406575   -1.305824
     80         12           0       -4.762340    0.214868   -0.546609
     81          6           0       -2.165463    2.691678   -0.520857
     82          6           0       -6.076403    1.779847    2.184447
     83          6           0       -6.801104   -2.200260   -0.267188
     84          6           0       -2.663524   -1.764886   -2.501421
     85          7           0       -4.114331    1.996990    0.591965
     86          6           0       -3.146873    2.893629    0.471856
     87          6           0       -3.281212    4.115645    1.419583
     88          6           0       -4.177629    3.434466    2.564704
     89          6           0       -4.863688    2.355899    1.728831
     90          6           0       -3.356153    2.750965    3.645139
     91          6           0       -4.029661    5.317349    0.742994
     92          6           0       -3.925699    6.645618    1.495757
     93          1           0       -3.849499    7.880844    0.720593
     94          7           0       -6.482985    0.093696    0.434863
     95          6           0       -6.860782    0.820163    1.507616
     96          6           0       -8.203233    0.338009    1.867480
     97          6           0       -8.519127   -0.844970    1.021620
     98          6           0       -7.243741   -1.046782    0.363779
     99          6           0       -9.077883    1.036924    2.867451
    100          6           0       -9.759542   -1.667352    0.844852
    101          8           0       -9.738807   -2.794777    0.235485
    102          6           0      -10.980378   -1.158736    1.487011
    103          7           0       -4.660058   -1.787488   -1.096570
    104          6           0       -5.706635   -2.610422   -0.908448
    105          6           0       -5.504632   -3.922934   -1.627396
    106          6           0       -4.207512   -3.717688   -2.540047
    107          6           0       -3.814959   -2.288924   -2.104238
    108          6           0       -5.309332   -5.147657   -0.733917
    109          6           0       -4.360980   -4.011678   -4.057506
    110          6           0       -5.279402   -2.991338   -4.690583
    111          7           0       -2.854776    0.468955   -1.528794
    112          6           0       -2.143742   -0.496999   -2.274082
    113          6           0       -0.847495    0.106854   -2.644954
    114          6           0       -0.885173    1.384100   -2.065544
    115          6           0       -2.109436    1.556170   -1.364796
    116          6           0        0.189855   -0.535202   -3.378296
    117          6           0       -0.163177    2.622007   -1.878434
    118          8           0        0.889428    3.087909   -2.312808
    119          6           0       -0.906579    3.477065   -0.763705
    120          6           0       -1.046620    4.884842   -1.274663
    121          8           0       -1.761384    5.130609   -2.262242
    122          8           0       -0.492500    5.732354   -0.388634
    123          6           0       -0.616242    7.142122   -0.845870
    124          1           0       -6.442825    2.056526    3.173419
    125          1           0       -7.515111   -3.026668   -0.293978
    126          1           0       -1.994601   -2.281680   -3.192887
    127          1           0       -2.347372    4.469532    1.839679
    128          1           0       -4.909915    4.133112    2.960959
    129          1           0       -2.304249    2.734314    3.401501
    130          1           0       -3.744035    1.743229    3.716292
    131          1           0       -3.547917    3.216952    4.615931
    132          1           0       -5.112094    5.148036    0.809295
    133          1           0       -3.701279    5.449219   -0.269625
    134          1           0       -3.142158    6.624395    2.262934
    135          1           0       -4.849051    6.797971    2.059867
    136          1           0       -8.514013    1.779317    3.445622
    137          1           0       -9.378995    0.287764    3.607699
    138          1           0       -9.974083    1.467051    2.415248
    139          1           0      -10.811717   -1.060652    2.556771
    140          1           0      -11.778633   -1.834334    1.173585
    141          1           0      -11.182061   -0.151178    1.106517
    142          1           0       -6.350631   -4.148917   -2.264817
    143          1           0       -3.383607   -4.377852   -2.231506
    144          1           0       -6.045964   -5.950373   -0.926517
    145          1           0       -5.356564   -4.827941    0.298602
    146          1           0       -4.323758   -5.606841   -0.788720
    147          1           0       -4.829615   -4.987200   -4.208765
    148          1           0       -3.417629   -4.021050   -4.593220
    149          1           0       -6.275719   -3.388965   -4.475347
    150          1           0       -5.102252   -2.929336   -5.762417
    151          1           0       -5.195991   -2.020987   -4.187474
    152          1           0        0.554378    0.185615   -4.098045
    153          1           0       -0.168999   -1.438950   -3.866368
    154          1           0        0.892002   -0.756355   -2.570002
    155          1           0       -0.302555    3.428891    0.143165
    156          1           0        0.394108    7.562358   -0.862815
    157          1           0       -1.346946    7.614670   -0.162843
    158          1           0       -0.932891    7.311428   -1.868374
 ---------------------------------------------------------------------

 SCF Done:  E(RCAM-B3LYP) =  -4069.80575447     A.U. after   19 cycles

 Excitation energies and oscillator strengths:

 Excited State   1:      Singlet-A      1.6435 eV  754.40 nm  f=0.1768  <S**2>=0.000
     309 -> 315       -0.11475
     310 -> 316        0.11948
     311 -> 313       -0.47523
     312 -> 314        0.49399
 This state for optimization and/or second-order correction.
 Total Energy, E(TD-HF/TD-DFT) =  -4069.74535792
 Copying the excited state density for this state as the 1-particle RhoCI density.

 Excited State   2:      Singlet-A      1.7082 eV  725.83 nm  f=0.5690  <S**2>=0.000
     309 -> 315        0.13132
     310 -> 316        0.12530
     311 -> 313        0.49243
     312 -> 314        0.47435

 Excited State   3:      Singlet-A      2.1807 eV  568.55 nm  f=0.0005  <S**2>=0.000
     309 -> 313        0.45903
     310 -> 314       -0.45276
     311 -> 315       -0.19103
     312 -> 316        0.18938

 Excited State   4:      Singlet-A      2.1992 eV  563.77 nm  f=0.1664  <S**2>=0.000
     309 -> 313        0.44680
     310 -> 314        0.45307
     311 -> 315       -0.20098
     312 -> 316       -0.20166

 Excited State   5:      Singlet-A      2.3549 eV  526.49 nm  f=0.0000  <S**2>=0.000
     312 -> 313        0.70498

 The electronic state is 1-A.
 Alpha  occ. eigenvalues --  -46.87604 -46.87306 -19.25909 -19.25526 -19.18655
 Alpha  occ. eigenvalues --  -19.18652 -19.18387 -19.17905 -19.17711 -19.17047
 Alpha  occ. eigenvalues --  -14.42256 -14.42177 -14.41272 -14.41001 -14.39204
 Alpha  occ. eigenvalues --  -14.38987 -14.38387 -14.38205 -10.38595 -10.38049
 Alpha  occ. eigenvalues --  -10.35292 -10.35072 -10.33923 -10.33221 -10.31520
 Alpha  occ. eigenvalues --  -10.31189 -10.31163 -10.30929 -10.30705 -10.30677
 Alpha  occ. eigenvalues --  -10.30325 -10.30288 -10.30089 -10.29994 -10.29936
 Alpha  occ. eigenvalues --  -10.29856 -10.29729 -10.29507 -10.29403 -10.29121
 Alpha  occ. eigenvalues --  -10.29098 -10.28990 -10.28523 -10.28499 -10.28472
 Alpha  occ. eigenvalues --  -10.28381 -10.28106 -10.28001 -10.27914 -10.27900
 Alpha  occ. eigenvalues --  -10.27547 -10.27541 -10.27536 -10.27465 -10.27376
 Alpha  occ. eigenvalues --  -10.27368 -10.27343 -10.27340 -10.27248 -10.27176
 Alpha  occ. eigenvalues --  -10.27135 -10.27112 -10.27078 -10.27071 -10.26639
 Alpha  occ. eigenvalues --  -10.26482 -10.26466 -10.26430 -10.26297 -10.26271
 Alpha  occ. eigenvalues --  -10.26157 -10.26051 -10.25929 -10.25873 -10.25870
 Alpha  occ. eigenvalues --  -10.25604 -10.25601 -10.25396 -10.25358 -10.25106
 Alpha  occ. eigenvalues --  -10.24917 -10.24588 -10.24546 -10.24519 -10.24418
 Alpha  occ. eigenvalues --  -10.24312  -3.16352  -3.16057  -1.91234  -1.90939
 Alpha  occ. eigenvalues --   -1.90819  -1.90661  -1.90528  -1.90363  -1.16179
 Alpha  occ. eigenvalues --   -1.15836  -1.08123  -1.07664  -1.07059  -1.06646
 Alpha  occ. eigenvalues --   -1.06411  -1.05614  -1.04364  -1.04151  -1.03575
 Alpha  occ. eigenvalues --   -1.03303  -1.03026  -1.02669  -1.02205  -1.01733
 Alpha  occ. eigenvalues --   -0.91649  -0.91534  -0.89410  -0.89158  -0.88975
 Alpha  occ. eigenvalues --   -0.88896  -0.88171  -0.87904  -0.87629  -0.87479
 Alpha  occ. eigenvalues --   -0.87380  -0.87337  -0.87092  -0.86777  -0.84775
 Alpha  occ. eigenvalues --   -0.84712  -0.83851  -0.83568  -0.82829  -0.82626
 Alpha  occ. eigenvalues --   -0.82420  -0.82350  -0.81217  -0.81215  -0.80311
 Alpha  occ. eigenvalues --   -0.80086  -0.78595  -0.78263  -0.77066  -0.76848
 Alpha  occ. eigenvalues --   -0.76713  -0.76594  -0.75640  -0.75506  -0.74737
 Alpha  occ. eigenvalues --   -0.74476  -0.72572  -0.72326  -0.71456  -0.71240
 Alpha  occ. eigenvalues --   -0.69891  -0.69487  -0.68663  -0.68521  -0.67404
 Alpha  occ. eigenvalues --   -0.67202  -0.67020  -0.66911  -0.65059  -0.64952
 Alpha  occ. eigenvalues --   -0.64630  -0.64424  -0.64359  -0.64315  -0.64121
 Alpha  occ. eigenvalues --   -0.63868  -0.61885  -0.61846  -0.60273  -0.59988
 Alpha  occ. eigenvalues --   -0.59586  -0.59491  -0.58759  -0.58616  -0.58241
 Alpha  occ. eigenvalues --   -0.58020  -0.57241  -0.57031  -0.56905  -0.56833
 Alpha  occ. eigenvalues --   -0.56083  -0.55833  -0.55534  -0.55521  -0.55314
 Alpha  occ. eigenvalues --   -0.55121  -0.55107  -0.54896  -0.54181  -0.54098
 Alpha  occ. eigenvalues --   -0.53665  -0.53637  -0.53109  -0.52996  -0.52886
 Alpha  occ. eigenvalues --   -0.52820  -0.52639  -0.52597  -0.52543  -0.52381
 Alpha  occ. eigenvalues --   -0.52274  -0.52055  -0.51646  -0.51439  -0.51390
 Alpha  occ. eigenvalues --   -0.51360  -0.50933  -0.50727  -0.50444  -0.50185
 Alpha  occ. eigenvalues --   -0.49966  -0.49741  -0.49695  -0.49555  -0.49302
 Alpha  occ. eigenvalues --   -0.49177  -0.48979  -0.48872  -0.48858  -0.48645
 Alpha  occ. eigenvalues --   -0.48376  -0.48273  -0.48180  -0.48157  -0.48037
 Alpha  occ. eigenvalues --   -0.47602  -0.47473  -0.47155  -0.47072  -0.46792
 Alpha  occ. eigenvalues --   -0.46619  -0.46386  -0.46324  -0.46273  -0.46164
 Alpha  occ. eigenvalues --   -0.45924  -0.45837  -0.45696  -0.45487  -0.45354
 Alpha  occ. eigenvalues --   -0.45060  -0.44874  -0.44382  -0.44248  -0.44226
 Alpha  occ. eigenvalues --   -0.44038  -0.43999  -0.43894  -0.43768  -0.43738
 Alpha  occ. eigenvalues --   -0.43672  -0.43438  -0.43224  -0.43200  -0.43134
 Alpha  occ. eigenvalues --   -0.43013  -0.42795  -0.42632  -0.42555  -0.42436
 Alpha  occ. eigenvalues --   -0.42247  -0.41959  -0.41829  -0.41662  -0.41415
 Alpha  occ. eigenvalues --   -0.41325  -0.41175  -0.41048  -0.40912  -0.40725
 Alpha  occ. eigenvalues --   -0.40665  -0.40610  -0.40435  -0.40425  -0.40405
 Alpha  occ. eigenvalues --   -0.40156  -0.40048  -0.39987  -0.39463  -0.39160
 Alpha  occ. eigenvalues --   -0.38368  -0.38063  -0.37548  -0.37400  -0.37181
 Alpha  occ. eigenvalues --   -0.37039  -0.36951  -0.36869  -0.36353  -0.36313
 Alpha  occ. eigenvalues --   -0.35857  -0.35512  -0.34072  -0.33878  -0.33382
 Alpha  occ. eigenvalues --   -0.33107  -0.32813  -0.32562  -0.31180  -0.30951
 Alpha  occ. eigenvalues --   -0.30770  -0.30613  -0.29565  -0.29238  -0.29058
 Alpha  occ. eigenvalues --   -0.28970  -0.28891  -0.28690  -0.23852  -0.23672
 Alpha  occ. eigenvalues --   -0.20925  -0.20750
 Alpha virt. eigenvalues --   -0.08546  -0.08386  -0.01566  -0.01351   0.00162
 Alpha virt. eigenvalues --    0.00351   0.02511   0.02560   0.03186   0.03607
 Alpha virt. eigenvalues --    0.04887   0.05017   0.05670   0.05890   0.06286

 Mulliken charges:
               1
     1  Mg   0.835108
     2  C    0.002002
     3  C   -0.094390
     4  C   -0.046527
     5  C   -0.066851
     6  N   -0.255914
     7  C   -0.054061
     8  C   -0.013182
     9  C   -0.086706
    10  C    0.045462
    11  C    0.104996
    12  C    0.051714
    13  C   -0.070471
    14  H    0.034889
    15  N   -0.433139
    16  C    0.167415
    17  C   -0.177864
    18  C   -0.004728
    19  C    0.148715
    20  C    0.110402
    21  C    0.011851
    22  O   -0.250627
    23  C    0.062730
    24  N   -0.341010
    25  C    0.040657
    26  C   -0.028027
    27  C   -0.023666
    28  C    0.074978
    29  C    0.076332
    30  C    0.035589
    31  C   -0.005502
    32  N   -0.313891
    33  C    0.080142
    34  C   -0.169789
    35  C    0.010592
    36  C    0.088082
    37  C    0.126375
    38  C    0.057289
    39  O   -0.186211
    40  C   -0.008064
    41  C    0.204167
    42  O   -0.228088
    43  O   -0.308313
    44  C    0.158565
    45  H   -0.018394
    46  H   -0.017840
    47  H   -0.042791
    48  H    0.001339
    49  H   -0.005217
    50  H    0.025626
    51  H    0.016138
    52  H    0.015794
    53  H    0.008338
    54  H    0.049842
    55  H    0.017842
    56  H    0.015961
    57  H    0.005176
    58  H    0.026220
    59  H    0.038145
    60  H    0.037075
    61  H    0.035021
    62  H    0.030882
    63  H    0.015368
    64  H    0.009654
    65  H    0.022652
    66  H    0.012953
    67  H    0.004434
    68  H    0.006329
    69  H    0.004705
    70  H    0.009196
    71  H    0.014348
    72  H    0.027922
    73  H    0.049861
    74  H    0.007411
    75  H    0.045656
    76  H    0.032797
    77  H    0.040013
    78  H    0.042691
    79  H    0.054384
    80  Mg   0.835859
    81  C   -0.017112
    82  C   -0.088066
    83  C   -0.046022
    84  C   -0.066684
    85  N   -0.253776
    86  C   -0.050707
    87  C   -0.014184
    88  C   -0.090260
    89  C    0.044503
    90  C    0.114792
    91  C    0.062813
    92  C   -0.076989
    93  H    0.034071
    94  N   -0.423168
    95  C    0.161670
    96  C   -0.175697
    97  C   -0.008736
    98  C    0.151412
    99  C    0.099822
   100  C    0.014849
   101  O   -0.254301
   102  C    0.061500
   103  N   -0.350214
   104  C    0.037047
   105  C   -0.019558
   106  C   -0.034850
   107  C    0.089875
   108  C    0.073734
   109  C    0.034955
   110  C   -0.007469
   111  N   -0.324437
   112  C    0.078979
   113  C   -0.171124
   114  C    0.005727
   115  C    0.095295
   116  C    0.132940
   117  C    0.035496
   118  O   -0.152571
   119  C    0.000996
   120  C    0.216707
   121  O   -0.252587
   122  O   -0.305450
   123  C    0.154183
   124  H   -0.021328
   125  H   -0.016542
   126  H   -0.041216
   127  H   -0.001896
   128  H   -0.005298
   129  H    0.020970
   130  H    0.014107
   131  H    0.014300
   132  H    0.013825
   133  H    0.038306
   134  H    0.019287
   135  H    0.018985
   136  H    0.007579
   137  H    0.024793
   138  H    0.038665
   139  H    0.037647
   140  H    0.035404
   141  H    0.033449
   142  H    0.013608
   143  H    0.012692
   144  H    0.024204
   145  H    0.011796
   146  H    0.005838
   147  H    0.005512
   148  H    0.002200
   149  H    0.010811
   150  H    0.017117
   151  H    0.030807
   152  H    0.047555
   153  H    0.004953
   154  H    0.053248
   155  H    0.035432
   156  H    0.037876
   157  H    0.047464
   158  H    0.054022
 Sum of Mulliken charges =  -0.00000

 Dipole moment (field-independent basis, Debye):
    X=              0.3668    Y=              0.8425    Z=              7.3158  Tot=              7.3733
 Quadrupole moment (field-independent basis, Debye-Ang):
   XX=           -506.9725   YY=           -501.0661   ZZ=           -487.7178
   XY=            -26.9606   XZ=              4.2429   YZ=             55.6263

 Normal termination of Gaussian 16 at Fri Sep 10 01:36:42 2021.
