 Gaussian 16, Revision A.03,
 Gaussian 16:  ES64L-G16RevA.03 25-Dec-2016

 -----------------------------------
 #p cam-b3lyp/Def2SVP td=(nstates=5)
 -----------------------------------

 --------------------------------
 TDDFT excited states in gaussian
 --------------------------------
 Symbolic Z-matrix:
 Charge =  0 Multiplicity = 1

                         Standard orientation:
 ---------------------------------------------------------------------
 Center     Atomic      Atomic             Coordinates (Angstroms)
 Number     Number       Type             X           Y           Z
 ---------------------------------------------------------------------
      1         12           0       -3.848094   -0.907331   -0.020347
      2          6           0       -4.261076    1.762180    2.328135
      3          6           0       -4.843052    1.273750   -2.448517
      4          6           0       -3.929218   -3.355708   -2.034171
      5          6           0       -3.994281   -3.107234    2.678674
      6          7           0       -4.447580    1.222376    0.054562
      7          6           0       -4.505685    2.146916    1.007988
      8          6           0       -4.777210    3.580794    0.462420
      9          6           0       -5.488829    3.196740   -0.911661
     10          6           0       -4.863775    1.831042   -1.135495
     11          6           0       -7.000183    3.031163   -0.789611
     12          6           0       -3.455575    4.384131    0.218165
     13          6           0       -3.636597    5.889082   -0.000258
     14          1           0       -2.626459    6.798587    0.519134
     15          7           0       -3.841148   -0.942325   -1.995588
     16          6           0       -4.267697    0.040670   -2.824481
     17          6           0       -4.056461   -0.464311   -4.198182
     18          6           0       -3.649651   -1.893633   -4.100010
     19          6           0       -3.817961   -2.131492   -2.689169
     20          6           0       -4.194025    0.391644   -5.419725
     21          6           0       -3.193266   -2.890359   -5.118039
     22          8           0       -3.112429   -4.139579   -4.858254
     23          6           0       -2.924421   -2.371144   -6.471250
     24          7           0       -4.166988   -2.953338    0.243845
     25          6           0       -4.091279   -3.802283   -0.786953
     26          6           0       -4.072195   -5.227646   -0.320138
     27          6           0       -3.905207   -5.170855    1.266885
     28          6           0       -3.941525   -3.633891    1.453147
     29          6           0       -5.309657   -6.064219   -0.673470
     30          6           0       -2.720256   -5.960086    1.877968
     31          6           0       -1.412014   -5.326677    1.460363
     32          7           0       -3.906708   -0.731820    2.142245
     33          6           0       -3.988205   -1.779184    3.071256
     34          6           0       -4.110768   -1.164327    4.405796
     35          6           0       -4.108719    0.206840    4.157316
     36          6           0       -4.018683    0.433787    2.754219
     37          6           0       -4.264327   -1.864345    5.634954
     38          6           0       -4.186453    1.532697    4.748855
     39          8           0       -4.180884    1.970158    5.900415
     40          6           0       -4.410933    2.590524    3.579908
     41          6           0       -3.440613    3.719681    3.796227
     42          8           0       -2.211542    3.538439    3.678325
     43          8           0       -4.115206    4.877138    3.872101
     44          6           0       -3.208678    6.041682    4.057029
     45          1           0       -5.364481    1.797126   -3.252340
     46          1           0       -3.849859   -4.229279   -2.684566
     47          1           0       -3.959469   -3.729722    3.574637
     48          1           0       -5.450365    4.180397    1.075414
     49          1           0       -5.212196    3.876710   -1.717165
     50          1           0       -7.323408    3.077934    0.250225
     51          1           0       -7.220756    2.051123   -1.213123
     52          1           0       -7.521044    3.753525   -1.418637
     53          1           0       -3.038941    4.104994   -0.749595
     54          1           0       -2.748563    4.220446    1.032209
     55          1           0       -4.633816    6.217443    0.294091
     56          1           0       -3.591500    6.086614   -1.071308
     57          1           0       -4.663383    1.347042   -5.188508
     58          1           0       -4.903678   -0.106974   -6.079635
     59          1           0       -3.243389    0.525612   -5.936132
     60          1           0       -3.829382   -1.908381   -6.865516
     61          1           0       -2.522943   -3.208800   -7.040458
     62          1           0       -2.179091   -1.578145   -6.403543
     63          1           0       -3.229397   -5.768299   -0.748871
     64          1           0       -4.780965   -5.562903    1.784592
     65          1           0       -5.080880   -6.965758   -1.242323
     66          1           0       -6.004781   -5.424820   -1.216850
     67          1           0       -5.915654   -6.366976    0.180065
     68          1           0       -2.714267   -6.983869    1.505438
     69          1           0       -2.747997   -6.003524    2.966818
     70          1           0       -1.233154   -5.762508    0.478074
     71          1           0       -0.618626   -5.597269    2.157878
     72          1           0       -1.516329   -4.249974    1.325031
     73          1           0       -3.606450   -1.371679    6.350808
     74          1           0       -4.011069   -2.918519    5.524591
     75          1           0       -5.325963   -1.707656    5.825304
     76          1           0       -5.446580    2.921396    3.651182
     77          1           0       -3.536044    6.563669    4.956248
     78          1           0       -3.220084    6.595427    3.118071
     79          1           0       -2.175049    5.811329    4.317580
     80         12           0        4.064328   -0.364120    0.082960
     81          6           0        3.429818    2.075995   -2.470919
     82          6           0        5.366626    2.164251    1.966034
     83          6           0        5.044243   -2.551089    2.162469
     84          6           0        3.784849   -2.812518   -2.381369
     85          7           0        4.310196    1.798505   -0.310602
     86          6           0        3.975876    2.623573   -1.291335
     87          6           0        4.167359    4.127869   -0.959719
     88          6           0        5.285863    3.981668    0.183281
     89          6           0        4.951375    2.574542    0.674009
     90          6           0        6.704762    3.973066   -0.360775
     91          6           0        2.858156    4.788167   -0.401135
     92          6           0        2.881572    6.317322   -0.347399
     93          1           0        1.642363    7.042228   -0.614525
     94          7           0        4.603832   -0.178242    1.983737
     95          6           0        5.090131    0.926539    2.587283
     96          6           0        5.351843    0.540574    3.982525
     97          6           0        5.135467   -0.926101    4.111969
     98          6           0        4.935285   -1.286651    2.722714
     99          6           0        5.686901    1.537697    5.053453
    100          6           0        5.124832   -1.853017    5.289637
    101          8           0        5.152636   -3.126229    5.144698
    102          6           0        5.175236   -1.225561    6.618262
    103          7           0        4.580694   -2.368091   -0.116557
    104          6           0        4.921146   -3.104347    0.955793
    105          6           0        4.982083   -4.573462    0.611740
    106          6           0        4.373372   -4.695158   -0.862113
    107          6           0        4.137919   -3.198687   -1.163021
    108          6           0        6.373031   -5.206518    0.641471
    109          6           0        3.190451   -5.683052   -1.055640
    110          6           0        1.970540   -5.178037   -0.319321
    111          7           0        3.498794   -0.415319   -2.001644
    112          6           0        3.475489   -1.542681   -2.851697
    113          6           0        3.136288   -1.059827   -4.206026
    114          6           0        3.007356    0.328906   -4.053370
    115          6           0        3.268958    0.688665   -2.703691
    116          6           0        3.034566   -1.865366   -5.375162
    117          6           0        2.719862    1.573534   -4.729347
    118          8           0        2.342694    1.881443   -5.859252
    119          6           0        3.104598    2.774590   -3.761967
    120          6           0        1.962816    3.753804   -3.760438
    121          8           0        0.855734    3.433066   -3.293431
    122          8           0        2.424027    4.968978   -4.108309
    123          6           0        1.330414    5.976859   -4.110412
    124          1           0        6.000391    2.836461    2.545132
    125          1           0        5.271908   -3.358730    2.862013
    126          1           0        3.582506   -3.525039   -3.183890
    127          1           0        4.547561    4.728465   -1.777341
    128          1           0        5.136113    4.708186    0.977704
    129          1           0        6.722205    3.947838   -1.440216
    130          1           0        7.170404    3.084945    0.046006
    131          1           0        7.267948    4.819921    0.041717
    132          1           0        2.772836    4.563810    0.669899
    133          1           0        1.999749    4.459114   -0.953846
    134          1           0        3.706995    6.737817   -0.934603
    135          1           0        3.098327    6.625229    0.678380
    136          1           0        5.938457    2.516651    4.627115
    137          1           0        6.616010    1.200091    5.525318
    138          1           0        4.909753    1.612849    5.817044
    139          1           0        6.074170   -0.618815    6.697224
    140          1           0        5.068738   -2.044425    7.332393
    141          1           0        4.324522   -0.541743    6.714729
    142          1           0        4.373298   -5.155667    1.292554
    143          1           0        5.123938   -5.046782   -1.585192
    144          1           0        6.443362   -6.073767    1.324858
    145          1           0        7.089028   -4.444458    0.919249
    146          1           0        6.750678   -5.537186   -0.324573
    147          1           0        3.434463   -6.655731   -0.621477
    148          1           0        2.933184   -5.850266   -2.096234
    149          1           0        2.139767   -5.523797    0.704842
    150          1           0        1.064129   -5.611198   -0.737448
    151          1           0        1.949311   -4.082249   -0.298027
    152          1           0        2.149646   -1.536655   -5.903715
    153          1           0        2.979728   -2.922986   -5.125738
    154          1           0        3.974468   -1.608791   -5.871170
    155          1           0        4.024976    3.219505   -4.142142
    156          1           0        1.322133    6.437248   -5.103217
    157          1           0        1.534114    6.640509   -3.249114
    158          1           0        0.312505    5.612080   -4.037948
 ---------------------------------------------------------------------

 SCF Done:  E(RCAM-B3LYP) =  -4069.81287240     A.U. after   18 cycles

 Excitation energies and oscillator strengths:

 Excited State   1:      Singlet-A      1.6393 eV  756.34 nm  f=0.0233  <S**2>=0.000
     309 -> 315        0.12140
     310 -> 316        0.11054
     311 -> 313        0.50809
     312 -> 314        0.46429
 This state for optimization and/or second-order correction.
 Total Energy, E(TD-HF/TD-DFT) =  -4069.75263086
 Copying the excited state density for this state as the 1-particle RhoCI density.

 Excited State   2:      Singlet-A      1.7103 eV  724.92 nm  f=0.6649  <S**2>=0.000
     309 -> 315       -0.12318
     310 -> 316        0.13486
     311 -> 313       -0.46125
     312 -> 314        0.50483

 Excited State   3:      Singlet-A      2.1805 eV  568.60 nm  f=0.0117  <S**2>=0.000
     309 -> 313        0.54904
     310 -> 314       -0.34000
     311 -> 315       -0.22726
     312 -> 316        0.13922

 Excited State   4:      Singlet-A      2.1981 eV  564.05 nm  f=0.1579  <S**2>=0.000
     309 -> 313        0.33505
     310 -> 314        0.54338
     311 -> 315       -0.14886
     312 -> 316       -0.23973

 Excited State   5:      Singlet-A      2.3204 eV  534.33 nm  f=0.0000  <S**2>=0.000
     312 -> 313        0.70699

 The electronic state is 1-A.
 Alpha  occ. eigenvalues --  -46.87508 -46.87394 -19.26480 -19.26124 -19.19278
 Alpha  occ. eigenvalues --  -19.18833 -19.18539 -19.18429 -19.18048 -19.17863
 Alpha  occ. eigenvalues --  -14.42341 -14.42045 -14.41217 -14.41070 -14.39190
 Alpha  occ. eigenvalues --  -14.38983 -14.38471 -14.38208 -10.39188 -10.38882
 Alpha  occ. eigenvalues --  -10.35211 -10.35055 -10.34227 -10.34089 -10.31961
 Alpha  occ. eigenvalues --  -10.31594 -10.31186 -10.31023 -10.30870 -10.30491
 Alpha  occ. eigenvalues --  -10.30266 -10.30234 -10.30178 -10.30143 -10.29966
 Alpha  occ. eigenvalues --  -10.29810 -10.29778 -10.29596 -10.29268 -10.29265
 Alpha  occ. eigenvalues --  -10.29250 -10.28831 -10.28590 -10.28575 -10.28364
 Alpha  occ. eigenvalues --  -10.28274 -10.28261 -10.28010 -10.27964 -10.27875
 Alpha  occ. eigenvalues --  -10.27733 -10.27512 -10.27396 -10.27365 -10.27358
 Alpha  occ. eigenvalues --  -10.27315 -10.27311 -10.27252 -10.27228 -10.27206
 Alpha  occ. eigenvalues --  -10.27188 -10.27170 -10.27041 -10.27030 -10.26879
 Alpha  occ. eigenvalues --  -10.26872 -10.26522 -10.26253 -10.26171 -10.25953
 Alpha  occ. eigenvalues --  -10.25927 -10.25925 -10.25919 -10.25910 -10.25794
 Alpha  occ. eigenvalues --  -10.25775 -10.25638 -10.25544 -10.25294 -10.25203
 Alpha  occ. eigenvalues --  -10.24764 -10.24559 -10.24531 -10.24457 -10.24430
 Alpha  occ. eigenvalues --  -10.24426  -3.16256  -3.16135  -1.91138  -1.91017
 Alpha  occ. eigenvalues --   -1.90727  -1.90604  -1.90564  -1.90446  -1.16768
 Alpha  occ. eigenvalues --   -1.16465  -1.08677  -1.08339  -1.07058  -1.06836
 Alpha  occ. eigenvalues --   -1.06789  -1.06455  -1.04348  -1.04180  -1.03516
 Alpha  occ. eigenvalues --   -1.03379  -1.02897  -1.02842  -1.02027  -1.01975
 Alpha  occ. eigenvalues --   -0.91893  -0.91618  -0.89354  -0.89190  -0.89018
 Alpha  occ. eigenvalues --   -0.88806  -0.88081  -0.87970  -0.87691  -0.87538
 Alpha  occ. eigenvalues --   -0.87512  -0.87275  -0.86935  -0.86815  -0.84870
 Alpha  occ. eigenvalues --   -0.84610  -0.83755  -0.83646  -0.82757  -0.82563
 Alpha  occ. eigenvalues --   -0.82521  -0.82281  -0.81579  -0.81310  -0.80356
 Alpha  occ. eigenvalues --   -0.80251  -0.78480  -0.78370  -0.77012  -0.76869
 Alpha  occ. eigenvalues --   -0.76818  -0.76622  -0.75761  -0.75598  -0.74698
 Alpha  occ. eigenvalues --   -0.74590  -0.72571  -0.72405  -0.71470  -0.71329
 Alpha  occ. eigenvalues --   -0.69699  -0.69520  -0.68704  -0.68507  -0.67487
 Alpha  occ. eigenvalues --   -0.67279  -0.67050  -0.66828  -0.65165  -0.64923
 Alpha  occ. eigenvalues --   -0.64681  -0.64557  -0.64520  -0.64294  -0.64075
 Alpha  occ. eigenvalues --   -0.63930  -0.62275  -0.62043  -0.60177  -0.60035
 Alpha  occ. eigenvalues --   -0.59665  -0.59421  -0.58880  -0.58637  -0.58332
 Alpha  occ. eigenvalues --   -0.58157  -0.57551  -0.57302  -0.57115  -0.56973
 Alpha  occ. eigenvalues --   -0.56110  -0.55953  -0.55870  -0.55719  -0.55358
 Alpha  occ. eigenvalues --   -0.55173  -0.55139  -0.55061  -0.54441  -0.54261
 Alpha  occ. eigenvalues --   -0.53784  -0.53519  -0.53109  -0.53050  -0.52945
 Alpha  occ. eigenvalues --   -0.52842  -0.52813  -0.52598  -0.52483  -0.52319
 Alpha  occ. eigenvalues --   -0.52256  -0.52141  -0.51821  -0.51594  -0.51522
 Alpha  occ. eigenvalues --   -0.51223  -0.51123  -0.50873  -0.50267  -0.50087
 Alpha  occ. eigenvalues --   -0.49832  -0.49731  -0.49677  -0.49514  -0.49356
 Alpha  occ. eigenvalues --   -0.49148  -0.49101  -0.49024  -0.48856  -0.48758
 Alpha  occ. eigenvalues --   -0.48500  -0.48301  -0.48290  -0.48182  -0.48171
 Alpha  occ. eigenvalues --   -0.48056  -0.47477  -0.47335  -0.46984  -0.46918
 Alpha  occ. eigenvalues --   -0.46595  -0.46463  -0.46417  -0.46207  -0.46156
 Alpha  occ. eigenvalues --   -0.46004  -0.45983  -0.45848  -0.45784  -0.45540
 Alpha  occ. eigenvalues --   -0.45102  -0.44880  -0.44455  -0.44347  -0.44277
 Alpha  occ. eigenvalues --   -0.44129  -0.44059  -0.43960  -0.43806  -0.43796
 Alpha  occ. eigenvalues --   -0.43763  -0.43643  -0.43556  -0.43278  -0.43218
 Alpha  occ. eigenvalues --   -0.43029  -0.42958  -0.42813  -0.42691  -0.42485
 Alpha  occ. eigenvalues --   -0.42439  -0.42318  -0.41838  -0.41687  -0.41583
 Alpha  occ. eigenvalues --   -0.41368  -0.41329  -0.41185  -0.40876  -0.40797
 Alpha  occ. eigenvalues --   -0.40587  -0.40531  -0.40522  -0.40421  -0.40359
 Alpha  occ. eigenvalues --   -0.40259  -0.40066  -0.39823  -0.39471  -0.38917
 Alpha  occ. eigenvalues --   -0.38218  -0.38146  -0.37540  -0.37396  -0.37138
 Alpha  occ. eigenvalues --   -0.37072  -0.36971  -0.36886  -0.36824  -0.36489
 Alpha  occ. eigenvalues --   -0.36114  -0.35891  -0.34139  -0.33927  -0.33913
 Alpha  occ. eigenvalues --   -0.33549  -0.33042  -0.32808  -0.31103  -0.30965
 Alpha  occ. eigenvalues --   -0.30841  -0.30664  -0.29961  -0.29732  -0.29187
 Alpha  occ. eigenvalues --   -0.29086  -0.29044  -0.28930  -0.23898  -0.23694
 Alpha  occ. eigenvalues --   -0.20971  -0.20733
 Alpha virt. eigenvalues --   -0.08652  -0.08372  -0.01532  -0.01364   0.00124
 Alpha virt. eigenvalues --    0.00351   0.02277   0.02500   0.02599   0.04558
 Alpha virt. eigenvalues --    0.04791   0.05073   0.05091   0.05314   0.05961

 Mulliken charges:
               1
     1  Mg   0.840769
     2  C   -0.002862
     3  C   -0.088687
     4  C   -0.047224
     5  C   -0.064385
     6  N   -0.256875
     7  C   -0.052205
     8  C   -0.014578
     9  C   -0.088025
    10  C    0.048460
    11  C    0.104964
    12  C    0.051398
    13  C   -0.070040
    14  H    0.031209
    15  N   -0.433576
    16  C    0.171993
    17  C   -0.172971
    18  C   -0.003175
    19  C    0.149566
    20  C    0.109974
    21  C    0.012163
    22  O   -0.252228
    23  C    0.060599
    24  N   -0.341225
    25  C    0.042039
    26  C   -0.028551
    27  C   -0.023578
    28  C    0.073953
    29  C    0.076716
    30  C    0.038261
    31  C   -0.011149
    32  N   -0.310044
    33  C    0.079348
    34  C   -0.170834
    35  C    0.007418
    36  C    0.082131
    37  C    0.127676
    38  C    0.044901
    39  O   -0.191060
    40  C   -0.005185
    41  C    0.212762
    42  O   -0.258150
    43  O   -0.304481
    44  C    0.158690
    45  H   -0.017983
    46  H   -0.018284
    47  H   -0.042609
    48  H   -0.000706
    49  H   -0.002980
    50  H    0.024731
    51  H    0.016243
    52  H    0.015884
    53  H    0.020923
    54  H    0.043039
    55  H    0.016522
    56  H    0.017924
    57  H    0.005922
    58  H    0.024705
    59  H    0.047999
    60  H    0.037124
    61  H    0.033564
    62  H    0.037781
    63  H    0.015057
    64  H    0.008814
    65  H    0.021985
    66  H    0.012650
    67  H    0.004336
    68  H    0.004094
    69  H    0.003979
    70  H    0.010866
    71  H    0.020905
    72  H    0.029615
    73  H    0.045946
    74  H    0.008755
    75  H    0.045007
    76  H    0.034457
    77  H    0.041899
    78  H    0.046458
    79  H    0.051504
    80  Mg   0.839759
    81  C   -0.017060
    82  C   -0.086126
    83  C   -0.045558
    84  C   -0.064275
    85  N   -0.254817
    86  C   -0.049355
    87  C   -0.015760
    88  C   -0.091020
    89  C    0.047211
    90  C    0.114432
    91  C    0.061920
    92  C   -0.076938
    93  H    0.031766
    94  N   -0.423772
    95  C    0.165268
    96  C   -0.173091
    97  C   -0.006705
    98  C    0.152854
    99  C    0.099371
   100  C    0.016491
   101  O   -0.253823
   102  C    0.060304
   103  N   -0.350060
   104  C    0.037899
   105  C   -0.020143
   106  C   -0.034633
   107  C    0.088028
   108  C    0.073883
   109  C    0.037524
   110  C   -0.014487
   111  N   -0.323846
   112  C    0.077898
   113  C   -0.163750
   114  C    0.000563
   115  C    0.095936
   116  C    0.132275
   117  C    0.040639
   118  O   -0.191903
   119  C    0.001405
   120  C    0.210510
   121  O   -0.252426
   122  O   -0.304913
   123  C    0.153288
   124  H   -0.019694
   125  H   -0.015823
   126  H   -0.040039
   127  H   -0.001878
   128  H   -0.003601
   129  H    0.021926
   130  H    0.014415
   131  H    0.016036
   132  H    0.018994
   133  H    0.037097
   134  H    0.019765
   135  H    0.020567
   136  H    0.008867
   137  H    0.025495
   138  H    0.043162
   139  H    0.037775
   140  H    0.036110
   141  H    0.037068
   142  H    0.014151
   143  H    0.012037
   144  H    0.024695
   145  H    0.011504
   146  H    0.005524
   147  H    0.004660
   148  H    0.004130
   149  H    0.011140
   150  H    0.024117
   151  H    0.029842
   152  H    0.042051
   153  H    0.010652
   154  H    0.046319
   155  H    0.034747
   156  H    0.042963
   157  H    0.050489
   158  H    0.049943
 Sum of Mulliken charges =  -0.00000

 Dipole moment (field-independent basis, Debye):
    X=              0.9175    Y=              3.2738    Z=             -1.1494  Tot=              3.5890
 Quadrupole moment (field-independent basis, Debye-Ang):
   XX=           -482.7738   YY=           -462.3606   ZZ=           -543.0125
   XY=              7.4573   XZ=             23.1615   YZ=             -3.8850

 Normal termination of Gaussian 16 at Wed Sep  8 19:13:47 2021.
