 Gaussian 16, Revision A.03,
 Gaussian 16:  ES64L-G16RevA.03 25-Dec-2016

 -----------------------------------
 #p cam-b3lyp/Def2SVP td=(nstates=5)
 -----------------------------------

 --------------------------------
 TDDFT excited states in gaussian
 --------------------------------
 Symbolic Z-matrix:
 Charge =  0 Multiplicity = 1

                         Standard orientation:
 ---------------------------------------------------------------------
 Center     Atomic      Atomic             Coordinates (Angstroms)
 Number     Number       Type             X           Y           Z
 ---------------------------------------------------------------------
      1         12           0       15.772426   -0.820707    0.009279
      2          6           0       16.152799    2.686136   -0.598652
      3          6           0       16.697105   -0.210175    3.236551
      4          6           0       15.884734   -3.958269    0.456172
      5          6           0       15.991687   -1.291810   -3.436827
      6          7           0       16.327842    1.044048    1.065143
      7          6           0       16.376077    2.330425    0.733362
      8          6           0       16.612007    3.273961    1.950511
      9          6           0       17.317750    2.239782    2.937628
     10          6           0       16.719264    0.949412    2.405949
     11          6           0       18.833388    2.181161    2.776672
     12          6           0       15.271442    3.815831    2.551337
     13          6           0       15.418675    4.989204    3.524410
     14          1           0       14.394930    6.023222    3.534580
     15          7           0       15.746468   -1.878981    1.677282
     16          6           0       16.144003   -1.465897    2.904724
     17          6           0       15.929679   -2.614834    3.810643
     18          6           0       15.553931   -3.789113    2.975193
     19          6           0       15.741289   -3.255552    1.650207
     20          6           0       16.037044   -2.518289    5.301583
     21          6           0       15.108392   -5.175806    3.316821
     22          8           0       15.056369   -6.108055    2.443449
     23          6           0       14.815204   -5.440445    4.737049
     24          7           0       16.136777   -2.425807   -1.274674
     25          6           0       16.068585   -3.688152   -0.837846
     26          6           0       16.084061   -4.662211   -1.978419
     27          6           0       15.931794   -3.789644   -3.307026
     28          6           0       15.937736   -2.380100   -2.665606
     29          6           0       17.335199   -5.544629   -2.087991
     30          6           0       14.769821   -4.160335   -4.262444
     31          6           0       13.444475   -3.853610   -3.601781
     32          7           0       15.848964    0.455718   -1.744552
     33          6           0       15.961690    0.046256   -3.081081
     34          6           0       16.084669    1.267481   -3.898119
     35          6           0       16.051384    2.308670   -2.972558
     36          6           0       15.942587    1.770820   -1.658339
     37          6           0       16.265153    1.311722   -5.308758
     38          6           0       16.107210    3.749505   -2.786181
     39          8           0       16.103982    4.722399   -3.541799
     40          6           0       16.297761    4.046874   -1.233413
     41          6           0       15.306189    5.111136   -0.849431
     42          8           0       14.080071    4.879419   -0.866986
     43          8           0       15.957088    6.147332   -0.298823
     44          6           0       15.028234    7.226270    0.131614
     45          1           0       17.199383   -0.175214    4.205280
     46          1           0       15.817212   -5.043646    0.555350
     47          1           0       15.978895   -1.357236   -4.526326
     48          1           0       17.278536    4.113520    1.752260
     49          1           0       17.018880    2.397418    3.973751
     50          1           0       19.165941    2.766534    1.919544
     51          1           0       19.070218    1.126816    2.632586
     52          1           0       19.332673    2.476990    3.699698
     53          1           0       14.851098    3.068423    3.224207
     54          1           0       14.576191    4.090905    1.757431
     55          1           0       16.411682    5.435431    3.463367
     56          1           0       15.358740    4.599677    4.540715
     57          1           0       16.488554   -1.576327    5.610438
     58          1           0       16.750364   -3.278499    5.619332
     59          1           0       15.078693   -2.684834    5.793678
     60          1           0       15.706274   -5.239144    5.332044
     61          1           0       14.425707   -6.456986    4.779337
     62          1           0       14.054123   -4.737675    5.077371
     63          1           0       15.248542   -5.357672   -1.910105
     64          1           0       16.820712   -3.843698   -3.935975
     65          1           0       17.119700   -6.613328   -2.075888
     66          1           0       18.011296   -5.272825   -1.277864
     67          1           0       17.955914   -5.351047   -2.962437
     68          1           0       14.781577   -5.228360   -4.477224
     69          1           0       14.809352   -3.630211   -5.214104
     70          1           0       13.264982   -4.739333   -2.993416
     71          1           0       12.663949   -3.731565   -4.353509
     72          1           0       13.524832   -3.003550   -2.923970
     73          1           0       15.604280    2.096632   -5.676360
     74          1           0       16.032965    0.351095   -5.767985
     75          1           0       17.325120    1.558067   -5.369087
     76          1           0       17.326904    4.379600   -1.101955
     77          1           0       15.353557    8.144185   -0.358112
     78          1           0       15.018638    7.210329    1.221595
     79          1           0       14.002319    7.152133   -0.230796
     80         12           0      -15.942997    0.812075    0.167261
     81          6           0      -15.922280   -2.771735   -0.019760
     82          6           0      -15.080469    0.840254   -3.132722
     83          6           0      -15.512688    3.946387    0.408757
     84          6           0      -15.673691    0.494508    3.627362
     85          7           0      -15.578226   -0.819656   -1.280730
     86          6           0      -15.660115   -2.141362   -1.253990
     87          6           0      -15.528670   -2.822147   -2.642812
     88          6           0      -14.712255   -1.665756   -3.401160
     89          6           0      -15.174299   -0.462645   -2.581582
     90          6           0      -13.205586   -1.795500   -3.251386
     91          6           0      -16.922087   -3.078329   -3.317187
     92          6           0      -16.888351   -4.013679   -4.527867
     93          1           0      -18.018832   -4.912207   -4.744947
     94          7           0      -15.862141    2.209451   -1.239644
     95          6           0      -15.514193    2.042925   -2.532885
     96          6           0      -15.593434    3.377863   -3.145933
     97          6           0      -15.856759    4.372796   -2.071011
     98          6           0      -15.730645    3.532309   -0.897228
     99          6           0      -15.503892    3.599284   -4.627952
    100          6           0      -16.157971    5.840756   -2.094838
    101          8           0      -16.116565    6.553993   -1.030689
    102          6           0      -16.411306    6.436675   -3.414759
    103          7           0      -15.425206    2.045708    1.758601
    104          6           0      -15.357497    3.379846    1.605521
    105          6           0      -15.240151    4.076766    2.940029
    106          6           0      -15.487537    2.942716    4.040175
    107          6           0      -15.622614    1.715334    3.112452
    108          6           0      -13.905021    4.768672    3.214047
    109          6           0      -16.607025    3.207061    5.083986
    110          6           0      -17.957796    3.199564    4.405192
    111          7           0      -16.003889   -0.813294    1.589420
    112          6           0      -15.844321   -0.727742    2.989879
    113          6           0      -15.848493   -2.109046    3.513728
    114          6           0      -15.988219   -2.909760    2.370129
    115          6           0      -16.045369   -2.086547    1.213171
    116          6           0      -15.685232   -2.481960    4.877693
    117          6           0      -16.089689   -4.264696    1.877625
    118          8           0      -16.186165   -5.374155    2.400614
    119          6           0      -15.924399   -4.241534    0.296947
    120          6           0      -17.019352   -5.084643   -0.296973
    121          8           0      -18.209959   -4.741985   -0.189099
    122          8           0      -16.470658   -6.034429   -1.076211
    123          6           0      -17.517508   -6.889464   -1.696575
    124          1           0      -14.590115    0.960714   -4.099119
    125          1           0      -15.468165    5.027504    0.559400
    126          1           0      -15.692882    0.315601    4.704537
    127          1           0      -14.957871   -3.742996   -2.645126
    128          1           0      -15.033149   -1.568724   -4.435079
    129          1           0      -12.935521   -2.579033   -2.559074
    130          1           0      -12.862249   -0.835419   -2.888871
    131          1           0      -12.739663   -1.931722   -4.231537
    132          1           0      -17.259990   -2.154022   -3.803219
    133          1           0      -17.631665   -3.441693   -2.599493
    134          1           0      -15.941716   -4.563154   -4.597972
    135          1           0      -16.913813   -3.406698   -5.436133
    136          1           0      -15.144179    2.702655   -5.147628
    137          1           0      -14.716901    4.343079   -4.793154
    138          1           0      -16.437363    3.971576   -5.055375
    139          1           0      -15.546802    6.277391   -4.054846
    140          1           0      -16.695162    7.472374   -3.218187
    141          1           0      -17.250224    5.908729   -3.881784
    142          1           0      -16.000709    4.840651    3.045593
    143          1           0      -14.593672    2.772659    4.658176
    144          1           0      -14.010535    5.846069    3.442416
    145          1           0      -13.262619    4.623019    2.355770
    146          1           0      -13.316224    4.333611    4.019807
    147          1           0      -16.486837    4.199614    5.525077
    148          1           0      -16.615279    2.491236    5.899164
    149          1           0      -18.039171    4.215119    4.006300
    150          1           0      -18.747241    2.993903    5.125279
    151          1           0      -17.966521    2.509272    3.553683
    152          1           0      -16.416104   -3.253828    5.079053
    153          1           0      -15.813423   -1.629187    5.541104
    154          1           0      -14.651294   -2.836843    4.860448
    155          1           0      -14.933725   -4.634617    0.065370
    156          1           0      -17.285299   -7.924575   -1.427658
    157          1           0      -17.511553   -6.635262   -2.773186
    158          1           0      -18.529469   -6.795162   -1.320422
 ---------------------------------------------------------------------

 SCF Done:  E(RCAM-B3LYP) =  -4069.81178116     A.U. after   19 cycles

 Excitation energies and oscillator strengths:

 Excited State   1:      Singlet-A      1.6753 eV  740.05 nm  f=0.2210  <S**2>=0.000
     310 -> 316        0.16879
     311 -> 314        0.15947
     312 -> 313        0.66726
     310 <- 316        0.10176
 This state for optimization and/or second-order correction.
 Total Energy, E(TD-HF/TD-DFT) =  -4069.75021331
 Copying the excited state density for this state as the 1-particle RhoCI density.

 Excited State   2:      Singlet-A      1.6802 eV  737.93 nm  f=0.5562  <S**2>=0.000
     309 -> 315        0.17081
     311 -> 314        0.66690
     312 -> 313       -0.15942
     309 <- 315        0.10227

 Excited State   3:      Singlet-A      2.1862 eV  567.13 nm  f=0.0956  <S**2>=0.000
     310 -> 313        0.64213
     312 -> 316       -0.27296

 Excited State   4:      Singlet-A      2.1926 eV  565.47 nm  f=0.1046  <S**2>=0.000
     309 -> 314        0.64035
     311 -> 315       -0.27816

 Excited State   5:      Singlet-A      3.0659 eV  404.39 nm  f=0.0000  <S**2>=0.000
     311 -> 313        0.70711

 The electronic state is 1-A.
 Alpha  occ. eigenvalues --  -46.87796 -46.87660 -19.26350 -19.26285 -19.19162
 Alpha  occ. eigenvalues --  -19.19021 -19.18812 -19.18712 -19.18170 -19.18052
 Alpha  occ. eigenvalues --  -14.42497 -14.42449 -14.41449 -14.41359 -14.39402
 Alpha  occ. eigenvalues --  -14.39352 -14.38600 -14.38587 -10.39091 -10.39080
 Alpha  occ. eigenvalues --  -10.35445 -10.35389 -10.34390 -10.34230 -10.31757
 Alpha  occ. eigenvalues --  -10.31680 -10.31405 -10.31308 -10.31022 -10.30907
 Alpha  occ. eigenvalues --  -10.30570 -10.30507 -10.30398 -10.30361 -10.30207
 Alpha  occ. eigenvalues --  -10.30141 -10.29921 -10.29896 -10.29630 -10.29436
 Alpha  occ. eigenvalues --  -10.29401 -10.29254 -10.28747 -10.28717 -10.28651
 Alpha  occ. eigenvalues --  -10.28535 -10.28404 -10.28364 -10.28137 -10.28115
 Alpha  occ. eigenvalues --  -10.28001 -10.27793 -10.27726 -10.27668 -10.27583
 Alpha  occ. eigenvalues --  -10.27520 -10.27502 -10.27483 -10.27478 -10.27466
 Alpha  occ. eigenvalues --  -10.27461 -10.27450 -10.27403 -10.27378 -10.27159
 Alpha  occ. eigenvalues --  -10.27051 -10.26702 -10.26690 -10.26410 -10.26405
 Alpha  occ. eigenvalues --  -10.26232 -10.26187 -10.26142 -10.26020 -10.26020
 Alpha  occ. eigenvalues --  -10.25935 -10.25855 -10.25847 -10.25436 -10.25399
 Alpha  occ. eigenvalues --  -10.24873 -10.24833 -10.24787 -10.24735 -10.24691
 Alpha  occ. eigenvalues --  -10.24690  -3.16539  -3.16410  -1.91421  -1.91293
 Alpha  occ. eigenvalues --   -1.91007  -1.90881  -1.90849  -1.90718  -1.16644
 Alpha  occ. eigenvalues --   -1.16633  -1.08660  -1.08628  -1.07213  -1.06964
 Alpha  occ. eigenvalues --   -1.06946  -1.06643  -1.04580  -1.04495  -1.03760
 Alpha  occ. eigenvalues --   -1.03663  -1.03234  -1.03039  -1.02411  -1.02112
 Alpha  occ. eigenvalues --   -0.91987  -0.91972  -0.89521  -0.89496  -0.89186
 Alpha  occ. eigenvalues --   -0.89149  -0.88288  -0.88222  -0.87871  -0.87795
 Alpha  occ. eigenvalues --   -0.87683  -0.87672  -0.87272  -0.87118  -0.84998
 Alpha  occ. eigenvalues --   -0.84981  -0.83938  -0.83878  -0.82965  -0.82930
 Alpha  occ. eigenvalues --   -0.82651  -0.82647  -0.81597  -0.81586  -0.80596
 Alpha  occ. eigenvalues --   -0.80442  -0.78796  -0.78635  -0.77218  -0.77144
 Alpha  occ. eigenvalues --   -0.76934  -0.76898  -0.75923  -0.75838  -0.74898
 Alpha  occ. eigenvalues --   -0.74804  -0.72774  -0.72699  -0.71672  -0.71580
 Alpha  occ. eigenvalues --   -0.69909  -0.69760  -0.68872  -0.68826  -0.67641
 Alpha  occ. eigenvalues --   -0.67601  -0.67217  -0.67198  -0.65285  -0.65270
 Alpha  occ. eigenvalues --   -0.64854  -0.64770  -0.64653  -0.64620  -0.64270
 Alpha  occ. eigenvalues --   -0.64205  -0.62298  -0.62279  -0.60441  -0.60339
 Alpha  occ. eigenvalues --   -0.59803  -0.59795  -0.58993  -0.58987  -0.58504
 Alpha  occ. eigenvalues --   -0.58426  -0.57585  -0.57555  -0.57309  -0.57237
 Alpha  occ. eigenvalues --   -0.56309  -0.56204  -0.55978  -0.55886  -0.55519
 Alpha  occ. eigenvalues --   -0.55451  -0.55340  -0.55249  -0.54524  -0.54489
 Alpha  occ. eigenvalues --   -0.53910  -0.53893  -0.53298  -0.53228  -0.53220
 Alpha  occ. eigenvalues --   -0.53140  -0.52915  -0.52902  -0.52753  -0.52665
 Alpha  occ. eigenvalues --   -0.52440  -0.52404  -0.51917  -0.51888  -0.51657
 Alpha  occ. eigenvalues --   -0.51615  -0.51202  -0.51196  -0.50569  -0.50472
 Alpha  occ. eigenvalues --   -0.50032  -0.49978  -0.49916  -0.49868  -0.49513
 Alpha  occ. eigenvalues --   -0.49486  -0.49214  -0.49201  -0.49104  -0.49095
 Alpha  occ. eigenvalues --   -0.48593  -0.48558  -0.48461  -0.48444  -0.48377
 Alpha  occ. eigenvalues --   -0.48337  -0.47694  -0.47594  -0.47296  -0.47117
 Alpha  occ. eigenvalues --   -0.46797  -0.46709  -0.46554  -0.46552  -0.46359
 Alpha  occ. eigenvalues --   -0.46271  -0.46163  -0.46087  -0.45823  -0.45823
 Alpha  occ. eigenvalues --   -0.45209  -0.45202  -0.44578  -0.44514  -0.44505
 Alpha  occ. eigenvalues --   -0.44475  -0.44145  -0.44126  -0.44087  -0.44078
 Alpha  occ. eigenvalues --   -0.44018  -0.43938  -0.43554  -0.43495  -0.43385
 Alpha  occ. eigenvalues --   -0.43385  -0.43027  -0.42931  -0.42902  -0.42699
 Alpha  occ. eigenvalues --   -0.42656  -0.42554  -0.42010  -0.41965  -0.41704
 Alpha  occ. eigenvalues --   -0.41670  -0.41532  -0.41458  -0.41140  -0.40989
 Alpha  occ. eigenvalues --   -0.40868  -0.40821  -0.40720  -0.40697  -0.40572
 Alpha  occ. eigenvalues --   -0.40494  -0.40232  -0.40224  -0.39443  -0.39428
 Alpha  occ. eigenvalues --   -0.38469  -0.38351  -0.37746  -0.37652  -0.37321
 Alpha  occ. eigenvalues --   -0.37267  -0.37262  -0.37198  -0.36772  -0.36714
 Alpha  occ. eigenvalues --   -0.36218  -0.36193  -0.34286  -0.34254  -0.33863
 Alpha  occ. eigenvalues --   -0.33771  -0.33186  -0.33176  -0.31342  -0.31271
 Alpha  occ. eigenvalues --   -0.31035  -0.30973  -0.30030  -0.29957  -0.29448
 Alpha  occ. eigenvalues --   -0.29327  -0.29322  -0.29212  -0.24080  -0.24036
 Alpha  occ. eigenvalues --   -0.21127  -0.21117
 Alpha virt. eigenvalues --   -0.08792  -0.08774  -0.01749  -0.01684  -0.00056
 Alpha virt. eigenvalues --   -0.00027   0.02200   0.02206   0.03124   0.03227
 Alpha virt. eigenvalues --    0.04719   0.04731   0.05097   0.05165   0.06179

 Mulliken charges:
               1
     1  Mg   0.838792
     2  C   -0.002957
     3  C   -0.094098
     4  C   -0.045860
     5  C   -0.063988
     6  N   -0.256786
     7  C   -0.052465
     8  C   -0.014033
     9  C   -0.086994
    10  C    0.046332
    11  C    0.104808
    12  C    0.053460
    13  C   -0.071822
    14  H    0.036144
    15  N   -0.433155
    16  C    0.168438
    17  C   -0.177119
    18  C   -0.003993
    19  C    0.148713
    20  C    0.110168
    21  C    0.012309
    22  O   -0.249613
    23  C    0.062462
    24  N   -0.341132
    25  C    0.041222
    26  C   -0.028170
    27  C   -0.023968
    28  C    0.074824
    29  C    0.076175
    30  C    0.035146
    31  C   -0.004493
    32  N   -0.310483
    33  C    0.080404
    34  C   -0.169760
    35  C    0.008340
    36  C    0.082977
    37  C    0.127322
    38  C    0.046088
    39  O   -0.188491
    40  C   -0.005325
    41  C    0.212853
    42  O   -0.257115
    43  O   -0.304785
    44  C    0.157694
    45  H   -0.017570
    46  H   -0.016826
    47  H   -0.041537
    48  H    0.000935
    49  H   -0.004001
    50  H    0.025466
    51  H    0.016448
    52  H    0.016683
    53  H    0.011228
    54  H    0.044108
    55  H    0.017871
    56  H    0.017985
    57  H    0.005897
    58  H    0.026854
    59  H    0.039612
    60  H    0.037363
    61  H    0.035696
    62  H    0.031535
    63  H    0.016555
    64  H    0.009443
    65  H    0.023219
    66  H    0.012563
    67  H    0.004738
    68  H    0.006349
    69  H    0.004685
    70  H    0.008798
    71  H    0.018079
    72  H    0.028995
    73  H    0.047515
    74  H    0.009071
    75  H    0.045996
    76  H    0.035150
    77  H    0.042931
    78  H    0.046432
    79  H    0.053668
    80  Mg   0.837874
    81  C   -0.016831
    82  C   -0.087753
    83  C   -0.045500
    84  C   -0.064895
    85  N   -0.254574
    86  C   -0.049824
    87  C   -0.015119
    88  C   -0.090493
    89  C    0.045756
    90  C    0.114343
    91  C    0.062510
    92  C   -0.077922
    93  H    0.034896
    94  N   -0.423507
    95  C    0.162929
    96  C   -0.174566
    97  C   -0.007774
    98  C    0.152124
    99  C    0.099336
   100  C    0.015591
   101  O   -0.253165
   102  C    0.061183
   103  N   -0.350094
   104  C    0.037548
   105  C   -0.019855
   106  C   -0.034770
   107  C    0.088903
   108  C    0.073645
   109  C    0.034717
   110  C   -0.007663
   111  N   -0.324105
   112  C    0.078438
   113  C   -0.163162
   114  C    0.002215
   115  C    0.096201
   116  C    0.131492
   117  C    0.042358
   118  O   -0.187912
   119  C    0.000930
   120  C    0.211259
   121  O   -0.251026
   122  O   -0.305622
   123  C    0.152021
   124  H   -0.019571
   125  H   -0.015546
   126  H   -0.040501
   127  H   -0.000634
   128  H   -0.004282
   129  H    0.022463
   130  H    0.014465
   131  H    0.016370
   132  H    0.013927
   133  H    0.037657
   134  H    0.020814
   135  H    0.019630
   136  H    0.008814
   137  H    0.026243
   138  H    0.039826
   139  H    0.038317
   140  H    0.036431
   141  H    0.033897
   142  H    0.014401
   143  H    0.012396
   144  H    0.025151
   145  H    0.011696
   146  H    0.005662
   147  H    0.006252
   148  H    0.003616
   149  H    0.010943
   150  H    0.017906
   151  H    0.030111
   152  H    0.045973
   153  H    0.008479
   154  H    0.046921
   155  H    0.035039
   156  H    0.043904
   157  H    0.049524
   158  H    0.053568
 Sum of Mulliken charges =  -0.00000

 Dipole moment (field-independent basis, Debye):
    X=              4.0349    Y=              0.5102    Z=              0.3544  Tot=              4.0824
 Quadrupole moment (field-independent basis, Debye-Ang):
   XX=           -518.9712   YY=           -550.2774   ZZ=           -448.4141
   XY=            -40.2636   XZ=            125.8037   YZ=             46.9220

 Normal termination of Gaussian 16 at Sun Sep 12 12:17:56 2021.
