 Gaussian 16, Revision A.03,
 Gaussian 16:  ES64L-G16RevA.03 25-Dec-2016

 -----------------------------------
 #p cam-b3lyp/Def2SVP td=(nstates=5)
 -----------------------------------

 --------------------------------
 TDDFT excited states in gaussian
 --------------------------------
 Symbolic Z-matrix:
 Charge =  0 Multiplicity = 1

                         Standard orientation:
 ---------------------------------------------------------------------
 Center     Atomic      Atomic             Coordinates (Angstroms)
 Number     Number       Type             X           Y           Z
 ---------------------------------------------------------------------
      1         12           0       -3.983697    0.003775    0.129614
      2          6           0       -3.476394    3.540431    0.346229
      3          6           0       -4.824534    0.474953   -3.143618
      4          6           0       -4.873417   -3.038545    0.033111
      5          6           0       -4.211011   -0.027794    3.607112
      6          7           0       -4.096410    1.824071   -1.125163
      7          6           0       -3.818672    3.110507   -0.937770
      8          6           0       -3.851904    3.947470   -2.251453
      9          6           0       -4.817749    3.019766   -3.116615
     10          6           0       -4.538011    1.686126   -2.446483
     11          6           0       -6.296289    3.354024   -2.947221
     12          6           0       -2.437598    4.074851   -2.911182
     13          6           0       -2.321504    5.137423   -4.007912
     14          1           0       -1.076583    5.880051   -4.134500
     15          7           0       -4.266161   -1.200213   -1.410995
     16          6           0       -4.586127   -0.835478   -2.675857
     17          6           0       -4.686004   -2.091799   -3.449397
     18          6           0       -4.584866   -3.226265   -2.489786
     19          6           0       -4.597236   -2.524577   -1.231669
     20          6           0       -4.809900   -2.131634   -4.941648
     21          6           0       -4.502391   -4.708297   -2.676627
     22          8           0       -4.654655   -5.525795   -1.705500
     23          6           0       -4.324420   -5.187205   -4.059384
     24          7           0       -4.692186   -1.315363    1.584109
     25          6           0       -4.947762   -2.594792    1.289615
     26          6           0       -5.167885   -3.407379    2.531060
     27          6           0       -4.768037   -2.462458    3.754579
     28          6           0       -4.447544   -1.171782    2.961037
     29          6           0       -6.593186   -3.937317    2.740093
     30          6           0       -3.704768   -3.003817    4.742915
     31          6           0       -2.364503   -3.105581    4.049784
     32          7           0       -3.694364    1.439532    1.731467
     33          6           0       -3.864851    1.215694    3.105332
     34          6           0       -3.661348    2.509639    3.782356
     35          6           0       -3.401269    3.405472    2.747133
     36          6           0       -3.465771    2.720164    1.500344
     37          6           0       -3.784309    2.747447    5.179769
     38          6           0       -3.108196    4.787199    2.402467
     39          8           0       -2.844943    5.804274    3.045702
     40          6           0       -3.265367    4.954703    0.826692
     41          6           0       -2.055124    5.694454    0.325305
     42          8           0       -0.923022    5.170952    0.366034
     43          8           0       -2.448414    6.794155   -0.335393
     44          6           0       -1.296716    7.558537   -0.884453
     45          1           0       -5.331007    0.528917   -4.109286
     46          1           0       -5.076490   -4.111269    0.054596
     47          1           0       -4.182859    0.022434    4.697129
     48          1           0       -4.286630    4.941621   -2.146094
     49          1           0       -4.519730    2.987252   -4.164398
     50          1           0       -6.450336    4.091417   -2.159539
     51          1           0       -6.779639    2.412189   -2.686814
     52          1           0       -6.734687    3.663414   -3.896358
     53          1           0       -2.232750    3.179428   -3.497967
     54          1           0       -1.673328    4.253292   -2.153966
     55          1           0       -3.172897    5.818499   -3.994731
     56          1           0       -2.388377    4.638858   -4.974949
     57          1           0       -5.025964   -1.146014   -5.352032
     58          1           0       -5.696525   -2.722056   -5.171882
     59          1           0       -3.936217   -2.580820   -5.414132
     60          1           0       -5.156088   -4.837266   -4.671282
     61          1           0       -4.196946   -6.266895   -3.989605
     62          1           0       -3.424751   -4.734191   -4.476905
     63          1           0       -4.530328   -4.290494    2.538555
     64          1           0       -5.624426   -2.228255    4.387367
     65          1           0       -6.646227   -5.021143    2.845984
     66          1           0       -7.205531   -3.595433    1.906162
     67          1           0       -7.121884   -3.504449    3.588928
     68          1           0       -3.971274   -4.006746    5.074660
     69          1           0       -3.585598   -2.381757    5.630097
     70          1           0       -2.425045   -4.067986    3.542890
     71          1           0       -1.556268   -3.100067    4.781861
     72          1           0       -2.254112   -2.339376    3.282171
     73          1           0       -2.941015    3.379913    5.456915
     74          1           0       -3.780985    1.813966    5.742091
     75          1           0       -4.749534    3.252413    5.214503
     76          1           0       -4.185170    5.514788    0.661195
     77          1           0       -1.373087    8.575215   -0.498750
     78          1           0       -1.323097    7.424363   -1.965983
     79          1           0       -0.310023    7.273007   -0.518052
     80         12           0        3.805511   -1.559714    0.020937
     81          6           0        4.472581    1.960325    0.229343
     82          6           0        3.118279   -1.081990   -3.285735
     83          6           0        2.778466   -4.559497   -0.096947
     84          6           0        3.429568   -1.552527    3.485659
     85          7           0        3.828479    0.251460   -1.248475
     86          6           0        4.157539    1.522522   -1.073929
     87          6           0        4.226450    2.354613   -2.382520
     88          6           0        3.244683    1.461976   -3.287070
     89          6           0        3.429444    0.114637   -2.591931
     90          6           0        1.784228    1.864684   -3.167786
     91          6           0        5.674923    2.404165   -2.983765
     92          6           0        5.878965    3.447477   -4.084507
     93          1           0        7.168403    4.127770   -4.168315
     94          7           0        3.531721   -2.763286   -1.533091
     95          6           0        3.286255   -2.400893   -2.809693
     96          6           0        3.141842   -3.655901   -3.563507
     97          6           0        3.158417   -4.787864   -2.597531
     98          6           0        3.135448   -4.063722   -1.342462
     99          6           0        3.085769   -3.702687   -5.062865
    100          6           0        3.177238   -6.276033   -2.774163
    101          8           0        2.948798   -7.073059   -1.796717
    102          6           0        3.378508   -6.771167   -4.143769
    103          7           0        2.985236   -2.826409    1.450954
    104          6           0        2.674009   -4.099383    1.149930
    105          6           0        2.360751   -4.893522    2.395562
    106          6           0        2.763273   -3.947656    3.620664
    107          6           0        3.174075   -2.681054    2.838121
    108          6           0        0.906886   -5.338451    2.552748
    109          6           0        3.759244   -4.529174    4.661108
    110          6           0        5.119062   -4.713568    4.026852
    111          7           0        4.102105   -0.131385    1.614661
    112          6           0        3.859840   -0.327578    2.991935
    113          6           0        4.099276    0.965690    3.664661
    114          6           0        4.444626    1.837213    2.620791
    115          6           0        4.402387    1.141541    1.382335
    116          6           0        3.941960    1.221294    5.056078
    117          6           0        4.824967    3.190127    2.283702
    118          8           0        5.103521    4.200386    2.928316
    119          6           0        4.737024    3.361585    0.705961
    120          6           0        5.999861    4.033305    0.240630
    121          8           0        7.097280    3.457578    0.344676
    122          8           0        5.680198    5.146094   -0.444859
    123          6           0        6.899426    5.841481   -0.936539
    124          1           0        2.662631   -1.005579   -4.273383
    125          1           0        2.522755   -5.621211   -0.067680
    126          1           0        3.428727   -1.492121    4.576090
    127          1           0        3.841034    3.363775   -2.299975
    128          1           0        3.592391    1.411225   -4.315614
    129          1           0        1.633244    2.610464   -2.401523
    130          1           0        1.247852    0.957146   -2.923386
    131          1           0        1.401791    2.188233   -4.140096
    132          1           0        5.855558    1.486748   -3.558632
    133          1           0        6.403880    2.547849   -2.210076
    134          1           0        5.058085    4.173942   -4.121142
    135          1           0        5.834227    2.943429   -5.052981
    136          1           0        2.928482   -2.704943   -5.490848
    137          1           0        2.181457   -4.259245   -5.331829
    138          1           0        3.952001   -4.202707   -5.501373
    139          1           0        2.592643   -6.382876   -4.787281
    140          1           0        3.451138   -7.856799   -4.054318
    141          1           0        4.324313   -6.370439   -4.525189
    142          1           0        2.956831   -5.796823    2.438392
    143          1           0        1.888145   -3.672159    4.227384
    144          1           0        0.795156   -6.433539    2.664004
    145          1           0        0.347093   -4.984053    1.697426
    146          1           0        0.371752   -4.882654    3.384057
    147          1           0        3.431663   -5.519617    4.986489
    148          1           0        3.862279   -3.915898    5.550084
    149          1           0        5.026530   -5.679331    3.521049
    150          1           0        5.896387   -4.739458    4.787859
    151          1           0        5.300542   -3.954412    3.257174
    152          1           0        4.794742    1.812392    5.362418
    153          1           0        3.873344    0.296389    5.624949
    154          1           0        2.995991    1.769344    5.047972
    155          1           0        3.851386    3.960523    0.490382
    156          1           0        6.854201    6.868822   -0.562103
    157          1           0        6.898985    5.704986   -2.034318
    158          1           0        7.855306    5.515117   -0.543804
 ---------------------------------------------------------------------

 SCF Done:  E(RCAM-B3LYP) =  -4069.81143708     A.U. after   19 cycles

 Excitation energies and oscillator strengths:

 Excited State   1:      Singlet-A      1.6381 eV  756.90 nm  f=0.0009  <S**2>=0.000
     309 -> 315       -0.11336
     310 -> 316        0.11891
     311 -> 313       -0.47242
     312 -> 314        0.50054
 This state for optimization and/or second-order correction.
 Total Energy, E(TD-HF/TD-DFT) =  -4069.75123978
 Copying the excited state density for this state as the 1-particle RhoCI density.

 Excited State   2:      Singlet-A      1.7117 eV  724.32 nm  f=0.6775  <S**2>=0.000
     309 -> 315        0.13418
     310 -> 316        0.12535
     311 -> 313        0.49711
     312 -> 314        0.46920

 Excited State   3:      Singlet-A      2.1774 eV  569.40 nm  f=0.0097  <S**2>=0.000
     309 -> 313       -0.34178
     310 -> 314        0.54869
     311 -> 315        0.13946
     312 -> 316       -0.22564

 Excited State   4:      Singlet-A      2.1980 eV  564.07 nm  f=0.1575  <S**2>=0.000
     309 -> 313        0.54220
     310 -> 314        0.33546
     311 -> 315       -0.24103
     312 -> 316       -0.15094

 Excited State   5:      Singlet-A      2.2371 eV  554.22 nm  f=0.0000  <S**2>=0.000
     312 -> 313        0.70710

 The electronic state is 1-A.
 Alpha  occ. eigenvalues --  -46.87908 -46.87382 -19.26385 -19.26043 -19.19132
 Alpha  occ. eigenvalues --  -19.18875 -19.18848 -19.18480 -19.18231 -19.17668
 Alpha  occ. eigenvalues --  -14.42575 -14.42221 -14.41567 -14.41083 -14.39509
 Alpha  occ. eigenvalues --  -14.39078 -14.38690 -14.38300 -10.39191 -10.38763
 Alpha  occ. eigenvalues --  -10.35510 -10.35164 -10.34456 -10.33835 -10.31768
 Alpha  occ. eigenvalues --  -10.31534 -10.31515 -10.31042 -10.31011 -10.30748
 Alpha  occ. eigenvalues --  -10.30685 -10.30605 -10.30328 -10.30101 -10.30060
 Alpha  occ. eigenvalues --  -10.30026 -10.29909 -10.29732 -10.29599 -10.29361
 Alpha  occ. eigenvalues --  -10.29184 -10.29115 -10.28937 -10.28837 -10.28500
 Alpha  occ. eigenvalues --  -10.28470 -10.28437 -10.28285 -10.28103 -10.27889
 Alpha  occ. eigenvalues --  -10.27873 -10.27854 -10.27704 -10.27687 -10.27645
 Alpha  occ. eigenvalues --  -10.27637 -10.27567 -10.27519 -10.27414 -10.27336
 Alpha  occ. eigenvalues --  -10.27314 -10.27253 -10.27194 -10.27181 -10.27131
 Alpha  occ. eigenvalues --  -10.26984 -10.26610 -10.26484 -10.26478 -10.26386
 Alpha  occ. eigenvalues --  -10.26376 -10.26262 -10.26140 -10.25975 -10.25912
 Alpha  occ. eigenvalues --  -10.25703 -10.25675 -10.25529 -10.25516 -10.25114
 Alpha  occ. eigenvalues --  -10.24966 -10.24925 -10.24892 -10.24565 -10.24556
 Alpha  occ. eigenvalues --  -10.24398  -3.16650  -3.16133  -1.91531  -1.91118
 Alpha  occ. eigenvalues --   -1.91015  -1.90960  -1.90604  -1.90440  -1.16735
 Alpha  occ. eigenvalues --   -1.16334  -1.08687  -1.08262  -1.07270  -1.06749
 Alpha  occ. eigenvalues --   -1.06734  -1.06630  -1.04706  -1.04210  -1.03877
 Alpha  occ. eigenvalues --   -1.03383  -1.03340  -1.02759  -1.02521  -1.01823
 Alpha  occ. eigenvalues --   -0.92080  -0.91658  -0.89659  -0.89365  -0.89241
 Alpha  occ. eigenvalues --   -0.88883  -0.88420  -0.87973  -0.87965  -0.87812
 Alpha  occ. eigenvalues --   -0.87484  -0.87419  -0.87381  -0.86897  -0.85148
 Alpha  occ. eigenvalues --   -0.84742  -0.84082  -0.83630  -0.83075  -0.82790
 Alpha  occ. eigenvalues --   -0.82727  -0.82399  -0.81697  -0.81309  -0.80712
 Alpha  occ. eigenvalues --   -0.80167  -0.78907  -0.78383  -0.77367  -0.77089
 Alpha  occ. eigenvalues --   -0.76895  -0.76635  -0.76053  -0.75556  -0.75023
 Alpha  occ. eigenvalues --   -0.74536  -0.72889  -0.72418  -0.71791  -0.71295
 Alpha  occ. eigenvalues --   -0.70080  -0.69539  -0.69024  -0.68571  -0.67752
 Alpha  occ. eigenvalues --   -0.67393  -0.67325  -0.66973  -0.65445  -0.64997
 Alpha  occ. eigenvalues --   -0.64973  -0.64756  -0.64498  -0.64405  -0.64381
 Alpha  occ. eigenvalues --   -0.63952  -0.62405  -0.61992  -0.60551  -0.60097
 Alpha  occ. eigenvalues --   -0.59953  -0.59520  -0.59105  -0.58711  -0.58617
 Alpha  occ. eigenvalues --   -0.58136  -0.57684  -0.57423  -0.57200  -0.56958
 Alpha  occ. eigenvalues --   -0.56419  -0.56100  -0.55935  -0.55628  -0.55612
 Alpha  occ. eigenvalues --   -0.55468  -0.55197  -0.54981  -0.54653  -0.54225
 Alpha  occ. eigenvalues --   -0.54069  -0.53654  -0.53414  -0.53356  -0.53046
 Alpha  occ. eigenvalues --   -0.52975  -0.52890  -0.52877  -0.52642  -0.52611
 Alpha  occ. eigenvalues --   -0.52458  -0.52193  -0.52000  -0.51773  -0.51556
 Alpha  occ. eigenvalues --   -0.51413  -0.51316  -0.50912  -0.50693  -0.50292
 Alpha  occ. eigenvalues --   -0.50188  -0.50040  -0.49736  -0.49648  -0.49624
 Alpha  occ. eigenvalues --   -0.49327  -0.49240  -0.49235  -0.48917  -0.48804
 Alpha  occ. eigenvalues --   -0.48708  -0.48572  -0.48531  -0.48273  -0.48124
 Alpha  occ. eigenvalues --   -0.48076  -0.47826  -0.47412  -0.47349  -0.46945
 Alpha  occ. eigenvalues --   -0.46878  -0.46720  -0.46481  -0.46454  -0.46308
 Alpha  occ. eigenvalues --   -0.46272  -0.46018  -0.45927  -0.45796  -0.45521
 Alpha  occ. eigenvalues --   -0.45318  -0.44938  -0.44682  -0.44654  -0.44286
 Alpha  occ. eigenvalues --   -0.44244  -0.44233  -0.44209  -0.44121  -0.43856
 Alpha  occ. eigenvalues --   -0.43838  -0.43663  -0.43606  -0.43526  -0.43278
 Alpha  occ. eigenvalues --   -0.43147  -0.43112  -0.42835  -0.42780  -0.42648
 Alpha  occ. eigenvalues --   -0.42597  -0.42321  -0.42168  -0.41819  -0.41723
 Alpha  occ. eigenvalues --   -0.41700  -0.41354  -0.41263  -0.41212  -0.41041
 Alpha  occ. eigenvalues --   -0.40932  -0.40722  -0.40699  -0.40499  -0.40463
 Alpha  occ. eigenvalues --   -0.40445  -0.40240  -0.40003  -0.39617  -0.39217
 Alpha  occ. eigenvalues --   -0.38615  -0.38104  -0.37953  -0.37455  -0.37427
 Alpha  occ. eigenvalues --   -0.37414  -0.37010  -0.36934  -0.36826  -0.36484
 Alpha  occ. eigenvalues --   -0.36319  -0.35950  -0.34399  -0.33969  -0.33881
 Alpha  occ. eigenvalues --   -0.33549  -0.33298  -0.32894  -0.31408  -0.31148
 Alpha  occ. eigenvalues --   -0.31037  -0.30683  -0.30093  -0.29566  -0.29545
 Alpha  occ. eigenvalues --   -0.29413  -0.29062  -0.28888  -0.24195  -0.23742
 Alpha  occ. eigenvalues --   -0.21243  -0.20837
 Alpha virt. eigenvalues --   -0.08880  -0.08505  -0.01861  -0.01413  -0.00154
 Alpha virt. eigenvalues --    0.00235   0.02108   0.02403   0.02647   0.03614
 Alpha virt. eigenvalues --    0.04551   0.04932   0.05042   0.05494   0.05895

 Mulliken charges:
               1
     1  Mg   0.838866
     2  C   -0.003287
     3  C   -0.095318
     4  C   -0.045203
     5  C   -0.063912
     6  N   -0.256590
     7  C   -0.053152
     8  C   -0.013795
     9  C   -0.086832
    10  C    0.045968
    11  C    0.104794
    12  C    0.052254
    13  C   -0.071298
    14  H    0.034275
    15  N   -0.433305
    16  C    0.168441
    17  C   -0.177893
    18  C   -0.003507
    19  C    0.149268
    20  C    0.110407
    21  C    0.013680
    22  O   -0.248301
    23  C    0.062453
    24  N   -0.340885
    25  C    0.040998
    26  C   -0.028873
    27  C   -0.024458
    28  C    0.074465
    29  C    0.076018
    30  C    0.039214
    31  C   -0.017294
    32  N   -0.310695
    33  C    0.080735
    34  C   -0.169563
    35  C    0.008909
    36  C    0.083376
    37  C    0.127138
    38  C    0.046834
    39  O   -0.186796
    40  C   -0.005901
    41  C    0.213790
    42  O   -0.258033
    43  O   -0.304771
    44  C    0.156916
    45  H   -0.017875
    46  H   -0.016246
    47  H   -0.041574
    48  H    0.001482
    49  H   -0.004986
    50  H    0.025846
    51  H    0.016845
    52  H    0.016637
    53  H    0.010061
    54  H    0.044053
    55  H    0.019275
    56  H    0.016989
    57  H    0.005248
    58  H    0.027281
    59  H    0.037847
    60  H    0.036878
    61  H    0.036948
    62  H    0.030183
    63  H    0.017303
    64  H    0.009942
    65  H    0.023672
    66  H    0.012785
    67  H    0.004898
    68  H    0.006469
    69  H    0.004032
    70  H    0.015326
    71  H    0.019731
    72  H    0.031541
    73  H    0.048521
    74  H    0.008743
    75  H    0.046339
    76  H    0.035367
    77  H    0.044219
    78  H    0.045166
    79  H    0.054781
    80  Mg   0.836955
    81  C   -0.014793
    82  C   -0.088289
    83  C   -0.045353
    84  C   -0.065292
    85  N   -0.254591
    86  C   -0.047599
    87  C   -0.015044
    88  C   -0.091654
    89  C    0.045871
    90  C    0.111180
    91  C    0.062715
    92  C   -0.077006
    93  H    0.033998
    94  N   -0.423394
    95  C    0.162675
    96  C   -0.176277
    97  C   -0.008038
    98  C    0.151483
    99  C    0.100311
   100  C    0.015114
   101  O   -0.253065
   102  C    0.061611
   103  N   -0.350283
   104  C    0.037171
   105  C   -0.020403
   106  C   -0.035120
   107  C    0.089552
   108  C    0.073071
   109  C    0.034528
   110  C   -0.007155
   111  N   -0.324886
   112  C    0.079651
   113  C   -0.162074
   114  C    0.004977
   115  C    0.095922
   116  C    0.130536
   117  C    0.045698
   118  O   -0.186424
   119  C   -0.001157
   120  C    0.210388
   121  O   -0.252201
   122  O   -0.304717
   123  C    0.152365
   124  H   -0.022101
   125  H   -0.015488
   126  H   -0.041325
   127  H    0.001136
   128  H   -0.006344
   129  H    0.033222
   130  H    0.013453
   131  H    0.011763
   132  H    0.013294
   133  H    0.037678
   134  H    0.020065
   135  H    0.018537
   136  H    0.007278
   137  H    0.023151
   138  H    0.039049
   139  H    0.036742
   140  H    0.035944
   141  H    0.033444
   142  H    0.013659
   143  H    0.011448
   144  H    0.024032
   145  H    0.014036
   146  H    0.004067
   147  H    0.005458
   148  H    0.002965
   149  H    0.010817
   150  H    0.017403
   151  H    0.030502
   152  H    0.045612
   153  H    0.006858
   154  H    0.050678
   155  H    0.044288
   156  H    0.043457
   157  H    0.048382
   158  H    0.053018
 Sum of Mulliken charges =  -0.00000

 Dipole moment (field-independent basis, Debye):
    X=             -4.5317    Y=             -1.0199    Z=             -7.2378  Tot=              8.6001
 Quadrupole moment (field-independent basis, Debye-Ang):
   XX=           -520.4687   YY=           -547.9771   ZZ=           -449.2445
   XY=            -10.1142   XZ=            -10.8535   YZ=            -46.4497

 Normal termination of Gaussian 16 at Thu Sep  9 08:07:57 2021.
