 Gaussian 16, Revision A.03,
 Gaussian 16:  ES64L-G16RevA.03 25-Dec-2016

 -----------------------------------
 #p cam-b3lyp/Def2SVP td=(nstates=5)
 -----------------------------------

 --------------------------------
 TDDFT excited states in gaussian
 --------------------------------
 Symbolic Z-matrix:
 Charge =  0 Multiplicity = 1

                         Standard orientation:
 ---------------------------------------------------------------------
 Center     Atomic      Atomic             Coordinates (Angstroms)
 Number     Number       Type             X           Y           Z
 ---------------------------------------------------------------------
      1         12           0       -3.573809    0.905415    0.238020
      2          6           0       -4.054198   -2.204687    1.943512
      3          6           0       -4.085391    2.456606    3.233876
      4          6           0       -3.605280    3.667007   -1.320582
      5          6           0       -4.225698   -0.793142   -2.734455
      6          7           0       -4.004294    0.117324    2.261443
      7          6           0       -4.103782   -1.097104    2.792892
      8          6           0       -4.190093   -1.085579    4.348460
      9          6           0       -4.757039    0.389745    4.558194
     10          6           0       -4.221464    1.037824    3.293648
     11          6           0       -6.280370    0.465151    4.541490
     12          6           0       -2.788081   -1.261820    5.023022
     13          6           0       -2.819125   -1.587455    6.519135
     14          1           0       -1.810040   -2.484550    7.061645
     15          7           0       -3.328311    2.751491    0.897251
     16          6           0       -3.569691    3.202251    2.151778
     17          6           0       -3.233526    4.642221    2.139197
     18          6           0       -2.958332    5.032922    0.728624
     19          6           0       -3.316462    3.823263    0.033033
     20          6           0       -3.151281    5.478825    3.378987
     21          6           0       -2.462780    6.299456    0.105364
     22          8           0       -2.515281    6.502811   -1.155772
     23          6           0       -1.989561    7.345351    1.030140
     24          7           0       -4.086508    1.426721   -1.717233
     25          6           0       -3.954054    2.684169   -2.153427
     26          6           0       -4.107150    2.764219   -3.643425
     27          6           0       -4.131378    1.255895   -4.166994
     28          6           0       -4.066163    0.530598   -2.800260
     29          6           0       -5.355527    3.500155   -4.149353
     30          6           0       -3.097523    0.872670   -5.255434
     31          6           0       -1.701270    0.919938   -4.676347
     32          7           0       -3.881992   -1.160992   -0.350222
     33          6           0       -4.160609   -1.638123   -1.639172
     34          6           0       -4.395413   -3.089003   -1.521350
     35          6           0       -4.252469   -3.353994   -0.160764
     36          6           0       -3.973596   -2.140907    0.531292
     37          6           0       -4.754000   -3.964204   -2.584304
     38          6           0       -4.294784   -4.375768    0.872698
     39          8           0       -4.394771   -5.603567    0.874639
     40          6           0       -4.288673   -3.653542    2.291916
     41          6           0       -3.264223   -4.345217    3.149469
     42          8           0       -2.048599   -4.275062    2.876150
     43          8           0       -3.847506   -4.776433    4.278351
     44          6           0       -2.879469   -5.446309    5.187375
     45          1           0       -4.460748    3.058284    4.063956
     46          1           0       -3.517700    4.579838   -1.913464
     47          1           0       -4.350966   -1.403053   -3.630987
     48          1           0       -4.882583   -1.814032    4.770641
     49          1           0       -4.330106    0.868331    5.439332
     50          1           0       -6.723447   -0.489679    4.258821
     51          1           0       -6.525807    1.231376    3.805859
     52          1           0       -6.660490    0.832568    5.495058
     53          1           0       -2.280146   -0.297903    5.053453
     54          1           0       -2.201393   -2.018805    4.501393
     55          1           0       -3.815103   -1.894382    6.839652
     56          1           0       -2.627666   -0.668213    7.072793
     57          1           0       -3.566820    4.958892    4.241276
     58          1           0       -3.812817    6.332273    3.231661
     59          1           0       -2.136967    5.828824    3.571341
     60          1           0       -2.799265    7.621366    1.705968
     61          1           0       -1.590362    8.142348    0.403812
     62          1           0       -1.196609    6.932337    1.654316
     63          1           0       -3.264617    3.285813   -4.095645
     64          1           0       -5.092586    0.991572   -4.608453
     65          1           0       -5.132362    4.334638   -4.814591
     66          1           0       -5.925189    3.832893   -3.282138
     67          1           0       -6.083734    2.868738   -4.657727
     68          1           0       -3.128599    1.588043   -6.076544
     69          1           0       -3.261566   -0.120269   -5.674258
     70          1           0       -1.439403    1.974251   -4.758077
     71          1           0       -1.023512    0.302420   -5.266708
     72          1           0       -1.701116    0.665376   -3.616307
     73          1           0       -4.151000   -4.863030   -2.455959
     74          1           0       -4.574969   -3.502358   -3.554999
     75          1           0       -5.814829   -4.107033   -2.379125
     76          1           0       -5.295195   -3.750974    2.697554
     77          1           0       -3.271143   -6.441962    5.395941
     78          1           0       -2.731333   -4.773630    6.032339
     79          1           0       -1.907401   -5.693135    4.759006
     80         12           0        4.282042   -0.051310   -0.236196
     81          6           0        1.812657   -1.698653   -2.252995
     82          6           0        2.956254    2.907809   -1.294710
     83          6           0        6.715044    1.426148    1.165594
     84          6           0        6.085834   -3.033203   -0.255369
     85          7           0        2.602011    0.414654   -1.597302
     86          6           0        1.697047   -0.292929   -2.256642
     87          6           0        0.560023    0.550537   -2.893283
     88          6           0        1.337158    1.950804   -3.012385
     89          6           0        2.341907    1.770115   -1.876369
     90          6           0        2.108696    2.102185   -4.312837
     91          6           0       -0.693681    0.667215   -1.956995
     92          6           0       -1.953442    1.211700   -2.633967
     93          1           0       -3.250089    0.682977   -2.219676
     94          7           0        4.488475    1.844064    0.314699
     95          6           0        3.856169    2.916412   -0.206404
     96          6           0        4.369018    4.082603    0.529215
     97          6           0        5.476419    3.629227    1.413990
     98          6           0        5.619895    2.255921    0.974079
     99          6           0        3.758704    5.449336    0.415274
    100          6           0        6.282605    4.321297    2.471020
    101          8           0        7.354236    3.803880    2.947174
    102          6           0        5.832021    5.664142    2.865002
    103          7           0        6.230375   -0.637423    0.191370
    104          6           0        7.067781    0.178474    0.855453
    105          6           0        8.314286   -0.555189    1.289449
    106          6           0        8.030511   -2.099925    0.988034
    107          6           0        6.643313   -1.976785    0.320269
    108          6           0        9.610109   -0.131737    0.598139
    109          6           0        8.194922   -3.090052    2.173491
    110          6           0        7.125866   -2.834574    3.211383
    111          7           0        3.942840   -2.069889   -0.927815
    112          6           0        4.841073   -3.157338   -0.859146
    113          6           0        4.206099   -4.291521   -1.561199
    114          6           0        2.982671   -3.774343   -2.013110
    115          6           0        2.872397   -2.408122   -1.637906
    116          6           0        4.782154   -5.578992   -1.752764
    117          6           0        1.764070   -4.070512   -2.731452
    118          8           0        1.261501   -5.087778   -3.207180
    119          6           0        1.007717   -2.704424   -3.028305
    120          6           0       -0.438130   -2.883184   -2.654012
    121          8           0       -0.765781   -3.070160   -1.468985
    122          8           0       -1.208215   -2.588675   -3.717314
    123          6           0       -2.651506   -2.740511   -3.392262
    124          1           0        2.764991    3.884906   -1.739216
    125          1           0        7.537225    1.856107    1.742346
    126          1           0        6.541165   -4.025235   -0.220399
    127          1           0        0.241734    0.217358   -3.873819
    128          1           0        0.675693    2.788389   -2.806769
    129          1           0        2.103131    1.191379   -4.892955
    130          1           0        3.119384    2.362318   -4.026679
    131          1           0        1.727023    2.955710   -4.880419
    132          1           0       -0.517819    1.461793   -1.220475
    133          1           0       -0.911444   -0.274914   -1.492672
    134          1           0       -1.868326    1.207550   -3.727441
    135          1           0       -2.056092    2.268827   -2.377132
    136          1           0        3.067228    5.511555   -0.434084
    137          1           0        4.568379    6.140619    0.157546
    138          1           0        3.293030    5.781585    1.345558
    139          1           0        5.824810    6.313095    1.992494
    140          1           0        6.479728    5.958464    3.693082
    141          1           0        4.796108    5.596704    3.215631
    142          1           0        8.486582   -0.430239    2.351428
    143          1           0        8.713312   -2.497921    0.223036
    144          1           0       10.394640    0.197567    1.305347
    145          1           0        9.379208    0.655511   -0.107164
    146          1           0       10.061597   -0.889007   -0.040537
    147          1           0        9.154765   -2.929605    2.670597
    148          1           0        8.157477   -4.132178    1.874220
    149          1           0        7.541737   -2.008397    3.795820
    150          1           0        6.972910   -3.717246    3.829060
    151          1           0        6.201573   -2.475336    2.744158
    152          1           0        4.002357   -6.301835   -1.552968
    153          1           0        5.641746   -5.730591   -1.103244
    154          1           0        5.070086   -5.509208   -2.805137
    155          1           0        1.131798   -2.485159   -4.089478
    156          1           0       -3.073097   -3.434061   -4.126389
    157          1           0       -3.063369   -1.713959   -3.374660
    158          1           0       -2.906503   -3.235770   -2.462673
 ---------------------------------------------------------------------

 SCF Done:  E(RCAM-B3LYP) =  -4069.01329325     A.U. after   27 cycles

 Excitation energies and oscillator strengths:

 Excited State   1:      Singlet-A      0.3243 eV 3822.68 nm  f=0.0065  <S**2>=0.000
     311 -> 313        0.12232
     312 -> 313        0.68367
 This state for optimization and/or second-order correction.
 Total Energy, E(TD-HF/TD-DFT) =  -4069.00137402
 Copying the excited state density for this state as the 1-particle RhoCI density.

 Excited State   2:      Singlet-A      0.9002 eV 1377.36 nm  f=0.0774  <S**2>=0.000
     311 -> 313        0.67396
     312 -> 313       -0.10391
     312 -> 315        0.12263

 Excited State   3:      Singlet-A      1.3458 eV  921.29 nm  f=0.0393  <S**2>=0.000
     312 -> 314        0.47715
     312 -> 315       -0.47803

 Excited State   4:      Singlet-A      1.4095 eV  879.61 nm  f=0.0289  <S**2>=0.000
     311 -> 315       -0.13182
     312 -> 314        0.50220
     312 -> 315        0.44159

 Excited State   5:      Singlet-A      1.7041 eV  727.56 nm  f=0.2892  <S**2>=0.000
     309 -> 316        0.15801
     310 -> 314        0.66708
     311 -> 314        0.11943
     312 -> 314        0.11216

 The electronic state is 1-A.
 Alpha  occ. eigenvalues --  -46.88470 -46.86968 -19.26242 -19.25154 -19.19166
 Alpha  occ. eigenvalues --  -19.18920 -19.18493 -19.18350 -19.18213 -19.17406
 Alpha  occ. eigenvalues --  -14.43259 -14.41804 -14.41651 -14.40711 -14.39712
 Alpha  occ. eigenvalues --  -14.39555 -14.38686 -14.37925 -10.39056 -10.38188
 Alpha  occ. eigenvalues --  -10.35809 -10.34906 -10.34695 -10.33559 -10.33197
 Alpha  occ. eigenvalues --  -10.31800 -10.31596 -10.31266 -10.31265 -10.30965
 Alpha  occ. eigenvalues --  -10.30617 -10.30505 -10.30381 -10.30254 -10.30190
 Alpha  occ. eigenvalues --  -10.29710 -10.29624 -10.29586 -10.29237 -10.29234
 Alpha  occ. eigenvalues --  -10.29025 -10.28867 -10.28767 -10.28706 -10.28609
 Alpha  occ. eigenvalues --  -10.28597 -10.28530 -10.28523 -10.28449 -10.28282
 Alpha  occ. eigenvalues --  -10.28138 -10.28042 -10.27935 -10.27912 -10.27752
 Alpha  occ. eigenvalues --  -10.27486 -10.27413 -10.27208 -10.27080 -10.27041
 Alpha  occ. eigenvalues --  -10.26966 -10.26920 -10.26882 -10.26823 -10.26815
 Alpha  occ. eigenvalues --  -10.26815 -10.26732 -10.26533 -10.26382 -10.26305
 Alpha  occ. eigenvalues --  -10.26163 -10.26078 -10.26051 -10.25726 -10.25675
 Alpha  occ. eigenvalues --  -10.25520 -10.25336 -10.25326 -10.25315 -10.24967
 Alpha  occ. eigenvalues --  -10.24874 -10.24333 -10.24257 -10.24041 -10.22918
 Alpha  occ. eigenvalues --  -10.16057  -3.17169  -3.15719  -1.92026  -1.91661
 Alpha  occ. eigenvalues --   -1.91489  -1.90602  -1.90188  -1.90028  -1.16591
 Alpha  occ. eigenvalues --   -1.15597  -1.11039  -1.08880  -1.07984  -1.07589
 Alpha  occ. eigenvalues --   -1.06556  -1.06479  -1.06057  -1.05190  -1.04997
 Alpha  occ. eigenvalues --   -1.03978  -1.03690  -1.03450  -1.02933  -1.02399
 Alpha  occ. eigenvalues --   -1.01451  -0.93718  -0.91492  -0.91301  -0.90377
 Alpha  occ. eigenvalues --   -0.89680  -0.89502  -0.88911  -0.88496  -0.87955
 Alpha  occ. eigenvalues --   -0.87735  -0.87629  -0.87168  -0.86608  -0.86537
 Alpha  occ. eigenvalues --   -0.85666  -0.84840  -0.83695  -0.83321  -0.83158
 Alpha  occ. eigenvalues --   -0.82613  -0.82436  -0.82312  -0.81709  -0.80947
 Alpha  occ. eigenvalues --   -0.80325  -0.79578  -0.79402  -0.78034  -0.77945
 Alpha  occ. eigenvalues --   -0.77381  -0.76664  -0.76409  -0.76126  -0.75560
 Alpha  occ. eigenvalues --   -0.74545  -0.73876  -0.73414  -0.72942  -0.71998
 Alpha  occ. eigenvalues --   -0.70928  -0.70415  -0.69481  -0.69266  -0.68470
 Alpha  occ. eigenvalues --   -0.68244  -0.67537  -0.67079  -0.66873  -0.65911
 Alpha  occ. eigenvalues --   -0.65706  -0.65339  -0.64251  -0.64177  -0.64088
 Alpha  occ. eigenvalues --   -0.63633  -0.62835  -0.62013  -0.61241  -0.60967
 Alpha  occ. eigenvalues --   -0.60454  -0.60211  -0.59773  -0.59642  -0.59176
 Alpha  occ. eigenvalues --   -0.58908  -0.58342  -0.57928  -0.57791  -0.57480
 Alpha  occ. eigenvalues --   -0.57017  -0.56776  -0.56557  -0.56428  -0.56333
 Alpha  occ. eigenvalues --   -0.55951  -0.55572  -0.55530  -0.54802  -0.54697
 Alpha  occ. eigenvalues --   -0.54567  -0.54339  -0.54133  -0.53850  -0.53597
 Alpha  occ. eigenvalues --   -0.53404  -0.53119  -0.53043  -0.52883  -0.52638
 Alpha  occ. eigenvalues --   -0.52527  -0.52257  -0.51975  -0.51951  -0.51824
 Alpha  occ. eigenvalues --   -0.51536  -0.51264  -0.51159  -0.50996  -0.50818
 Alpha  occ. eigenvalues --   -0.50373  -0.50225  -0.49989  -0.49947  -0.49826
 Alpha  occ. eigenvalues --   -0.49469  -0.49410  -0.49307  -0.49179  -0.49031
 Alpha  occ. eigenvalues --   -0.48780  -0.48693  -0.48502  -0.48487  -0.48459
 Alpha  occ. eigenvalues --   -0.48318  -0.48019  -0.47822  -0.47591  -0.47481
 Alpha  occ. eigenvalues --   -0.47214  -0.47045  -0.46861  -0.46654  -0.46486
 Alpha  occ. eigenvalues --   -0.46359  -0.46164  -0.45870  -0.45618  -0.45333
 Alpha  occ. eigenvalues --   -0.45225  -0.45148  -0.44992  -0.44799  -0.44571
 Alpha  occ. eigenvalues --   -0.44470  -0.44365  -0.44346  -0.44198  -0.43934
 Alpha  occ. eigenvalues --   -0.43805  -0.43644  -0.43407  -0.43388  -0.43279
 Alpha  occ. eigenvalues --   -0.43106  -0.42843  -0.42696  -0.42526  -0.42399
 Alpha  occ. eigenvalues --   -0.42253  -0.42100  -0.41992  -0.41934  -0.41736
 Alpha  occ. eigenvalues --   -0.41687  -0.41413  -0.41252  -0.41187  -0.41096
 Alpha  occ. eigenvalues --   -0.40892  -0.40572  -0.40528  -0.40404  -0.40275
 Alpha  occ. eigenvalues --   -0.40045  -0.39816  -0.39632  -0.38969  -0.38637
 Alpha  occ. eigenvalues --   -0.38176  -0.38077  -0.37688  -0.37522  -0.37411
 Alpha  occ. eigenvalues --   -0.36696  -0.36507  -0.36434  -0.36182  -0.35632
 Alpha  occ. eigenvalues --   -0.35081  -0.34098  -0.33607  -0.33273  -0.33051
 Alpha  occ. eigenvalues --   -0.32524  -0.32375  -0.31702  -0.30776  -0.30337
 Alpha  occ. eigenvalues --   -0.30302  -0.29886  -0.29690  -0.29287  -0.28710
 Alpha  occ. eigenvalues --   -0.28580  -0.25923  -0.25347  -0.23358  -0.20542
 Alpha  occ. eigenvalues --   -0.19687  -0.18169
 Alpha virt. eigenvalues --   -0.09740  -0.08149  -0.03398  -0.01020  -0.00591
 Alpha virt. eigenvalues --    0.00607   0.00721   0.02853   0.03496   0.03930
 Alpha virt. eigenvalues --    0.04736   0.05034   0.05682   0.05860   0.06035

 Mulliken charges:
               1
     1  Mg   0.742372
     2  C    0.008693
     3  C   -0.085737
     4  C   -0.060466
     5  C    0.001893
     6  N   -0.236881
     7  C   -0.059590
     8  C   -0.013242
     9  C   -0.086291
    10  C    0.041263
    11  C    0.104427
    12  C    0.052944
    13  C   -0.072534
    14  H    0.038744
    15  N   -0.431979
    16  C    0.169507
    17  C   -0.175666
    18  C   -0.004840
    19  C    0.154535
    20  C    0.110068
    21  C    0.009497
    22  O   -0.252833
    23  C    0.062487
    24  N   -0.326454
    25  C    0.012112
    26  C   -0.013578
    27  C   -0.013636
    28  C    0.231581
    29  C    0.095242
    30  C    0.043581
    31  C    0.773409
    32  N   -0.304170
    33  C   -0.037633
    34  C   -0.194463
    35  C    0.049082
    36  C    0.095775
    37  C    0.127635
    38  C    0.042905
    39  O   -0.178319
    40  C   -0.013112
    41  C    0.212244
    42  O   -0.246068
    43  O   -0.306305
    44  C    0.157190
    45  H   -0.014437
    46  H   -0.020095
    47  H   -0.048514
    48  H    0.001949
    49  H   -0.003078
    50  H    0.026424
    51  H    0.015870
    52  H    0.017845
    53  H    0.011574
    54  H    0.047544
    55  H    0.017632
    56  H    0.017868
    57  H    0.006893
    58  H    0.028185
    59  H    0.040937
    60  H    0.038055
    61  H    0.035003
    62  H    0.030278
    63  H    0.016013
    64  H    0.006413
    65  H    0.021992
    66  H    0.014264
    67  H    0.004635
    68  H    0.012173
    69  H    0.017496
    70  H    0.023248
    71  H    0.019178
    72  H   -0.171780
    73  H    0.055372
    74  H    0.018058
    75  H    0.037838
    76  H    0.036656
    77  H    0.043286
    78  H    0.045714
    79  H    0.056447
    80  Mg   0.834904
    81  C   -0.020995
    82  C   -0.089028
    83  C   -0.046791
    84  C   -0.067047
    85  N   -0.256099
    86  C   -0.027726
    87  C   -0.040254
    88  C   -0.089776
    89  C    0.049875
    90  C    0.117528
    91  C    0.095186
    92  C    0.216558
    93  H    0.119582
    94  N   -0.422837
    95  C    0.161392
    96  C   -0.176455
    97  C   -0.009794
    98  C    0.151309
    99  C    0.099340
   100  C    0.013823
   101  O   -0.255220
   102  C    0.062320
   103  N   -0.350299
   104  C    0.036602
   105  C   -0.019138
   106  C   -0.034765
   107  C    0.089567
   108  C    0.074311
   109  C    0.035164
   110  C   -0.007430
   111  N   -0.324542
   112  C    0.080026
   113  C   -0.162798
   114  C    0.002993
   115  C    0.096131
   116  C    0.131077
   117  C    0.044503
   118  O   -0.187564
   119  C    0.008073
   120  C    0.214617
   121  O   -0.243555
   122  O   -0.314085
   123  C    0.166939
   124  H   -0.019771
   125  H   -0.017727
   126  H   -0.042035
   127  H    0.003286
   128  H   -0.000043
   129  H    0.018550
   130  H    0.012443
   131  H    0.011893
   132  H    0.024523
   133  H    0.050029
   134  H   -1.121950
   135  H    0.048708
   136  H    0.010890
   137  H    0.024501
   138  H    0.034094
   139  H    0.037877
   140  H    0.034185
   141  H    0.031080
   142  H    0.012874
   143  H    0.011322
   144  H    0.023509
   145  H    0.011389
   146  H    0.004437
   147  H    0.004774
   148  H    0.003105
   149  H    0.009797
   150  H    0.016702
   151  H    0.031586
   152  H    0.047065
   153  H    0.007491
   154  H    0.045567
   155  H    0.030639
   156  H    0.028712
   157  H    0.006194
   158  H    0.078359
 Sum of Mulliken charges =  -0.00000

 Dipole moment (field-independent basis, Debye):
    X=             -3.7242    Y=              6.5448    Z=              2.2641  Tot=              7.8632
 Quadrupole moment (field-independent basis, Debye-Ang):
   XX=           -497.8295   YY=           -536.9290   ZZ=           -468.2726
   XY=            -29.5756   XZ=            -13.3296   YZ=             -5.9571

 Normal termination of Gaussian 16 at Wed Sep  8 22:54:52 2021.
