 Gaussian 16, Revision A.03,
 Gaussian 16:  ES64L-G16RevA.03 25-Dec-2016

 -----------------------------------
 #p cam-b3lyp/Def2SVP td=(nstates=5)
 -----------------------------------

 --------------------------------
 TDDFT excited states in gaussian
 --------------------------------
 Symbolic Z-matrix:
 Charge =  0 Multiplicity = 1

                         Standard orientation:
 ---------------------------------------------------------------------
 Center     Atomic      Atomic             Coordinates (Angstroms)
 Number     Number       Type             X           Y           Z
 ---------------------------------------------------------------------
      1         12           0       -5.197270   -0.767914    0.099312
      2          6           0       -5.391919    2.799807    0.313059
      3          6           0       -6.083572   -0.470881   -3.182350
      4          6           0       -5.475247   -3.925401    0.001185
      5          6           0       -5.446213   -0.842189    3.574678
      6          7           0       -5.651430    0.995005   -1.160252
      7          6           0       -5.631824    2.310964   -0.973068
      8          6           0       -5.815595    3.124952   -2.288752
      9          6           0       -6.573784    2.026331   -3.160635
     10          6           0       -6.045378    0.773131   -2.485207
     11          6           0       -8.090629    2.065662   -3.005278
     12          6           0       -4.447297    3.525700   -2.935972
     13          6           0       -4.530654    4.590166   -4.033841
     14          1           0       -3.453474    5.561434   -4.150762
     15          7           0       -5.225081   -2.004341   -1.441248
     16          6           0       -5.598358   -1.709446   -2.709706
     17          6           0       -5.443984   -2.961335   -3.481473
     18          6           0       -5.132283   -4.053959   -2.518608
     19          6           0       -5.292987   -3.367798   -1.262131
     20          6           0       -5.543914   -3.025034   -4.974693
     21          6           0       -4.760453   -5.491455   -2.701583
     22          8           0       -4.759233   -6.322656   -1.730153
     23          6           0       -4.479660   -5.926838   -4.081670
     24          7           0       -5.648134   -2.199516    1.550130
     25          6           0       -5.646382   -3.504311    1.256033
     26          6           0       -5.715173   -4.343858    2.497148
     27          6           0       -5.518749   -3.338703    3.722234
     28          6           0       -5.448964   -2.010536    2.928903
     29          6           0       -7.011525   -5.141704    2.694437
     30          6           0       -4.379467   -3.661847    4.721250
     31          6           0       -3.038758   -3.500297    4.040444
     32          7           0       -5.208517    0.697185    1.700687
     33          6           0       -5.344747    0.444794    3.073427
     34          6           0       -5.403941    1.753777    3.749538
     35          6           0       -5.314116    2.682830    2.714821
     36          6           0       -5.232105    1.997735    1.468944
     37          6           0       -5.583868    1.963437    5.145282
     38          6           0       -5.293144    4.095080    2.369908
     39          8           0       -5.239396    5.144168    3.013351
     40          6           0       -5.465397    4.228215    0.792432
     41          6           0       -4.418198    5.189780    0.300421
     42          8           0       -3.206128    4.897297    0.352454
     43          8           0       -5.012402    6.191382   -0.366105
     44          6           0       -4.026986    7.165665   -0.906365
     45          1           0       -6.581882   -0.517090   -4.152655
     46          1           0       -5.465265   -5.017123    0.023093
     47          1           0       -5.438490   -0.787104    4.664797
     48          1           0       -6.436925    4.015178   -2.189405
     49          1           0       -6.265469    2.052287   -4.205618
     50          1           0       -8.392896    2.759049   -2.220568
     51          1           0       -8.383276    1.047685   -2.747261
     52          1           0       -8.572175    2.283258   -3.958977
     53          1           0       -4.066227    2.687295   -3.519003
     54          1           0       -3.739582    3.850093   -2.172273
     55          1           0       -5.498674    5.091992   -4.029766
     56          1           0       -4.489997    4.087845   -5.000392
     57          1           0       -5.944360   -2.100657   -5.389078
     58          1           0       -6.296103   -3.777206   -5.211669
     59          1           0       -4.595037   -3.295217   -5.438337
     60          1           0       -5.357931   -5.746121   -4.701775
     61          1           0       -4.144588   -6.960869   -4.008476
     62          1           0       -3.681871   -5.307082   -4.492015
     63          1           0       -4.917632   -5.085564    2.512246
     64          1           0       -6.410194   -3.275945    4.346783
     65          1           0       -6.853017   -6.215009    2.802123
     66          1           0       -7.671073   -4.926150    1.854304
     67          1           0       -7.622362   -4.820084    3.537560
     68          1           0       -4.448186   -4.697402    5.052685
     69          1           0       -4.392195   -3.028223    5.608161
     70          1           0       -2.905631   -4.456165    3.535048
     71          1           0       -2.253946   -3.336934    4.779764
     72          1           0       -3.072916   -2.727513    3.272249
     73          1           0       -4.882813    2.748403    5.428690
     74          1           0       -5.403643    1.048724    5.709572
     75          1           0       -6.629358    2.270331    5.170253
     76          1           0       -6.475245    4.597971    0.617473
     77          1           0       -4.303857    8.148006   -0.523504
     78          1           0       -4.016669    7.028596   -1.987805
     79          1           0       -3.006976    7.078299   -0.530485
     80         12           0        5.393607   -0.785827    0.054765
     81          6           0        5.038675    2.779740    0.254295
     82          6           0        4.653696   -0.523956   -3.264658
     83          6           0        5.255192   -3.953553   -0.062626
     84          6           0        4.974391   -0.881825    3.513192
     85          7           0        4.926200    0.957335   -1.223965
     86          6           0        4.881015    2.269769   -1.051279
     87          6           0        4.734100    3.086436   -2.363159
     88          6           0        4.058419    1.952572   -3.277870
     89          6           0        4.603837    0.712461   -2.572650
     90          6           0        2.541917    1.927614   -3.183294
     91          6           0        6.119568    3.541522   -2.942271
     92          6           0        6.039411    4.599101   -4.045375
     93          1           0        7.086206    5.615041   -4.113001
     94          7           0        5.495333   -2.019142   -1.496740
     95          6           0        5.178587   -1.741692   -2.778911
     96          6           0        5.405852   -2.987214   -3.528034
     97          6           0        5.724841   -4.067806   -2.555778
     98          6           0        5.478347   -3.378383   -1.305171
     99          6           0        5.389698   -3.049212   -5.027808
    100          6           0        6.164957   -5.490552   -2.724006
    101          8           0        6.154354   -6.318792   -1.745883
    102          6           0        6.519864   -5.910125   -4.087642
    103          7           0        4.940133   -2.231071    1.478837
    104          6           0        5.005031   -3.540418    1.179971
    105          6           0        4.907865   -4.389564    2.424922
    106          6           0        5.007604   -3.367536    3.650927
    107          6           0        5.057722   -2.037188    2.867946
    108          6           0        3.635831   -5.225928    2.562101
    109          6           0        6.109940   -3.644002    4.709746
    110          6           0        7.476796   -3.438374    4.097528
    111          7           0        5.249818    0.669595    1.645088
    112          6           0        5.050188    0.414289    3.019517
    113          6           0        4.904633    1.723217    3.688811
    114          6           0        5.007502    2.655819    2.645662
    115          6           0        5.183141    1.975343    1.410509
    116          6           0        4.659000    1.925357    5.076226
    117          6           0        4.996810    4.060796    2.307135
    118          8           0        4.968952    5.109171    2.950467
    119          6           0        4.889885    4.199151    0.727316
    120          6           0        5.919802    5.199039    0.277851
    121          8           0        7.133096    4.955897    0.401933
    122          8           0        5.310862    6.176097   -0.418515
    123          6           0        6.292701    7.186372   -0.895116
    124          1           0        4.211158   -0.579873   -4.259597
    125          1           0        5.308462   -5.044277   -0.031535
    126          1           0        4.938771   -0.823152    4.603130
    127          1           0        4.078728    3.946208   -2.292041
    128          1           0        4.423080    2.000933   -4.300626
    129          1           0        2.174488    2.601321   -2.423510
    130          1           0        2.278980    0.905951   -2.942257
    131          1           0        2.099745    2.129472   -4.163123
    132          1           0        6.560663    2.711664   -3.509287
    133          1           0        6.765818    3.885435   -2.158226
    134          1           0        5.047845    5.064849   -4.098615
    135          1           0        6.154271    4.102023   -5.011686
    136          1           0        4.964750   -2.136562   -5.463572
    137          1           0        4.683290   -3.838231   -5.307642
    138          1           0        6.368738   -3.285317   -5.450188
    139          1           0        5.667063   -5.759524   -4.745287
    140          1           0        6.893885   -6.931238   -3.991179
    141          1           0        7.320595   -5.259495   -4.456617
    142          1           0        5.733470   -5.088303    2.481849
    143          1           0        4.080537   -3.349218    4.242579
    144          1           0        3.835288   -6.308031    2.677571
    145          1           0        3.012919   -5.044342    1.696339
    146          1           0        2.980483   -4.938626    3.382578
    147          1           0        6.069342   -4.686330    5.035424
    148          1           0        6.021534   -3.025763    5.596849
    149          1           0        7.668313   -4.391532    3.595619
    150          1           0        8.217416   -3.243561    4.870557
    151          1           0        7.449620   -2.659513    3.326625
    152          1           0        5.305651    2.733046    5.392457
    153          1           0        4.844424    1.019083    5.648995
    154          1           0        3.597234    2.184697    5.050563
    155          1           0        3.875037    4.524135    0.494860
    156          1           0        5.953823    8.159691   -0.527010
    157          1           0        6.348636    7.054321   -1.992016
    158          1           0        7.295264    7.142871   -0.485928
 ---------------------------------------------------------------------

 SCF Done:  E(RCAM-B3LYP) =  -4069.81137274     A.U. after   19 cycles

 Excitation energies and oscillator strengths:

 Excited State   1:      Singlet-A      1.6568 eV  748.33 nm  f=0.0033  <S**2>=0.000
     309 -> 315       -0.11378
     310 -> 316        0.12507
     311 -> 313       -0.46053
     312 -> 314        0.50999
 This state for optimization and/or second-order correction.
 Total Energy, E(TD-HF/TD-DFT) =  -4069.75048582
 Copying the excited state density for this state as the 1-particle RhoCI density.

 Excited State   2:      Singlet-A      1.6970 eV  730.60 nm  f=0.7171  <S**2>=0.000
     309 -> 315        0.13366
     310 -> 316        0.11980
     311 -> 313        0.50807
     312 -> 314        0.45888

 Excited State   3:      Singlet-A      2.1827 eV  568.02 nm  f=0.0213  <S**2>=0.000
     309 -> 313       -0.27815
     310 -> 314        0.58079
     311 -> 315        0.11611
     312 -> 316       -0.24402

 Excited State   4:      Singlet-A      2.1947 eV  564.93 nm  f=0.1598  <S**2>=0.000
     309 -> 313        0.57714
     310 -> 314        0.27496
     311 -> 315       -0.25324
     312 -> 316       -0.12162

 Excited State   5:      Singlet-A      2.4857 eV  498.79 nm  f=0.0000  <S**2>=0.000
     312 -> 313        0.70710

 The electronic state is 1-A.
 Alpha  occ. eigenvalues --  -46.87867 -46.87482 -19.26324 -19.26152 -19.19061
 Alpha  occ. eigenvalues --  -19.18965 -19.18875 -19.18571 -19.18205 -19.17820
 Alpha  occ. eigenvalues --  -14.42526 -14.42321 -14.41518 -14.41184 -14.39473
 Alpha  occ. eigenvalues --  -14.39178 -14.38651 -14.38412 -10.39123 -10.38889
 Alpha  occ. eigenvalues --  -10.35510 -10.35253 -10.34426 -10.33994 -10.31714
 Alpha  occ. eigenvalues --  -10.31588 -10.31478 -10.31121 -10.30989 -10.30852
 Alpha  occ. eigenvalues --  -10.30636 -10.30569 -10.30279 -10.30213 -10.30172
 Alpha  occ. eigenvalues --  -10.29987 -10.29980 -10.29711 -10.29694 -10.29324
 Alpha  occ. eigenvalues --  -10.29272 -10.29222 -10.28851 -10.28696 -10.28545
 Alpha  occ. eigenvalues --  -10.28542 -10.28432 -10.28219 -10.28210 -10.27966
 Alpha  occ. eigenvalues --  -10.27853 -10.27815 -10.27803 -10.27651 -10.27580
 Alpha  occ. eigenvalues --  -10.27568 -10.27509 -10.27502 -10.27472 -10.27377
 Alpha  occ. eigenvalues --  -10.27364 -10.27297 -10.27295 -10.27224 -10.27207
 Alpha  occ. eigenvalues --  -10.26846 -10.26804 -10.26552 -10.26484 -10.26314
 Alpha  occ. eigenvalues --  -10.26313 -10.26260 -10.26087 -10.26018 -10.25874
 Alpha  occ. eigenvalues --  -10.25816 -10.25765 -10.25628 -10.25486 -10.25244
 Alpha  occ. eigenvalues --  -10.24889 -10.24852 -10.24778 -10.24676 -10.24614
 Alpha  occ. eigenvalues --  -10.24512  -3.16610  -3.16232  -1.91491  -1.91114
 Alpha  occ. eigenvalues --   -1.91078  -1.90920  -1.90703  -1.90540  -1.16673
 Alpha  occ. eigenvalues --   -1.16446  -1.08660  -1.08420  -1.07275  -1.06826
 Alpha  occ. eigenvalues --   -1.06748  -1.06683  -1.04656  -1.04316  -1.03830
 Alpha  occ. eigenvalues --   -1.03486  -1.03300  -1.02862  -1.02478  -1.01930
 Alpha  occ. eigenvalues --   -0.92034  -0.91788  -0.89588  -0.89331  -0.89284
 Alpha  occ. eigenvalues --   -0.88979  -0.88354  -0.88064  -0.87924  -0.87753
 Alpha  occ. eigenvalues --   -0.87596  -0.87515  -0.87348  -0.86975  -0.85074
 Alpha  occ. eigenvalues --   -0.84835  -0.84002  -0.83721  -0.83039  -0.82799
 Alpha  occ. eigenvalues --   -0.82729  -0.82491  -0.81643  -0.81413  -0.80662
 Alpha  occ. eigenvalues --   -0.80268  -0.78867  -0.78472  -0.77296  -0.77013
 Alpha  occ. eigenvalues --   -0.76982  -0.76731  -0.75993  -0.75658  -0.74961
 Alpha  occ. eigenvalues --   -0.74639  -0.72840  -0.72520  -0.71740  -0.71403
 Alpha  occ. eigenvalues --   -0.69980  -0.69615  -0.68958  -0.68662  -0.67707
 Alpha  occ. eigenvalues --   -0.67428  -0.67321  -0.67053  -0.65373  -0.65098
 Alpha  occ. eigenvalues --   -0.64918  -0.64692  -0.64596  -0.64481  -0.64337
 Alpha  occ. eigenvalues --   -0.64043  -0.62349  -0.62095  -0.60512  -0.60185
 Alpha  occ. eigenvalues --   -0.59889  -0.59620  -0.59053  -0.58815  -0.58567
 Alpha  occ. eigenvalues --   -0.58245  -0.57635  -0.57371  -0.57341  -0.57065
 Alpha  occ. eigenvalues --   -0.56374  -0.56038  -0.56031  -0.55710  -0.55587
 Alpha  occ. eigenvalues --   -0.55398  -0.55288  -0.55078  -0.54580  -0.54319
 Alpha  occ. eigenvalues --   -0.53990  -0.53745  -0.53366  -0.53301  -0.53064
 Alpha  occ. eigenvalues --   -0.52979  -0.52975  -0.52838  -0.52733  -0.52530
 Alpha  occ. eigenvalues --   -0.52511  -0.52261  -0.51959  -0.51705  -0.51672
 Alpha  occ. eigenvalues --   -0.51500  -0.51258  -0.51018  -0.50655  -0.50351
 Alpha  occ. eigenvalues --   -0.50106  -0.49994  -0.49822  -0.49715  -0.49593
 Alpha  occ. eigenvalues --   -0.49329  -0.49278  -0.49174  -0.49023  -0.48915
 Alpha  occ. eigenvalues --   -0.48653  -0.48524  -0.48501  -0.48377  -0.48215
 Alpha  occ. eigenvalues --   -0.48177  -0.47769  -0.47435  -0.47365  -0.46965
 Alpha  occ. eigenvalues --   -0.46870  -0.46647  -0.46544  -0.46424  -0.46394
 Alpha  occ. eigenvalues --   -0.46220  -0.46106  -0.45904  -0.45874  -0.45629
 Alpha  occ. eigenvalues --   -0.45266  -0.45045  -0.44633  -0.44589  -0.44336
 Alpha  occ. eigenvalues --   -0.44310  -0.44215  -0.44173  -0.44079  -0.43951
 Alpha  occ. eigenvalues --   -0.43923  -0.43769  -0.43549  -0.43465  -0.43376
 Alpha  occ. eigenvalues --   -0.43212  -0.43091  -0.42757  -0.42750  -0.42712
 Alpha  occ. eigenvalues --   -0.42709  -0.42403  -0.42085  -0.41809  -0.41766
 Alpha  occ. eigenvalues --   -0.41626  -0.41474  -0.41300  -0.41212  -0.40959
 Alpha  occ. eigenvalues --   -0.40901  -0.40813  -0.40641  -0.40580  -0.40546
 Alpha  occ. eigenvalues --   -0.40353  -0.40333  -0.40083  -0.39518  -0.39287
 Alpha  occ. eigenvalues --   -0.38544  -0.38196  -0.37858  -0.37505  -0.37391
 Alpha  occ. eigenvalues --   -0.37352  -0.37104  -0.37030  -0.36764  -0.36587
 Alpha  occ. eigenvalues --   -0.36255  -0.36048  -0.34353  -0.34073  -0.33816
 Alpha  occ. eigenvalues --   -0.33668  -0.33251  -0.32998  -0.31405  -0.31129
 Alpha  occ. eigenvalues --   -0.31103  -0.30794  -0.30064  -0.29721  -0.29515
 Alpha  occ. eigenvalues --   -0.29379  -0.29158  -0.29012  -0.24149  -0.23853
 Alpha  occ. eigenvalues --   -0.21196  -0.20940
 Alpha virt. eigenvalues --   -0.08840  -0.08612  -0.01819  -0.01512  -0.00125
 Alpha virt. eigenvalues --    0.00137   0.02150   0.02413   0.03031   0.03392
 Alpha virt. eigenvalues --    0.04630   0.04899   0.05054   0.05367   0.06060

 Mulliken charges:
               1
     1  Mg   0.838554
     2  C   -0.003106
     3  C   -0.094738
     4  C   -0.045668
     5  C   -0.063905
     6  N   -0.256693
     7  C   -0.052689
     8  C   -0.013867
     9  C   -0.086900
    10  C    0.046054
    11  C    0.104802
    12  C    0.053738
    13  C   -0.071410
    14  H    0.035108
    15  N   -0.433126
    16  C    0.168205
    17  C   -0.177568
    18  C   -0.003993
    19  C    0.148664
    20  C    0.110279
    21  C    0.012443
    22  O   -0.249216
    23  C    0.062559
    24  N   -0.341114
    25  C    0.041134
    26  C   -0.028235
    27  C   -0.024007
    28  C    0.074870
    29  C    0.076092
    30  C    0.035118
    31  C   -0.004487
    32  N   -0.310575
    33  C    0.080532
    34  C   -0.169375
    35  C    0.008724
    36  C    0.083062
    37  C    0.127177
    38  C    0.046570
    39  O   -0.187393
    40  C   -0.005509
    41  C    0.213199
    42  O   -0.257093
    43  O   -0.304856
    44  C    0.157356
    45  H   -0.017772
    46  H   -0.016642
    47  H   -0.041304
    48  H    0.001249
    49  H   -0.004589
    50  H    0.025693
    51  H    0.016626
    52  H    0.016601
    53  H    0.010132
    54  H    0.043879
    55  H    0.018537
    56  H    0.017332
    57  H    0.005540
    58  H    0.027005
    59  H    0.038590
    60  H    0.037252
    61  H    0.036059
    62  H    0.030785
    63  H    0.016659
    64  H    0.009666
    65  H    0.023380
    66  H    0.012606
    67  H    0.004855
    68  H    0.006450
    69  H    0.004801
    70  H    0.008932
    71  H    0.017200
    72  H    0.029285
    73  H    0.048347
    74  H    0.009067
    75  H    0.046197
    76  H    0.035263
    77  H    0.043606
    78  H    0.045651
    79  H    0.054344
    80  Mg   0.837988
    81  C   -0.016276
    82  C   -0.088021
    83  C   -0.045563
    84  C   -0.064861
    85  N   -0.254513
    86  C   -0.048954
    87  C   -0.015162
    88  C   -0.090754
    89  C    0.045958
    90  C    0.114046
    91  C    0.062615
    92  C   -0.077438
    93  H    0.034338
    94  N   -0.423388
    95  C    0.162758
    96  C   -0.175305
    97  C   -0.008085
    98  C    0.151882
    99  C    0.099723
   100  C    0.015287
   101  O   -0.253404
   102  C    0.061371
   103  N   -0.349994
   104  C    0.037423
   105  C   -0.019761
   106  C   -0.034732
   107  C    0.089181
   108  C    0.073741
   109  C    0.034769
   110  C   -0.007580
   111  N   -0.324412
   112  C    0.078980
   113  C   -0.162525
   114  C    0.003417
   115  C    0.096141
   116  C    0.131070
   117  C    0.043816
   118  O   -0.186751
   119  C    0.000204
   120  C    0.210955
   121  O   -0.251644
   122  O   -0.305028
   123  C    0.152244
   124  H   -0.020893
   125  H   -0.015838
   126  H   -0.040646
   127  H    0.000316
   128  H   -0.005448
   129  H    0.026369
   130  H    0.014017
   131  H    0.014138
   132  H    0.013541
   133  H    0.037679
   134  H    0.020648
   135  H    0.018921
   136  H    0.007963
   137  H    0.025023
   138  H    0.039244
   139  H    0.037690
   140  H    0.036008
   141  H    0.033631
   142  H    0.014031
   143  H    0.012102
   144  H    0.024810
   145  H    0.012383
   146  H    0.005135
   147  H    0.005858
   148  H    0.003466
   149  H    0.010788
   150  H    0.017636
   151  H    0.030305
   152  H    0.045842
   153  H    0.007732
   154  H    0.049246
   155  H    0.038562
   156  H    0.043920
   157  H    0.048854
   158  H    0.053209
 Sum of Mulliken charges =  -0.00000

 Dipole moment (field-independent basis, Debye):
    X=             -3.9345    Y=             -2.2294    Z=             -7.4844  Tot=              8.7445
 Quadrupole moment (field-independent basis, Debye-Ang):
   XX=           -515.5697   YY=           -551.8456   ZZ=           -447.9559
   XY=             -3.1353   XZ=             -0.5333   YZ=            -48.3075

 Normal termination of Gaussian 16 at Fri Sep 10 23:03:48 2021.
