 Gaussian 16, Revision A.03,
 Gaussian 16:  ES64L-G16RevA.03 25-Dec-2016

 -----------------------------------
 #p cam-b3lyp/Def2SVP td=(nstates=5)
 -----------------------------------

 --------------------------------
 TDDFT excited states in gaussian
 --------------------------------
 Symbolic Z-matrix:
 Charge =  0 Multiplicity = 1

                         Standard orientation:
 ---------------------------------------------------------------------
 Center     Atomic      Atomic             Coordinates (Angstroms)
 Number     Number       Type             X           Y           Z
 ---------------------------------------------------------------------
      1         12           0        5.033839   -1.340311   -0.090538
      2          6           0        6.141242    2.053388   -0.352610
      3          6           0        6.031733   -1.257626    3.171430
      4          6           0        4.486768   -4.461143    0.042656
      5          6           0        5.186084   -1.503480   -3.568448
      6          7           0        5.953818    0.254451    1.138698
      7          6           0        6.271869    1.529063    0.935281
      8          6           0        6.686170    2.277814    2.237241
      9          6           0        7.151219    1.027061    3.109791
     10          6           0        6.303091   -0.051639    2.459398
     11          6           0        8.623140    0.670848    2.927959
     12          6           0        5.481392    3.024391    2.902721
     13          6           0        5.859251    4.039389    3.985475
     14          1           0        5.072794    5.257452    4.108583
     15          7           0        4.771146   -2.529746    1.464802
     16          6           0        5.233126   -2.331811    2.722849
     17          6           0        4.775246   -3.494936    3.512891
     18          6           0        4.172262   -4.476921    2.569382
     19          6           0        4.480177   -3.865586    1.301772
     20          6           0        4.884873   -3.570776    5.004863
     21          6           0        3.444652   -5.767533    2.776838
     22          8           0        3.209012   -6.577538    1.816141
     23          6           0        3.088144   -6.104590    4.166923
     24          7           0        5.069827   -2.851042   -1.530688
     25          6           0        4.736163   -4.108509   -1.220158
     26          6           0        4.560622   -4.946804   -2.451574
     27          6           0        4.606868   -3.934606   -3.685701
     28          6           0        4.899068   -2.627604   -2.908119
     29          6           0        5.602039   -6.054780   -2.660979
     30          6           0        3.403186   -3.959274   -4.660873
     31          6           0        2.163789   -3.450607   -3.959268
     32          7           0        5.392248    0.059391   -1.710237
     33          6           0        5.431235   -0.230309   -3.081816
     34          6           0        5.813879    1.013361   -3.775312
     35          6           0        5.988186    1.941952   -2.751017
     36          6           0        5.756330    1.311176   -1.495367
     37          6           0        6.014231    1.158421   -5.176472
     38          6           0        6.340401    3.314043   -2.423649
     39          8           0        6.547338    4.336214   -3.079267
     40          6           0        6.572502    3.410224   -0.851165
     41          6           0        5.819924    4.614055   -0.353445
     42          8           0        4.572672    4.645198   -0.380987
     43          8           0        6.666279    5.432639    0.290096
     44          6           0        5.977614    6.633120    0.834836
     45          1           0        6.520234   -1.423842    4.133553
     46          1           0        4.194050   -5.513137    0.034705
     47          1           0        5.171266   -1.456724   -4.658883
     48          1           0        7.514695    2.975866    2.116023
     49          1           0        6.880925    1.140110    4.159497
     50          1           0        9.078991    1.256142    2.129491
     51          1           0        8.637082   -0.390159    2.677831
     52          1           0        9.163421    0.763636    3.870437
     53          1           0        4.907897    2.317890    3.502738
     54          1           0        4.866788    3.515139    2.147238
     55          1           0        6.923910    4.273230    3.958465
     56          1           0        5.709111    3.572260    4.958845
     57          1           0        5.519121   -2.778531    5.400618
     58          1           0        5.421230   -4.490287    5.238380
     59          1           0        3.907788   -3.582289    5.488086
     60          1           0        3.995378   -6.152793    4.769544
     61          1           0        2.495406   -7.017034    4.112545
     62          1           0        2.486309   -5.296137    4.583034
     63          1           0        3.598112   -5.456644   -2.443628
     64          1           0        5.471598   -4.109795   -4.326189
     65          1           0        5.168957   -7.051169   -2.752374
     66          1           0        6.311435   -6.010963   -1.835068
     67          1           0        6.258469   -5.908946   -3.518446
     68          1           0        3.194873   -4.979809   -4.980340
     69          1           0        3.561928   -3.357477   -5.555799
     70          1           0        1.797782   -4.335398   -3.439637
     71          1           0        1.433525   -3.095222   -4.687023
     72          1           0        2.412082   -2.707132   -3.201587
     73          1           0        5.534825    2.095997   -5.457701
     74          1           0        5.592180    0.317292   -5.725997
     75          1           0        7.102821    1.183759   -5.223241
     76          1           0        7.646911    3.507060   -0.698232
     77          1           0        6.491720    7.507186    0.434913
     78          1           0        5.953614    6.511790    1.917937
     79          1           0        4.962515    6.810099    0.477637
     80         12           0       -5.199150    1.380968    0.121824
     81          6           0       -5.918032   -2.132282    0.261028
     82          6           0       -4.476917    0.950189   -3.183843
     83          6           0       -4.128794    4.367421    0.068587
     84          6           0       -4.867197    1.309128    3.590309
     85          7           0       -5.231425   -0.407696   -1.178906
     86          6           0       -5.580434   -1.676754   -1.030459
     87          6           0       -5.644437   -2.485262   -2.354012
     88          6           0       -4.638913   -1.591325   -3.230739
     89          6           0       -4.813555   -0.253589   -2.514748
     90          6           0       -3.185857   -2.016741   -3.100323
     91          6           0       -7.085736   -2.503910   -2.973934
     92          6           0       -7.290436   -3.525227   -4.094994
     93          1           0       -8.588114   -4.185582   -4.206544
     94          7           0       -4.888903    2.606946   -1.407645
     95          6           0       -4.632413    2.263007   -2.687171
     96          6           0       -4.460922    3.528559   -3.417325
     97          6           0       -4.473862    4.643934   -2.432195
     98          6           0       -4.476902    3.898166   -1.189657
     99          6           0       -4.385234    3.600192   -4.914845
    100          6           0       -4.469597    6.135032   -2.583280
    101          8           0       -4.242400    6.911874   -1.589439
    102          6           0       -4.646575    6.656347   -3.946511
    103          7           0       -4.379368    2.611213    1.583604
    104          6           0       -4.046567    3.884594    1.308516
    105          6           0       -3.738000    4.652769    2.571487
    106          6           0       -4.169181    3.691880    3.774962
    107          6           0       -4.587751    2.444831    2.965597
    108          6           0       -2.280151    5.074220    2.754363
    109          6           0       -5.170000    4.269610    4.812881
    110          6           0       -6.518967    4.484151    4.165081
    111          7           0       -5.535844   -0.070071    1.686809
    112          6           0       -5.308302    0.099053    3.070171
    113          6           0       -5.574306   -1.202002    3.717414
    114          6           0       -5.918600   -2.050524    2.654422
    115          6           0       -5.850966   -1.334429    1.428800
    116          6           0       -5.438193   -1.483597    5.106046
    117          6           0       -6.313560   -3.391937    2.289293
    118          8           0       -6.614360   -4.409017    2.912836
    119          6           0       -6.208078   -3.537589    0.710037
    120          6           0       -7.474212   -4.183236    0.217525
    121          8           0       -8.564684   -3.593815    0.317896
    122          8           0       -7.161520   -5.288552   -0.483081
    123          6           0       -8.384049   -5.958015   -1.001804
    124          1           0       -4.009920    0.884227   -4.166918
    125          1           0       -3.858637    5.424730    0.119381
    126          1           0       -4.880982    1.230062    4.679443
    127          1           0       -5.274259   -3.501077   -2.284144
    128          1           0       -4.972834   -1.518033   -4.262479
    129          1           0       -3.055034   -2.777594   -2.345265
    130          1           0       -2.639967   -1.121236   -2.833636
    131          1           0       -2.795719   -2.329006   -4.073271
    132          1           0       -7.246230   -1.574323   -3.535046
    133          1           0       -7.826367   -2.650443   -2.211951
    134          1           0       -6.479415   -4.262559   -4.134018
    135          1           0       -7.226397   -3.005368   -5.053981
    136          1           0       -4.236537    2.607782   -5.358029
    137          1           0       -3.469894    4.148360   -5.162891
    138          1           0       -5.238770    4.119908   -5.355347
    139          1           0       -3.858149    6.267987   -4.586848
    140          1           0       -4.705127    7.741215   -3.839207
    141          1           0       -5.593001    6.275692   -4.346510
    142          1           0       -4.321862    5.563585    2.622545
    143          1           0       -3.305751    3.393621    4.387633
    144          1           0       -2.154513    6.165534    2.885924
    145          1           0       -1.714602    4.726593    1.900047
    146          1           0       -1.762004    4.596695    3.584241
    147          1           0       -4.832719    5.249579    5.159375
    148          1           0       -5.292843    3.642736    5.689758
    149          1           0       -6.406526    5.457008    3.677240
    150          1           0       -7.305415    4.508061    4.916725
    151          1           0       -6.701309    3.740930    3.380204
    152          1           0       -6.302978   -2.067674    5.391507
    153          1           0       -5.363837   -0.569630    5.691635
    154          1           0       -4.499972   -2.044824    5.100200
    155          1           0       -5.328254   -4.145281    0.495134
    156          1           0       -8.357958   -6.992151   -0.644656
    157          1           0       -8.367813   -5.802765   -2.096964
    158          1           0       -9.340152   -5.624867   -0.615364
 ---------------------------------------------------------------------

 SCF Done:  E(RCAM-B3LYP) =  -4069.81165701     A.U. after   19 cycles

 Excitation energies and oscillator strengths:

 Excited State   1:      Singlet-A      1.6573 eV  748.11 nm  f=0.0047  <S**2>=0.000
     309 -> 315        0.11249
     310 -> 316        0.12671
     311 -> 313        0.45531
     312 -> 314        0.51465
 This state for optimization and/or second-order correction.
 Total Energy, E(TD-HF/TD-DFT) =  -4069.75075240
 Copying the excited state density for this state as the 1-particle RhoCI density.

 Excited State   2:      Singlet-A      1.6976 eV  730.35 nm  f=0.7157  <S**2>=0.000
     309 -> 315        0.13489
     310 -> 316       -0.11893
     311 -> 313        0.51274
     312 -> 314       -0.45367

 Excited State   3:      Singlet-A      2.1842 eV  567.65 nm  f=0.0195  <S**2>=0.000
     309 -> 313        0.28777
     310 -> 314        0.57625
     311 -> 315       -0.12028
     312 -> 316       -0.24223

 Excited State   4:      Singlet-A      2.1956 eV  564.70 nm  f=0.1614  <S**2>=0.000
     309 -> 313        0.57252
     310 -> 314       -0.28468
     311 -> 315       -0.25113
     312 -> 316        0.12579

 Excited State   5:      Singlet-A      2.4871 eV  498.52 nm  f=0.0000  <S**2>=0.000
     312 -> 313        0.70710

 The electronic state is 1-A.
 Alpha  occ. eigenvalues --  -46.87878 -46.87493 -19.26319 -19.26229 -19.19059
 Alpha  occ. eigenvalues --  -19.19037 -19.18843 -19.18509 -19.18237 -19.17905
 Alpha  occ. eigenvalues --  -14.42528 -14.42332 -14.41538 -14.41193 -14.39477
 Alpha  occ. eigenvalues --  -14.39178 -14.38669 -14.38440 -10.39122 -10.38963
 Alpha  occ. eigenvalues --  -10.35472 -10.35184 -10.34457 -10.34084 -10.31699
 Alpha  occ. eigenvalues --  -10.31651 -10.31486 -10.31159 -10.30973 -10.30848
 Alpha  occ. eigenvalues --  -10.30653 -10.30589 -10.30297 -10.30234 -10.30208
 Alpha  occ. eigenvalues --  -10.30018 -10.29967 -10.29734 -10.29705 -10.29329
 Alpha  occ. eigenvalues --  -10.29259 -10.29239 -10.28812 -10.28597 -10.28571
 Alpha  occ. eigenvalues --  -10.28547 -10.28434 -10.28233 -10.28182 -10.27992
 Alpha  occ. eigenvalues --  -10.27868 -10.27837 -10.27805 -10.27651 -10.27637
 Alpha  occ. eigenvalues --  -10.27569 -10.27521 -10.27503 -10.27477 -10.27376
 Alpha  occ. eigenvalues --  -10.27318 -10.27293 -10.27263 -10.27218 -10.27206
 Alpha  occ. eigenvalues --  -10.26901 -10.26768 -10.26565 -10.26387 -10.26385
 Alpha  occ. eigenvalues --  -10.26293 -10.26192 -10.26117 -10.26034 -10.25958
 Alpha  occ. eigenvalues --  -10.25866 -10.25783 -10.25767 -10.25536 -10.25173
 Alpha  occ. eigenvalues --  -10.24946 -10.24908 -10.24870 -10.24714 -10.24629
 Alpha  occ. eigenvalues --  -10.24512  -3.16621  -3.16243  -1.91502  -1.91125
 Alpha  occ. eigenvalues --   -1.91089  -1.90931  -1.90714  -1.90551  -1.16669
 Alpha  occ. eigenvalues --   -1.16522  -1.08694  -1.08517  -1.07241  -1.06821
 Alpha  occ. eigenvalues --   -1.06757  -1.06682  -1.04657  -1.04330  -1.03845
 Alpha  occ. eigenvalues --   -1.03496  -1.03314  -1.02873  -1.02493  -1.01946
 Alpha  occ. eigenvalues --   -0.92045  -0.91829  -0.89640  -0.89344  -0.89256
 Alpha  occ. eigenvalues --   -0.89004  -0.88402  -0.88063  -0.87959  -0.87752
 Alpha  occ. eigenvalues --   -0.87659  -0.87525  -0.87324  -0.86931  -0.85051
 Alpha  occ. eigenvalues --   -0.84848  -0.84067  -0.83723  -0.83018  -0.82743
 Alpha  occ. eigenvalues --   -0.82707  -0.82490  -0.81649  -0.81459  -0.80661
 Alpha  occ. eigenvalues --   -0.80288  -0.78862  -0.78466  -0.77311  -0.77012
 Alpha  occ. eigenvalues --   -0.76994  -0.76753  -0.75990  -0.75689  -0.74998
 Alpha  occ. eigenvalues --   -0.74633  -0.72862  -0.72545  -0.71751  -0.71415
 Alpha  occ. eigenvalues --   -0.70062  -0.69619  -0.68941  -0.68675  -0.67711
 Alpha  occ. eigenvalues --   -0.67440  -0.67276  -0.67043  -0.65360  -0.65124
 Alpha  occ. eigenvalues --   -0.64934  -0.64702  -0.64617  -0.64504  -0.64379
 Alpha  occ. eigenvalues --   -0.64052  -0.62360  -0.62140  -0.60509  -0.60160
 Alpha  occ. eigenvalues --   -0.59874  -0.59644  -0.59071  -0.58834  -0.58583
 Alpha  occ. eigenvalues --   -0.58269  -0.57649  -0.57413  -0.57391  -0.57074
 Alpha  occ. eigenvalues --   -0.56382  -0.56052  -0.56029  -0.55747  -0.55579
 Alpha  occ. eigenvalues --   -0.55441  -0.55288  -0.55101  -0.54614  -0.54346
 Alpha  occ. eigenvalues --   -0.53961  -0.53765  -0.53376  -0.53273  -0.53072
 Alpha  occ. eigenvalues --   -0.52989  -0.52981  -0.52803  -0.52755  -0.52594
 Alpha  occ. eigenvalues --   -0.52478  -0.52276  -0.52011  -0.51774  -0.51672
 Alpha  occ. eigenvalues --   -0.51502  -0.51284  -0.51058  -0.50609  -0.50281
 Alpha  occ. eigenvalues --   -0.50151  -0.49969  -0.49813  -0.49698  -0.49568
 Alpha  occ. eigenvalues --   -0.49318  -0.49279  -0.49163  -0.49045  -0.48958
 Alpha  occ. eigenvalues --   -0.48665  -0.48550  -0.48488  -0.48413  -0.48217
 Alpha  occ. eigenvalues --   -0.48152  -0.47766  -0.47433  -0.47364  -0.46944
 Alpha  occ. eigenvalues --   -0.46893  -0.46619  -0.46560  -0.46444  -0.46403
 Alpha  occ. eigenvalues --   -0.46249  -0.46111  -0.45936  -0.45899  -0.45691
 Alpha  occ. eigenvalues --   -0.45306  -0.45027  -0.44657  -0.44574  -0.44372
 Alpha  occ. eigenvalues --   -0.44326  -0.44245  -0.44154  -0.44073  -0.43975
 Alpha  occ. eigenvalues --   -0.43922  -0.43768  -0.43565  -0.43467  -0.43419
 Alpha  occ. eigenvalues --   -0.43231  -0.43110  -0.42813  -0.42793  -0.42753
 Alpha  occ. eigenvalues --   -0.42726  -0.42397  -0.42124  -0.41825  -0.41782
 Alpha  occ. eigenvalues --   -0.41607  -0.41516  -0.41312  -0.41217  -0.40964
 Alpha  occ. eigenvalues --   -0.40860  -0.40827  -0.40680  -0.40570  -0.40521
 Alpha  occ. eigenvalues --   -0.40342  -0.40294  -0.40076  -0.39610  -0.39291
 Alpha  occ. eigenvalues --   -0.38581  -0.38193  -0.37817  -0.37515  -0.37425
 Alpha  occ. eigenvalues --   -0.37332  -0.37113  -0.37045  -0.36779  -0.36640
 Alpha  occ. eigenvalues --   -0.36271  -0.36065  -0.34368  -0.34093  -0.33817
 Alpha  occ. eigenvalues --   -0.33729  -0.33265  -0.33012  -0.31376  -0.31111
 Alpha  occ. eigenvalues --   -0.31070  -0.30805  -0.30097  -0.29813  -0.29515
 Alpha  occ. eigenvalues --   -0.29398  -0.29151  -0.29052  -0.24161  -0.23870
 Alpha  occ. eigenvalues --   -0.21209  -0.20951
 Alpha virt. eigenvalues --   -0.08848  -0.08622  -0.01829  -0.01513  -0.00110
 Alpha virt. eigenvalues --    0.00154   0.02124   0.02359   0.03014   0.03382
 Alpha virt. eigenvalues --    0.04641   0.04883   0.05052   0.05295   0.06114

 Mulliken charges:
               1
     1  Mg   0.838606
     2  C   -0.002731
     3  C   -0.093987
     4  C   -0.045940
     5  C   -0.064429
     6  N   -0.256744
     7  C   -0.052565
     8  C   -0.013960
     9  C   -0.087051
    10  C    0.046377
    11  C    0.104761
    12  C    0.053470
    13  C   -0.071866
    14  H    0.036160
    15  N   -0.433269
    16  C    0.168564
    17  C   -0.176856
    18  C   -0.003630
    19  C    0.148826
    20  C    0.110131
    21  C    0.012707
    22  O   -0.249346
    23  C    0.062279
    24  N   -0.340995
    25  C    0.041146
    26  C   -0.028300
    27  C   -0.023727
    28  C    0.074411
    29  C    0.076082
    30  C    0.035333
    31  C   -0.004493
    32  N   -0.310356
    33  C    0.080048
    34  C   -0.170422
    35  C    0.008393
    36  C    0.082758
    37  C    0.127460
    38  C    0.046028
    39  O   -0.188453
    40  C   -0.005277
    41  C    0.212822
    42  O   -0.256840
    43  O   -0.304878
    44  C    0.157438
    45  H   -0.017276
    46  H   -0.016654
    47  H   -0.042208
    48  H    0.001102
    49  H   -0.003928
    50  H    0.025565
    51  H    0.016480
    52  H    0.016884
    53  H    0.010945
    54  H    0.044240
    55  H    0.018078
    56  H    0.017848
    57  H    0.005869
    58  H    0.027227
    59  H    0.040105
    60  H    0.037237
    61  H    0.036846
    62  H    0.032045
    63  H    0.016322
    64  H    0.009595
    65  H    0.023393
    66  H    0.012967
    67  H    0.004756
    68  H    0.006298
    69  H    0.004211
    70  H    0.008999
    71  H    0.015203
    72  H    0.029634
    73  H    0.047003
    74  H    0.008307
    75  H    0.046220
    76  H    0.035253
    77  H    0.043122
    78  H    0.046309
    79  H    0.054318
    80  Mg   0.838039
    81  C   -0.016825
    82  C   -0.087400
    83  C   -0.044054
    84  C   -0.065251
    85  N   -0.254553
    86  C   -0.050047
    87  C   -0.015083
    88  C   -0.090641
    89  C    0.045882
    90  C    0.114114
    91  C    0.062610
    92  C   -0.077649
    93  H    0.034422
    94  N   -0.423873
    95  C    0.163295
    96  C   -0.173314
    97  C   -0.006757
    98  C    0.152397
    99  C    0.098809
   100  C    0.016489
   101  O   -0.252698
   102  C    0.061027
   103  N   -0.349963
   104  C    0.037975
   105  C   -0.020105
   106  C   -0.034316
   107  C    0.088764
   108  C    0.073035
   109  C    0.034865
   110  C   -0.007543
   111  N   -0.323895
   112  C    0.078161
   113  C   -0.163890
   114  C    0.002019
   115  C    0.095912
   116  C    0.131597
   117  C    0.042021
   118  O   -0.188702
   119  C    0.000921
   120  C    0.211120
   121  O   -0.251301
   122  O   -0.305456
   123  C    0.152187
   124  H   -0.019372
   125  H   -0.014824
   126  H   -0.041558
   127  H   -0.000659
   128  H   -0.004757
   129  H    0.023090
   130  H    0.015536
   131  H    0.015334
   132  H    0.013809
   133  H    0.037536
   134  H    0.020643
   135  H    0.019365
   136  H    0.008465
   137  H    0.028107
   138  H    0.039447
   139  H    0.039522
   140  H    0.036350
   141  H    0.033152
   142  H    0.014020
   143  H    0.011426
   144  H    0.024653
   145  H    0.015686
   146  H    0.004521
   147  H    0.005746
   148  H    0.002817
   149  H    0.010971
   150  H    0.017352
   151  H    0.030351
   152  H    0.045563
   153  H    0.007859
   154  H    0.045687
   155  H    0.035414
   156  H    0.043733
   157  H    0.049368
   158  H    0.053302
 Sum of Mulliken charges =  -0.00000

 Dipole moment (field-independent basis, Debye):
    X=              4.0301    Y=             -0.8852    Z=              0.0327  Tot=              4.1263
 Quadrupole moment (field-independent basis, Debye-Ang):
   XX=           -525.3462   YY=           -546.3947   ZZ=           -448.1154
   XY=            -21.3045   XZ=             56.8003   YZ=             40.5713

 Normal termination of Gaussian 16 at Fri Sep 10 13:25:17 2021.
