 Gaussian 16, Revision A.03,
 Gaussian 16:  ES64L-G16RevA.03 25-Dec-2016

 -----------------------------------
 #p cam-b3lyp/Def2SVP td=(nstates=5)
 -----------------------------------

 --------------------------------
 TDDFT excited states in gaussian
 --------------------------------
 Symbolic Z-matrix:
 Charge =  0 Multiplicity = 1

                         Standard orientation:
 ---------------------------------------------------------------------
 Center     Atomic      Atomic             Coordinates (Angstroms)
 Number     Number       Type             X           Y           Z
 ---------------------------------------------------------------------
      1         12           0        3.208949   -2.199640   -0.025961
      2          6           0        5.284622    0.575181   -0.922714
      3          6           0        4.574402   -2.020819    3.095998
      4          6           0        1.730678   -4.920560    0.658090
      5          6           0        2.874630   -2.860445   -3.431431
      6          7           0        4.726390   -0.848973    0.853651
      7          6           0        5.400957    0.211559    0.420748
      8          6           0        6.185677    0.946988    1.548015
      9          6           0        6.337946   -0.260644    2.577790
     10          6           0        5.121104   -1.076104    2.177486
     11          6           0        7.589685   -1.101811    2.349557
     12          6           0        5.367283    2.129047    2.168257
     13          6           0        6.174381    3.096562    3.038810
     14          1           0        5.831323    4.510492    3.017374
     15          7           0        2.779004   -3.020637    1.718734
     16          6           0        3.430347   -2.821760    2.889839
     17          6           0        2.731050   -3.654770    3.891716
     18          6           0        1.739429   -4.499029    3.169214
     19          6           0        2.065786   -4.195603    1.799249
     20          6           0        2.993402   -3.565208    5.363755
     21          6           0        0.674730   -5.439287    3.638746
     22          8           0        0.080840   -6.245803    2.844138
     23          6           0        0.403727   -5.454110    5.087669
     24          7           0        2.592078   -3.813924   -1.196941
     25          6           0        1.921326   -4.839176   -0.660347
     26          6           0        1.341948   -5.727576   -1.721010
     27          6           0        1.551861   -4.958817   -3.104737
     28          6           0        2.332541   -3.730267   -2.576085
     29          6           0        1.949026   -7.133783   -1.821249
     30          6           0        0.291261   -4.714461   -3.971684
     31          6           0       -0.629970   -3.738735   -3.274268
     32          7           0        3.787115   -1.221974   -1.875539
     33          6           0        3.564718   -1.686384   -3.179969
     34          6           0        4.230297   -0.740591   -4.094599
     35          6           0        4.811459    0.205369   -3.252425
     36          6           0        4.549145   -0.142828   -1.896607
     37          6           0        4.292658   -0.855411   -5.511413
     38          6           0        5.613869    1.415740   -3.181734
     39          8           0        6.049141    2.217181   -4.009818
     40          6           0        6.055395    1.636489   -1.667749
     41          6           0        5.785702    3.075317   -1.320833
     42          8           0        4.617791    3.511026   -1.261600
     43          8           0        6.918394    3.647215   -0.884389
     44          6           0        6.713590    5.068082   -0.495357
     45          1           0        5.100135   -2.210178    4.033915
     46          1           0        1.123918   -5.809090    0.844629
     47          1           0        2.741649   -2.955492   -4.510660
     48          1           0        7.169979    1.311294    1.253305
     49          1           0        6.247653    0.072248    3.611594
     50          1           0        8.104676   -0.809592    1.434508
     51          1           0        7.239127   -2.131529    2.276871
     52          1           0        8.243054   -1.068584    3.221785
     53          1           0        4.679152    1.736035    2.916640
     54          1           0        4.850018    2.690582    1.389512
     55          1           0        7.246857    2.961516    2.895752
     56          1           0        6.005756    2.837337    4.084070
     57          1           0        3.887742   -2.980821    5.576340
     58          1           0        3.238419   -4.570717    5.705262
     59          1           0        2.129097   -3.190961    5.912617
     60          1           0        1.316664   -5.718187    5.621858
     61          1           0       -0.447400   -6.119583    5.227600
     62          1           0        0.141857   -4.445344    5.408238
     63          1           0        0.276681   -5.886733   -1.558832
     64          1           0        2.232498   -5.491420   -3.769373
     65          1           0        1.217332   -7.935142   -1.715639
     66          1           0        2.731956   -7.217327   -1.068035
     67          1           0        2.507698   -7.326260   -2.736811
     68          1           0       -0.264353   -5.642368   -4.102933
     69          1           0        0.519872   -4.321799   -4.962545
     70          1           0       -1.188563   -4.377304   -2.590868
     71          1           0       -1.295216   -3.262091   -3.995010
     72          1           0       -0.069942   -3.025339   -2.669355
     73          1           0        4.101080    0.141976   -5.906996
     74          1           0        3.563906   -1.575558   -5.882778
     75          1           0        5.319800   -1.195909   -5.641393
     76          1           0        7.116115    1.393822   -1.612000
     77          1           0        7.422932    5.663682   -1.070099
     78          1           0        6.785717    5.105194    0.591761
     79          1           0        5.769607    5.520388   -0.801388
     80         12           0       -3.357447    2.256642    0.355387
     81          6           0       -5.196537   -0.768654   -0.231477
     82          6           0       -2.521366    2.213303   -2.951222
     83          6           0       -1.368009    4.660926    0.928960
     84          6           0       -3.381241    1.449309    3.745575
     85          7           0       -3.856293    0.851905   -1.278664
     86          6           0       -4.613478   -0.228412   -1.396650
     87          6           0       -4.819181   -0.713342   -2.856822
     88          6           0       -3.501707   -0.069774   -3.511786
     89          6           0       -3.292441    1.094703   -2.545924
     90          6           0       -2.286070   -0.978424   -3.434920
     91          6           0       -6.125068   -0.129936   -3.502034
     92          6           0       -6.551022   -0.800360   -4.810031
     93          1           0       -7.977753   -0.950199   -5.082923
     94          7           0       -2.526393    3.560596   -0.888649
     95          6           0       -2.282501    3.388030   -2.204706
     96          6           0       -1.641011    4.630678   -2.661316
     97          6           0       -1.376716    5.486308   -1.472731
     98          6           0       -1.735725    4.573640   -0.405850
     99          6           0       -1.411456    4.942551   -4.111655
    100          6           0       -0.870846    6.888894   -1.320918
    101          8           0       -0.492316    7.349045   -0.186109
    102          6           0       -0.743779    7.677195   -2.555388
    103          7           0       -2.315248    2.849841    2.053708
    104          6           0       -1.560486    3.962595    2.048163
    105          6           0       -1.132510    4.338402    3.446728
    106          6           0       -1.961121    3.379249    4.421916
    107          6           0       -2.690233    2.516386    3.368703
    108          6           0        0.360223    4.200482    3.745278
    109          6           0       -2.806793    4.063600    5.530596
    110          6           0       -3.946979    4.836060    4.907162
    111          7           0       -4.290256    0.747425    1.588350
    112          6           0       -4.145494    0.575801    2.982502
    113          6           0       -4.880023   -0.652584    3.348531
    114          6           0       -5.385928   -1.126707    2.128790
    115          6           0       -4.977414   -0.266381    1.074063
    116          6           0       -4.969319   -1.210323    4.655082
    117          6           0       -6.163761   -2.165195    1.492221
    118          8           0       -6.835890   -3.115308    1.891296
    119          6           0       -5.969958   -2.049213   -0.081108
    120          6           0       -7.327876   -2.127110   -0.723363
    121          8           0       -8.169582   -1.231705   -0.532622
    122          8           0       -7.332574   -3.126573   -1.624163
    123          6           0       -8.654919   -3.236483   -2.295833
    124          1           0       -2.015157    2.172350   -3.916088
    125          1           0       -0.772273    5.536360    1.197638
    126          1           0       -3.518223    1.183609    4.795962
    127          1           0       -4.809911   -1.789252   -2.983733
    128          1           0       -3.698831    0.297985   -4.515402
    129          1           0       -2.480183   -1.862041   -2.845274
    130          1           0       -1.503422   -0.384922   -2.980762
    131          1           0       -1.933709   -1.222583   -4.441185
    132          1           0       -5.921078    0.884366   -3.868536
    133          1           0       -6.938314   -0.152405   -2.802918
    134          1           0       -6.026123   -1.748789   -4.977083
    135          1           0       -6.234167   -0.168304   -5.643175
    136          1           0       -1.556618    4.056241   -4.741565
    137          1           0       -0.348670    5.183498   -4.222577
    138          1           0       -2.004384    5.791362   -4.458943
    139          1           0       -0.071693    7.167587   -3.241726
    140          1           0       -0.453283    8.679186   -2.233675
    141          1           0       -1.722558    7.718873   -3.046176
    142          1           0       -1.388025    5.367867    3.665859
    143          1           0       -1.301873    2.700350    4.982549
    144          1           0        0.823883    5.141646    4.096438
    145          1           0        0.855289    3.842766    2.852270
    146          1           0        0.616438    3.433698    4.474379
    147          1           0       -2.199900    4.791305    6.074911
    148          1           0       -3.206613    3.367545    6.260418
    149          1           0       -3.478715    5.784576    4.627618
    150          1           0       -4.746570    4.988350    5.629300
    151          1           0       -4.291134    4.353898    3.984818
    152          1           0       -5.999679   -1.508330    4.796640
    153          1           0       -4.652870   -0.497815    5.414007
    154          1           0       -4.270106   -2.045263    4.558932
    155          1           0       -5.322038   -2.869385   -0.392717
    156          1           0       -9.001181   -4.264822   -2.153289
    157          1           0       -8.490140   -2.900190   -3.336750
    158          1           0       -9.479931   -2.675037   -1.873244
 ---------------------------------------------------------------------

 SCF Done:  E(RCAM-B3LYP) =  -4069.80854589     A.U. after   19 cycles

 Excitation energies and oscillator strengths:

 Excited State   1:      Singlet-A      1.6406 eV  755.71 nm  f=0.0314  <S**2>=0.000
     309 -> 315        0.11421
     310 -> 316        0.11919
     311 -> 313       -0.47438
     312 -> 314        0.49809
 This state for optimization and/or second-order correction.
 Total Energy, E(TD-HF/TD-DFT) =  -4069.74825389
 Copying the excited state density for this state as the 1-particle RhoCI density.

 Excited State   2:      Singlet-A      1.7096 eV  725.23 nm  f=0.6401  <S**2>=0.000
     309 -> 315       -0.13258
     310 -> 316        0.12617
     311 -> 313        0.49500
     312 -> 314        0.47168

 Excited State   3:      Singlet-A      2.1825 eV  568.08 nm  f=0.0130  <S**2>=0.000
     309 -> 313       -0.40666
     310 -> 314        0.50139
     311 -> 315       -0.16826
     312 -> 316       -0.20785

 Excited State   4:      Singlet-A      2.1983 eV  563.99 nm  f=0.1597  <S**2>=0.000
     309 -> 313        0.49573
     310 -> 314        0.40126
     311 -> 315        0.22005
     312 -> 316       -0.17868

 Excited State   5:      Singlet-A      2.2347 eV  554.82 nm  f=0.0001  <S**2>=0.000
     312 -> 313        0.70682

 The electronic state is 1-A.
 Alpha  occ. eigenvalues --  -46.87913 -46.87398 -19.26321 -19.26171 -19.19070
 Alpha  occ. eigenvalues --  -19.18965 -19.18851 -19.18369 -19.18304 -19.17773
 Alpha  occ. eigenvalues --  -14.42562 -14.42237 -14.41574 -14.41111 -14.39511
 Alpha  occ. eigenvalues --  -14.39065 -14.38716 -14.38337 -10.39134 -10.38890
 Alpha  occ. eigenvalues --  -10.35480 -10.35040 -10.34521 -10.33957 -10.31675
 Alpha  occ. eigenvalues --  -10.31611 -10.31533 -10.31071 -10.30998 -10.30735
 Alpha  occ. eigenvalues --  -10.30707 -10.30631 -10.30328 -10.30132 -10.30103
 Alpha  occ. eigenvalues --  -10.30057 -10.29877 -10.29755 -10.29671 -10.29370
 Alpha  occ. eigenvalues --  -10.29133 -10.29119 -10.28826 -10.28566 -10.28524
 Alpha  occ. eigenvalues --  -10.28504 -10.28473 -10.28209 -10.28108 -10.27922
 Alpha  occ. eigenvalues --  -10.27872 -10.27846 -10.27706 -10.27694 -10.27653
 Alpha  occ. eigenvalues --  -10.27580 -10.27578 -10.27512 -10.27388 -10.27374
 Alpha  occ. eigenvalues --  -10.27255 -10.27219 -10.27217 -10.27155 -10.27027
 Alpha  occ. eigenvalues --  -10.26797 -10.26761 -10.26509 -10.26411 -10.26388
 Alpha  occ. eigenvalues --  -10.26321 -10.26168 -10.26073 -10.26041 -10.26021
 Alpha  occ. eigenvalues --  -10.25736 -10.25700 -10.25677 -10.25533 -10.25267
 Alpha  occ. eigenvalues --  -10.24965 -10.24898 -10.24865 -10.24622 -10.24586
 Alpha  occ. eigenvalues --  -10.24418  -3.16656  -3.16148  -1.91537  -1.91124
 Alpha  occ. eigenvalues --   -1.91031  -1.90966  -1.90620  -1.90456  -1.16674
 Alpha  occ. eigenvalues --   -1.16460  -1.08762  -1.08389  -1.07244  -1.06748
 Alpha  occ. eigenvalues --   -1.06695  -1.06614  -1.04692  -1.04231  -1.03879
 Alpha  occ. eigenvalues --   -1.03399  -1.03356  -1.02778  -1.02534  -1.01845
 Alpha  occ. eigenvalues --   -0.92086  -0.91724  -0.89677  -0.89283  -0.89278
 Alpha  occ. eigenvalues --   -0.88938  -0.88430  -0.88030  -0.88028  -0.87786
 Alpha  occ. eigenvalues --   -0.87552  -0.87434  -0.87364  -0.86769  -0.85072
 Alpha  occ. eigenvalues --   -0.84784  -0.84101  -0.83701  -0.83053  -0.82732
 Alpha  occ. eigenvalues --   -0.82630  -0.82387  -0.81674  -0.81379  -0.80691
 Alpha  occ. eigenvalues --   -0.80195  -0.78912  -0.78330  -0.77380  -0.77060
 Alpha  occ. eigenvalues --   -0.76898  -0.76701  -0.76023  -0.75632  -0.75015
 Alpha  occ. eigenvalues --   -0.74605  -0.72913  -0.72450  -0.71782  -0.71387
 Alpha  occ. eigenvalues --   -0.70128  -0.69591  -0.68973  -0.68579  -0.67746
 Alpha  occ. eigenvalues --   -0.67347  -0.67289  -0.66949  -0.65390  -0.65076
 Alpha  occ. eigenvalues --   -0.64954  -0.64728  -0.64538  -0.64472  -0.64353
 Alpha  occ. eigenvalues --   -0.63999  -0.62379  -0.62069  -0.60545  -0.60043
 Alpha  occ. eigenvalues --   -0.59905  -0.59560  -0.59107  -0.58751  -0.58620
 Alpha  occ. eigenvalues --   -0.58180  -0.57688  -0.57424  -0.57318  -0.56992
 Alpha  occ. eigenvalues --   -0.56431  -0.56040  -0.55946  -0.55694  -0.55613
 Alpha  occ. eigenvalues --   -0.55494  -0.55175  -0.55059  -0.54691  -0.54306
 Alpha  occ. eigenvalues --   -0.53982  -0.53842  -0.53377  -0.53297  -0.53046
 Alpha  occ. eigenvalues --   -0.52968  -0.52878  -0.52831  -0.52724  -0.52547
 Alpha  occ. eigenvalues --   -0.52327  -0.52244  -0.52098  -0.51695  -0.51676
 Alpha  occ. eigenvalues --   -0.51405  -0.51325  -0.50973  -0.50663  -0.50312
 Alpha  occ. eigenvalues --   -0.50114  -0.49999  -0.49714  -0.49641  -0.49576
 Alpha  occ. eigenvalues --   -0.49326  -0.49218  -0.49192  -0.48926  -0.48893
 Alpha  occ. eigenvalues --   -0.48698  -0.48586  -0.48510  -0.48342  -0.48177
 Alpha  occ. eigenvalues --   -0.48025  -0.47792  -0.47403  -0.47356  -0.46922
 Alpha  occ. eigenvalues --   -0.46853  -0.46644  -0.46554  -0.46422  -0.46359
 Alpha  occ. eigenvalues --   -0.46284  -0.46010  -0.45944  -0.45876  -0.45625
 Alpha  occ. eigenvalues --   -0.45320  -0.44992  -0.44714  -0.44606  -0.44339
 Alpha  occ. eigenvalues --   -0.44314  -0.44227  -0.44180  -0.44105  -0.43906
 Alpha  occ. eigenvalues --   -0.43831  -0.43656  -0.43590  -0.43492  -0.43389
 Alpha  occ. eigenvalues --   -0.43261  -0.43107  -0.42775  -0.42740  -0.42716
 Alpha  occ. eigenvalues --   -0.42545  -0.42331  -0.42034  -0.41825  -0.41767
 Alpha  occ. eigenvalues --   -0.41617  -0.41420  -0.41262  -0.41235  -0.40986
 Alpha  occ. eigenvalues --   -0.40875  -0.40757  -0.40666  -0.40514  -0.40414
 Alpha  occ. eigenvalues --   -0.40298  -0.40285  -0.39998  -0.39565  -0.39271
 Alpha  occ. eigenvalues --   -0.38596  -0.38158  -0.37820  -0.37481  -0.37427
 Alpha  occ. eigenvalues --   -0.37352  -0.37050  -0.36951  -0.36761  -0.36583
 Alpha  occ. eigenvalues --   -0.36269  -0.36010  -0.34408  -0.33994  -0.33832
 Alpha  occ. eigenvalues --   -0.33650  -0.33302  -0.32911  -0.31383  -0.31141
 Alpha  occ. eigenvalues --   -0.30939  -0.30698  -0.30163  -0.29687  -0.29560
 Alpha  occ. eigenvalues --   -0.29451  -0.29013  -0.28920  -0.24199  -0.23772
 Alpha  occ. eigenvalues --   -0.21252  -0.20842
 Alpha virt. eigenvalues --   -0.08891  -0.08500  -0.01863  -0.01417  -0.00142
 Alpha virt. eigenvalues --    0.00293   0.02063   0.02376   0.02589   0.03595
 Alpha virt. eigenvalues --    0.04616   0.05005   0.05029   0.05378   0.06081

 Mulliken charges:
               1
     1  Mg   0.838737
     2  C   -0.002175
     3  C   -0.094321
     4  C   -0.045549
     5  C   -0.065538
     6  N   -0.256758
     7  C   -0.052467
     8  C   -0.014076
     9  C   -0.087005
    10  C    0.046655
    11  C    0.104760
    12  C    0.052997
    13  C   -0.072507
    14  H    0.038147
    15  N   -0.433425
    16  C    0.169071
    17  C   -0.177009
    18  C   -0.003208
    19  C    0.149506
    20  C    0.110206
    21  C    0.013211
    22  O   -0.247803
    23  C    0.062105
    24  N   -0.341131
    25  C    0.041080
    26  C   -0.029156
    27  C   -0.025334
    28  C    0.074653
    29  C    0.076263
    30  C    0.056645
    31  C   -0.034141
    32  N   -0.310188
    33  C    0.079544
    34  C   -0.172069
    35  C    0.007927
    36  C    0.082643
    37  C    0.127825
    38  C    0.045260
    39  O   -0.189362
    40  C   -0.005003
    41  C    0.212138
    42  O   -0.256372
    43  O   -0.305030
    44  C    0.157322
    45  H   -0.017240
    46  H   -0.015884
    47  H   -0.043010
    48  H    0.001140
    49  H   -0.003985
    50  H    0.025610
    51  H    0.016454
    52  H    0.016959
    53  H    0.010450
    54  H    0.045570
    55  H    0.017834
    56  H    0.017339
    57  H    0.005846
    58  H    0.027522
    59  H    0.039462
    60  H    0.037124
    61  H    0.037806
    62  H    0.030857
    63  H    0.017271
    64  H    0.009546
    65  H    0.024042
    66  H    0.012931
    67  H    0.004678
    68  H    0.004739
    69  H    0.000874
    70  H    0.010819
    71  H    0.018788
    72  H    0.035006
    73  H    0.045390
    74  H    0.007668
    75  H    0.046639
    76  H    0.035293
    77  H    0.042620
    78  H    0.046901
    79  H    0.055121
    80  Mg   0.836776
    81  C   -0.016781
    82  C   -0.086871
    83  C   -0.041944
    84  C   -0.065985
    85  N   -0.254546
    86  C   -0.051173
    87  C   -0.014562
    88  C   -0.083310
    89  C    0.044899
    90  C    0.087404
    91  C    0.063828
    92  C   -0.077407
    93  H    0.034356
    94  N   -0.424570
    95  C    0.163145
    96  C   -0.169367
    97  C   -0.004771
    98  C    0.153014
    99  C    0.097158
   100  C    0.018318
   101  O   -0.253797
   102  C    0.060270
   103  N   -0.350049
   104  C    0.037286
   105  C   -0.019966
   106  C   -0.034057
   107  C    0.088388
   108  C    0.072874
   109  C    0.035148
   110  C   -0.007499
   111  N   -0.323907
   112  C    0.077779
   113  C   -0.164100
   114  C    0.002619
   115  C    0.095333
   116  C    0.131240
   117  C    0.042746
   118  O   -0.188570
   119  C    0.000750
   120  C    0.211023
   121  O   -0.251375
   122  O   -0.305645
   123  C    0.152208
   124  H   -0.017853
   125  H   -0.015246
   126  H   -0.042655
   127  H   -0.001485
   128  H   -0.005426
   129  H    0.038867
   130  H    0.017697
   131  H    0.022505
   132  H    0.013949
   133  H    0.037301
   134  H    0.019449
   135  H    0.019359
   136  H    0.008459
   137  H    0.033042
   138  H    0.038578
   139  H    0.042157
   140  H    0.035091
   141  H    0.032523
   142  H    0.013899
   143  H    0.009802
   144  H    0.023618
   145  H    0.016589
   146  H    0.002117
   147  H    0.004941
   148  H    0.002506
   149  H    0.010785
   150  H    0.017238
   151  H    0.030967
   152  H    0.045465
   153  H    0.006803
   154  H    0.045955
   155  H    0.035566
   156  H    0.043545
   157  H    0.048994
   158  H    0.053338
 Sum of Mulliken charges =  -0.00000

 Dipole moment (field-independent basis, Debye):
    X=              4.4634    Y=             -0.8279    Z=              0.3600  Tot=              4.5538
 Quadrupole moment (field-independent basis, Debye-Ang):
   XX=           -535.5374   YY=           -531.2782   ZZ=           -453.9395
   XY=            -20.3612   XZ=             55.7063   YZ=             20.0239

 Normal termination of Gaussian 16 at Wed Sep  8 17:15:37 2021.
