 Gaussian 16, Revision A.03,
 Gaussian 16:  ES64L-G16RevA.03 25-Dec-2016

 -----------------------------------
 #p cam-b3lyp/Def2SVP td=(nstates=5)
 -----------------------------------

 --------------------------------
 TDDFT excited states in gaussian
 --------------------------------
 Symbolic Z-matrix:
 Charge =  0 Multiplicity = 1

                         Standard orientation:
 ---------------------------------------------------------------------
 Center     Atomic      Atomic             Coordinates (Angstroms)
 Number     Number       Type             X           Y           Z
 ---------------------------------------------------------------------
      1         12           0        3.110294    1.994293    0.837715
      2          6           0        4.682446   -1.192000    0.404020
      3          6           0        4.333119    2.848764   -2.231103
      4          6           0        2.122132    4.956725    1.389215
      5          6           0        2.995620    1.307728    4.252556
      6          7           0        4.337083    0.882413   -0.631760
      7          6           0        4.823706   -0.352599   -0.703272
      8          6           0        5.432513   -0.697115   -2.095406
      9          6           0        5.768485    0.779035   -2.595507
     10          6           0        4.728366    1.547706   -1.799756
     11          6           0        7.156099    1.260598   -2.184257
     12          6           0        4.399250   -1.400269   -3.038632
     13          6           0        4.995945   -2.059471   -4.285534
     14          1           0        4.407013   -3.297611   -4.772889
     15          7           0        2.784456    3.489645   -0.411526
     16          6           0        3.356510    3.669345   -1.626330
     17          6           0        2.788900    4.925196   -2.162367
     18          6           0        1.984549    5.559000   -1.080976
     19          6           0        2.290189    4.696002    0.031317
     20          6           0        2.989334    5.381741   -3.574863
     21          6           0        1.091721    6.759057   -1.051741
     22          8           0        0.673876    7.269426    0.043477
     23          6           0        0.786831    7.382855   -2.352111
     24          7           0        2.824524    3.092954    2.589547
     25          6           0        2.332429    4.336099    2.551903
     26          6           0        1.950982    4.814047    3.921576
     27          6           0        2.059507    3.541479    4.879983
     28          6           0        2.593344    2.515363    3.850238
     29          6           0        2.801660    5.956988    4.492579
     30          6           0        0.800573    3.172524    5.704225
     31          6           0       -0.299229    2.702534    4.778675
     32          7           0        3.556948    0.292990    2.109373
     33          6           0        3.457910    0.236071    3.507095
     34          6           0        3.969778   -1.082643    3.923090
     35          6           0        4.348895   -1.698845    2.732120
     36          6           0        4.114629   -0.810606    1.643799
     37          6           0        4.091662   -1.544319    5.263401
     38          6           0        4.920300   -2.891602    2.128228
     39          8           0        5.228937   -4.010165    2.541812
     40          6           0        5.272385   -2.564993    0.609943
     41          6           0        4.740754   -3.692327   -0.232551
     42          8           0        3.512668   -3.885379   -0.341649
     43          8           0        5.740513   -4.213045   -0.960478
     44          6           0        5.274717   -5.317491   -1.841037
     45          1           0        4.857449    3.308225   -3.071290
     46          1           0        1.678500    5.928647    1.615039
     47          1           0        2.912298    0.990570    5.293672
     48          1           0        6.344017   -1.293911   -2.057745
     49          1           0        5.591077    0.896851   -3.664323
     50          1           0        7.636404    0.557485   -1.503919
     51          1           0        6.996966    2.219558   -1.690732
     52          1           0        7.768136    1.472870   -3.061256
     53          1           0        3.771337   -0.644672   -3.510712
     54          1           0        3.812386   -2.136049   -2.487685
     55          1           0        6.078924   -2.157380   -4.205050
     56          1           0        4.846748   -1.388190   -5.131301
     57          1           0        3.758763    4.798303   -4.078970
     58          1           0        3.399957    6.390171   -3.528307
     59          1           0        2.056975    5.390174   -4.139635
     60          1           0        1.716745    7.692282   -2.829672
     61          1           0        0.064394    8.171610   -2.145234
     62          1           0        0.340325    6.633989   -3.006924
     63          1           0        0.927012    5.185163    3.935161
     64          1           0        2.842728    3.659322    5.629217
     65          1           0        2.221892    6.837213    4.771466
     66          1           0        3.565317    6.208592    3.757178
     67          1           0        3.411370    5.686540    5.354280
     68          1           0        0.423256    4.047559    6.232326
     69          1           0        0.983438    2.392406    6.443297
     70          1           0       -0.754110    3.635471    4.447702
     71          1           0       -1.018147    2.089168    5.322871
     72          1           0        0.107282    2.207321    3.896632
     73          1           0        3.736578   -2.574796    5.264546
     74          1           0        3.513800   -0.925457    5.949469
     75          1           0        5.166317   -1.443833    5.414647
     76          1           0        6.357368   -2.485450    0.549886
     77          1           0        5.882458   -6.191883   -1.607963
     78          1           0        5.308292   -4.935378   -2.861462
     79          1           0        4.274251   -5.703287   -1.642116
     80         12           0       -4.145719   -0.890236   -0.602454
     81          6           0       -1.511484   -3.318276   -0.391496
     82          6           0       -2.187026    0.823274   -2.807453
     83          6           0       -6.244820    1.485286   -0.468013
     84          6           0       -5.365951   -2.157223    2.406117
     85          7           0       -2.129665   -1.296765   -1.416392
     86          6           0       -1.250139   -2.281548   -1.311452
     87          6           0       -0.059654   -2.189073   -2.303296
     88          6           0       -0.092022   -0.605970   -2.570896
     89          6           0       -1.568136   -0.339571   -2.283165
     90          6           0        0.739237    0.189335   -1.577993
     91          6           0       -0.315945   -2.999886   -3.621971
     92          6           0        0.920511   -3.208746   -4.499071
     93          1           0        1.049945   -4.465290   -5.231747
     94          7           0       -4.445330    0.630501   -1.841864
     95          6           0       -3.546686    1.184017   -2.682913
     96          6           0       -4.252659    2.283152   -3.359427
     97          6           0       -5.592107    2.438244   -2.729703
     98          6           0       -5.468640    1.517611   -1.617381
     99          6           0       -3.680577    3.013182   -4.539766
    100          6           0       -6.781992    3.285645   -3.064770
    101          8           0       -7.753583    3.437326   -2.242670
    102          6           0       -6.733424    4.007200   -4.344802
    103          7           0       -5.472377   -0.262607    0.870090
    104          6           0       -6.310247    0.766294    0.652740
    105          6           0       -7.353755    0.859126    1.740340
    106          6           0       -7.188978   -0.473673    2.608711
    107          6           0       -5.966314   -1.091107    1.895100
    108          6           0       -7.253286    2.078684    2.656298
    109          6           0       -8.456157   -1.351956    2.797249
    110          6           0       -8.863601   -1.960737    1.474847
    111          7           0       -3.681001   -2.563353    0.683160
    112          6           0       -4.299322   -2.894920    1.908644
    113          6           0       -3.564295   -4.047188    2.469406
    114          6           0       -2.547014   -4.293455    1.535077
    115          6           0       -2.628985   -3.347827    0.477449
    116          6           0       -3.839287   -4.684320    3.712215
    117          6           0       -1.415945   -5.131681    1.208333
    118          8           0       -0.922496   -6.151015    1.689166
    119          6           0       -0.617538   -4.458548    0.010068
    120          6           0       -0.335167   -5.522144   -1.015382
    121          8           0       -1.265982   -6.061949   -1.638908
    122          8           0        0.989555   -5.571528   -1.245709
    123          6           0        1.318324   -6.604223   -2.264175
    124          1           0       -1.565321    1.551653   -3.328817
    125          1           0       -7.055526    2.216343   -0.425838
    126          1           0       -5.744422   -2.671807    3.291911
    127          1           0        0.899522   -2.476737   -1.889771
    128          1           0        0.142108   -0.375642   -3.606987
    129          1           0        1.120789   -0.433059   -0.782261
    130          1           0        0.077176    0.947633   -1.180872
    131          1           0        1.535883    0.727791   -2.099304
    132          1           0       -0.928313   -2.393584   -4.301800
    133          1           0       -0.769031   -3.947553   -3.404574
    134          1           0        1.849524   -2.978808   -3.963338
    135          1           0        0.894372   -2.481782   -5.314460
    136          1           0       -2.614103    2.792286   -4.671072
    137          1           0       -3.709100    4.081511   -4.299500
    138          1           0       -4.248527    2.841870   -5.456690
    139          1           0       -5.862874    4.658639   -4.359334
    140          1           0       -7.709232    4.485847   -4.447664
    141          1           0       -6.595133    3.279059   -5.151839
    142          1           0       -8.351027    0.882622    1.318446
    143          1           0       -6.872996   -0.252391    3.638777
    144          1           0       -8.177560    2.686446    2.676836
    145          1           0       -6.411288    2.677774    2.335880
    146          1           0       -6.999591    1.858792    3.691902
    147          1           0       -9.297007   -0.737497    3.128259
    148          1           0       -8.328291   -2.143437    3.528147
    149          1           0       -9.442992   -1.161361    1.003256
    150          1           0       -9.472280   -2.848684    1.633232
    151          1           0       -7.988410   -2.150531    0.842649
    152          1           0       -3.777390   -5.750004    3.536167
    153          1           0       -4.816550   -4.400248    4.096968
    154          1           0       -3.025497   -4.282409    4.321698
    155          1           0        0.298554   -4.035208    0.423741
    156          1           0        2.052172   -7.277771   -1.810869
    157          1           0        1.636128   -6.045419   -3.164451
    158          1           0        0.535917   -7.300459   -2.542654
 ---------------------------------------------------------------------

 SCF Done:  E(RCAM-B3LYP) =  -4069.81370593     A.U. after   19 cycles

 Excitation energies and oscillator strengths:

 Excited State   1:      Singlet-A      1.6330 eV  759.25 nm  f=0.0009  <S**2>=0.000
     309 -> 315        0.11744
     310 -> 316       -0.11325
     311 -> 313        0.49158
     312 -> 314       -0.48211
 This state for optimization and/or second-order correction.
 Total Energy, E(TD-HF/TD-DFT) =  -4069.75369469
 Copying the excited state density for this state as the 1-particle RhoCI density.

 Excited State   2:      Singlet-A      1.7125 eV  724.00 nm  f=0.6679  <S**2>=0.000
     309 -> 315        0.12983
     310 -> 316        0.13012
     311 -> 313        0.47852
     312 -> 314        0.48786

 Excited State   3:      Singlet-A      2.1216 eV  584.40 nm  f=0.0011  <S**2>=0.000
     312 -> 313        0.70253

 Excited State   4:      Singlet-A      2.1753 eV  569.97 nm  f=0.0409  <S**2>=0.000
     309 -> 313        0.29423
     310 -> 314        0.57491
     311 -> 315       -0.11926
     312 -> 316       -0.23607

 Excited State   5:      Singlet-A      2.1965 eV  564.47 nm  f=0.1393  <S**2>=0.000
     309 -> 313        0.56599
     310 -> 314       -0.28971
     311 -> 315       -0.24963
     312 -> 316        0.13035

 The electronic state is 1-A.
 Alpha  occ. eigenvalues --  -46.88088 -46.87293 -19.26658 -19.25391 -19.19459
 Alpha  occ. eigenvalues --  -19.19105 -19.18412 -19.18407 -19.18403 -19.17456
 Alpha  occ. eigenvalues --  -14.42793 -14.42133 -14.41754 -14.40990 -14.39715
 Alpha  occ. eigenvalues --  -14.38988 -14.38911 -14.38212 -10.39453 -10.38276
 Alpha  occ. eigenvalues --  -10.35740 -10.35099 -10.34639 -10.33593 -10.32032
 Alpha  occ. eigenvalues --  -10.31769 -10.31310 -10.31257 -10.30909 -10.30902
 Alpha  occ. eigenvalues --  -10.30799 -10.30595 -10.30514 -10.30189 -10.30012
 Alpha  occ. eigenvalues --  -10.29956 -10.29935 -10.29841 -10.29582 -10.29521
 Alpha  occ. eigenvalues --  -10.29239 -10.29116 -10.29092 -10.29028 -10.28722
 Alpha  occ. eigenvalues --  -10.28540 -10.28388 -10.28129 -10.28107 -10.28100
 Alpha  occ. eigenvalues --  -10.27980 -10.27901 -10.27866 -10.27835 -10.27771
 Alpha  occ. eigenvalues --  -10.27719 -10.27660 -10.27619 -10.27478 -10.27426
 Alpha  occ. eigenvalues --  -10.27337 -10.27284 -10.27259 -10.27101 -10.27096
 Alpha  occ. eigenvalues --  -10.27034 -10.26739 -10.26579 -10.26349 -10.26317
 Alpha  occ. eigenvalues --  -10.26296 -10.26202 -10.26151 -10.26010 -10.25914
 Alpha  occ. eigenvalues --  -10.25807 -10.25622 -10.25593 -10.25522 -10.25150
 Alpha  occ. eigenvalues --  -10.25136 -10.25084 -10.24821 -10.24510 -10.24458
 Alpha  occ. eigenvalues --  -10.24311  -3.16823  -3.16045  -1.91704  -1.91293
 Alpha  occ. eigenvalues --   -1.91134  -1.90927  -1.90515  -1.90352  -1.17002
 Alpha  occ. eigenvalues --   -1.15754  -1.08862  -1.08023  -1.07501  -1.07027
 Alpha  occ. eigenvalues --   -1.06669  -1.06168  -1.04937  -1.04106  -1.04072
 Alpha  occ. eigenvalues --   -1.03549  -1.03288  -1.02728  -1.02674  -1.01735
 Alpha  occ. eigenvalues --   -0.92307  -0.91476  -0.89785  -0.89632  -0.89143
 Alpha  occ. eigenvalues --   -0.88774  -0.88542  -0.88147  -0.88041  -0.87901
 Alpha  occ. eigenvalues --   -0.87604  -0.87425  -0.87315  -0.86820  -0.85403
 Alpha  occ. eigenvalues --   -0.84648  -0.84172  -0.83549  -0.83269  -0.83022
 Alpha  occ. eigenvalues --   -0.82657  -0.82289  -0.81921  -0.81084  -0.80936
 Alpha  occ. eigenvalues --   -0.80001  -0.79117  -0.78306  -0.77561  -0.77281
 Alpha  occ. eigenvalues --   -0.76817  -0.76508  -0.76269  -0.75448  -0.75157
 Alpha  occ. eigenvalues --   -0.74457  -0.73078  -0.72338  -0.71992  -0.71216
 Alpha  occ. eigenvalues --   -0.70124  -0.69483  -0.69261  -0.68488  -0.67966
 Alpha  occ. eigenvalues --   -0.67676  -0.67211  -0.66862  -0.65704  -0.65183
 Alpha  occ. eigenvalues --   -0.64964  -0.64823  -0.64534  -0.64389  -0.64189
 Alpha  occ. eigenvalues --   -0.63852  -0.62628  -0.61657  -0.60746  -0.60203
 Alpha  occ. eigenvalues --   -0.60018  -0.59392  -0.59296  -0.58815  -0.58580
 Alpha  occ. eigenvalues --   -0.57999  -0.57889  -0.57595  -0.56999  -0.56720
 Alpha  occ. eigenvalues --   -0.56616  -0.56355  -0.55848  -0.55842  -0.55614
 Alpha  occ. eigenvalues --   -0.55325  -0.55053  -0.54877  -0.54762  -0.54379
 Alpha  occ. eigenvalues --   -0.53990  -0.53621  -0.53604  -0.53515  -0.53236
 Alpha  occ. eigenvalues --   -0.53131  -0.52883  -0.52757  -0.52641  -0.52432
 Alpha  occ. eigenvalues --   -0.52380  -0.52154  -0.52078  -0.52038  -0.51518
 Alpha  occ. eigenvalues --   -0.51494  -0.51316  -0.50915  -0.50770  -0.50345
 Alpha  occ. eigenvalues --   -0.50233  -0.50213  -0.49892  -0.49698  -0.49583
 Alpha  occ. eigenvalues --   -0.49545  -0.49441  -0.49176  -0.48944  -0.48787
 Alpha  occ. eigenvalues --   -0.48752  -0.48714  -0.48698  -0.48149  -0.48067
 Alpha  occ. eigenvalues --   -0.48019  -0.47948  -0.47607  -0.47257  -0.47112
 Alpha  occ. eigenvalues --   -0.46966  -0.46790  -0.46645  -0.46470  -0.46363
 Alpha  occ. eigenvalues --   -0.46189  -0.46109  -0.45931  -0.45660  -0.45452
 Alpha  occ. eigenvalues --   -0.45373  -0.44910  -0.44864  -0.44841  -0.44478
 Alpha  occ. eigenvalues --   -0.44425  -0.44331  -0.44160  -0.44082  -0.43867
 Alpha  occ. eigenvalues --   -0.43820  -0.43751  -0.43712  -0.43497  -0.43349
 Alpha  occ. eigenvalues --   -0.43227  -0.43084  -0.42908  -0.42784  -0.42532
 Alpha  occ. eigenvalues --   -0.42303  -0.42252  -0.42034  -0.41994  -0.41905
 Alpha  occ. eigenvalues --   -0.41611  -0.41452  -0.41257  -0.41222  -0.41170
 Alpha  occ. eigenvalues --   -0.41089  -0.40836  -0.40786  -0.40555  -0.40392
 Alpha  occ. eigenvalues --   -0.40378  -0.40119  -0.39758  -0.39633  -0.39151
 Alpha  occ. eigenvalues --   -0.38740  -0.38221  -0.38039  -0.37658  -0.37608
 Alpha  occ. eigenvalues --   -0.37321  -0.37040  -0.36924  -0.36826  -0.36510
 Alpha  occ. eigenvalues --   -0.36168  -0.35678  -0.34606  -0.34144  -0.33869
 Alpha  occ. eigenvalues --   -0.33522  -0.33169  -0.32759  -0.31634  -0.31370
 Alpha  occ. eigenvalues --   -0.30969  -0.30563  -0.30270  -0.29759  -0.29617
 Alpha  occ. eigenvalues --   -0.29326  -0.28974  -0.28804  -0.24414  -0.23630
 Alpha  occ. eigenvalues --   -0.21459  -0.20756
 Alpha virt. eigenvalues --   -0.09097  -0.08412  -0.02068  -0.01325  -0.00394
 Alpha virt. eigenvalues --    0.00318   0.01935   0.02666   0.03184   0.03730
 Alpha virt. eigenvalues --    0.04208   0.04563   0.04810   0.05452   0.05936

 Mulliken charges:
               1
     1  Mg   0.812694
     2  C   -0.005494
     3  C   -0.095896
     4  C   -0.043856
     5  C   -0.062875
     6  N   -0.255147
     7  C   -0.058788
     8  C   -0.000786
     9  C   -0.086362
    10  C    0.041466
    11  C    0.104887
    12  C    0.021284
    13  C   -0.076154
    14  H    0.042750
    15  N   -0.429341
    16  C    0.163927
    17  C   -0.179796
    18  C   -0.004356
    19  C    0.149213
    20  C    0.110560
    21  C    0.012372
    22  O   -0.248062
    23  C    0.063061
    24  N   -0.337721
    25  C    0.039909
    26  C   -0.028105
    27  C   -0.024288
    28  C    0.075487
    29  C    0.075893
    30  C    0.034791
    31  C   -0.004930
    32  N   -0.309062
    33  C    0.082075
    34  C   -0.168266
    35  C    0.010372
    36  C    0.078852
    37  C    0.126503
    38  C    0.047311
    39  O   -0.184391
    40  C   -0.007007
    41  C    0.214327
    42  O   -0.251041
    43  O   -0.304520
    44  C    0.156374
    45  H   -0.018181
    46  H   -0.016235
    47  H   -0.040323
    48  H    0.001442
    49  H   -0.005015
    50  H    0.026348
    51  H    0.018269
    52  H    0.017171
    53  H    0.010803
    54  H    0.060434
    55  H    0.020487
    56  H    0.018422
    57  H    0.005509
    58  H    0.027981
    59  H    0.036645
    60  H    0.037827
    61  H    0.036854
    62  H    0.028382
    63  H    0.017462
    64  H    0.010087
    65  H    0.023913
    66  H    0.012556
    67  H    0.005251
    68  H    0.006952
    69  H    0.005177
    70  H    0.009418
    71  H    0.018822
    72  H    0.029676
    73  H    0.050689
    74  H    0.009784
    75  H    0.046604
    76  H    0.035941
    77  H    0.043856
    78  H    0.045065
    79  H    0.051370
    80  Mg   0.836017
    81  C   -0.019322
    82  C   -0.087816
    83  C   -0.045807
    84  C   -0.066723
    85  N   -0.254292
    86  C   -0.050477
    87  C   -0.019771
    88  C   -0.075620
    89  C    0.042767
    90  C    0.043195
    91  C    0.064900
    92  C   -0.077065
    93  H    0.029572
    94  N   -0.423393
    95  C    0.162499
    96  C   -0.175168
    97  C   -0.008428
    98  C    0.151880
    99  C    0.100170
   100  C    0.015174
   101  O   -0.253988
   102  C    0.061442
   103  N   -0.350381
   104  C    0.037081
   105  C   -0.019477
   106  C   -0.034700
   107  C    0.089587
   108  C    0.073937
   109  C    0.034946
   110  C   -0.007515
   111  N   -0.324382
   112  C    0.079299
   113  C   -0.164298
   114  C    0.003536
   115  C    0.095068
   116  C    0.131632
   117  C    0.042137
   118  O   -0.185211
   119  C    0.003609
   120  C    0.205146
   121  O   -0.256103
   122  O   -0.288169
   123  C    0.153821
   124  H   -0.021556
   125  H   -0.016540
   126  H   -0.041536
   127  H    0.017722
   128  H   -0.008174
   129  H    0.055311
   130  H    0.026787
   131  H    0.043898
   132  H    0.010924
   133  H    0.037571
   134  H    0.021996
   135  H    0.015223
   136  H    0.005661
   137  H    0.024004
   138  H    0.038431
   139  H    0.037404
   140  H    0.035521
   141  H    0.033116
   142  H    0.013736
   143  H    0.011341
   144  H    0.024398
   145  H    0.012185
   146  H    0.004309
   147  H    0.005517
   148  H    0.003185
   149  H    0.010647
   150  H    0.017313
   151  H    0.030640
   152  H    0.046073
   153  H    0.007319
   154  H    0.046761
   155  H    0.054882
   156  H    0.043634
   157  H    0.044180
   158  H    0.051507
 Sum of Mulliken charges =  -0.00000

 Dipole moment (field-independent basis, Debye):
    X=              4.2552    Y=              5.6837    Z=             -4.2363  Tot=              8.2679
 Quadrupole moment (field-independent basis, Debye-Ang):
   XX=           -507.0320   YY=           -560.8418   ZZ=           -454.8885
   XY=             17.1125   XZ=            -39.2083   YZ=              5.8767

 Normal termination of Gaussian 16 at Thu Sep  9 05:49:21 2021.
