 Gaussian 16, Revision A.03,
 Gaussian 16:  ES64L-G16RevA.03 25-Dec-2016

 -----------------------------------
 #p cam-b3lyp/Def2SVP td=(nstates=5)
 -----------------------------------

 --------------------------------
 TDDFT excited states in gaussian
 --------------------------------
 Symbolic Z-matrix:
 Charge =  0 Multiplicity = 1

                         Standard orientation:
 ---------------------------------------------------------------------
 Center     Atomic      Atomic             Coordinates (Angstroms)
 Number     Number       Type             X           Y           Z
 ---------------------------------------------------------------------
      1         12           0        3.402050   -1.915175    0.087241
      2          6           0        4.962072    0.787276   -1.666413
      3          6           0        5.160736   -0.944195    2.845372
      4          6           0        2.391743   -4.554180    1.526529
      5          6           0        2.676813   -3.317819   -3.019571
      6          7           0        4.845058   -0.270182    0.422461
      7          6           0        5.311971    0.732161   -0.315422
      8          6           0        6.148425    1.762616    0.500594
      9          6           0        6.596221    0.823203    1.708477
     10          6           0        5.448230   -0.170443    1.681891
     11          6           0        7.899561    0.075031    1.447625
     12          6           0        5.282725    2.967100    1.002103
     13          6           0        6.075524    4.170399    1.520655
     14          1           0        5.556599    5.508040    1.278205
     15          7           0        3.330140   -2.380845    2.005790
     16          6           0        4.109775   -1.875302    2.991630
     17          6           0        3.670075   -2.537057    4.238796
     18          6           0        2.701389   -3.606313    3.869429
     19          6           0        2.790030   -3.573493    2.431916
     20          6           0        4.124098   -2.110236    5.600940
     21          6           0        1.841360   -4.520812    4.683170
     22          8           0        1.248231   -5.531152    4.171325
     23          6           0        1.781663   -4.250907    6.131144
     24          7           0        2.835532   -3.793562   -0.625749
     25          6           0        2.382532   -4.739062    0.204796
     26          6           0        1.776468   -5.884556   -0.550497
     27          6           0        1.689904   -5.413280   -2.073703
     28          6           0        2.375448   -4.031832   -1.932634
     29          6           0        2.536470   -7.215728   -0.470561
     30          6           0        0.298865   -5.480488   -2.752609
     31          6           0       -0.630782   -4.469835   -2.119020
     32          7           0        3.584848   -1.305592   -1.987858
     33          6           0        3.241185   -2.057221   -3.120829
     34          6           0        3.645810   -1.270339   -4.300305
     35          6           0        4.215497   -0.115454   -3.767818
     36          6           0        4.193409   -0.188768   -2.345697
     37          6           0        3.521601   -1.679169   -5.657458
     38          6           0        4.860038    1.152405   -4.069408
     39          8           0        5.069033    1.795657   -5.098992
     40          6           0        5.479291    1.732707   -2.721965
     41          6           0        5.081238    3.180299   -2.625320
     42          8           0        3.887700    3.506045   -2.461849
     43          8           0        6.182552    3.936909   -2.502066
     44          6           0        5.856431    5.382191   -2.371842
     45          1           0        5.833295   -0.877889    3.702816
     46          1           0        1.934850   -5.435580    1.981306
     47          1           0        2.405952   -3.653695   -4.022205
     48          1           0        7.027132    2.146932   -0.017671
     49          1           0        6.611326    1.359474    2.657112
     50          1           0        8.239043    0.212130    0.421040
     51          1           0        7.675512   -0.974846    1.637505
     52          1           0        8.659978    0.355773    2.176820
     53          1           0        4.762486    2.679961    1.915866
     54          1           0        4.593814    3.297498    0.223922
     55          1           0        7.125451    4.110009    1.232704
     56          1           0        6.090324    4.126018    2.609696
     57          1           0        4.958207   -1.411934    5.544521
     58          1           0        4.540213   -2.991596    6.088549
     59          1           0        3.305550   -1.710764    6.199884
     60          1           0        2.786877   -4.306967    6.549414
     61          1           0        1.050009   -4.948540    6.537151
     62          1           0        1.442038   -3.226339    6.285625
     63          1           0        0.773578   -6.105433   -0.187383
     64          1           0        2.331831   -6.008866   -2.723228
     65          1           0        1.934446   -8.041514   -0.090626
     66          1           0        3.422088   -7.061714    0.145273
     67          1           0        2.980152   -7.545851   -1.409487
     68          1           0       -0.147678   -6.463316   -2.605665
     69          1           0        0.333742   -5.289057   -3.825170
     70          1           0       -1.001909   -4.997358   -1.241059
     71          1           0       -1.446052   -4.223570   -2.800123
     72          1           0       -0.085881   -3.593816   -1.766655
     73          1           0        3.151351   -0.812217   -6.204521
     74          1           0        2.844859   -2.527758   -5.755024
     75          1           0        4.554882   -1.940805   -5.884909
     76          1           0        6.559365    1.609099   -2.794649
     77          1           0        6.396349    5.905451   -3.161096
     78          1           0        6.075993    5.657666   -1.340188
     79          1           0        4.829100    5.667128   -2.601496
     80         12           0       -3.553695    1.881329    0.657812
     81          6           0       -5.004218   -0.957744   -0.989838
     82          6           0       -2.296868    2.810561   -2.373941
     83          6           0       -1.893781    4.137286    2.148697
     84          6           0       -3.938386    0.158924    3.662980
     85          7           0       -3.700716    0.963399   -1.349198
     86          6           0       -4.329683   -0.081644   -1.865558
     87          6           0       -4.297647   -0.150038   -3.415994
     88          6           0       -2.974062    0.723770   -3.667942
     89          6           0       -3.003541    1.581838   -2.404802
     90          6           0       -1.697418   -0.100478   -3.655739
     91          6           0       -5.558847    0.516173   -4.069870
     92          6           0       -5.746169    0.215104   -5.558501
     93          1           0       -7.104768    0.067665   -6.073219
     94          7           0       -2.697101    3.525422   -0.050533
     95          6           0       -2.269757    3.741409   -1.312283
     96          6           0       -1.696195    5.096091   -1.316454
     97          6           0       -1.670677    5.598984    0.083961
     98          6           0       -2.075818    4.405928    0.799902
     99          6           0       -1.311906    5.813138   -2.578031
    100          6           0       -1.324900    6.929380    0.681185
    101          8           0       -1.141929    7.074636    1.941442
    102          6           0       -1.115148    8.037040   -0.262525
    103          7           0       -2.801229    2.033907    2.589875
    104          6           0       -2.161778    3.144412    2.997039
    105          6           0       -1.956042    3.137902    4.493042
    106          6           0       -2.808409    1.899551    5.038537
    107          6           0       -3.309519    1.325828    3.694996
    108          6           0       -0.508149    3.006046    4.964848
    109          6           0       -3.851736    2.198312    6.149783
    110          6           0       -4.970249    3.048956    5.592338
    111          7           0       -4.489711    0.037870    1.285168
    112          6           0       -4.510673   -0.508047    2.587328
    113          6           0       -5.165721   -1.828974    2.495133
    114          6           0       -5.462099   -1.971038    1.131141
    115          6           0       -5.004668   -0.828778    0.420169
    116          6           0       -5.369519   -2.733648    3.575023
    117          6           0       -6.048388   -2.832249    0.129509
    118          8           0       -6.672684   -3.892182    0.152861
    119          6           0       -5.664777   -2.270614   -1.307085
    120          6           0       -6.914586   -2.242033   -2.143555
    121          8           0       -7.855484   -1.484276   -1.848385
    122          8           0       -6.707362   -2.948636   -3.269673
    123          6           0       -7.915201   -2.940526   -4.137366
    124          1           0       -1.668596    3.069289   -3.226714
    125          1           0       -1.424089    4.934783    2.729094
    126          1           0       -4.184023   -0.396922    4.570382
    127          1           0       -4.169391   -1.145359   -3.824240
    128          1           0       -3.073981    1.345619   -4.553756
    129          1           0       -1.880894   -1.123092   -3.361219
    130          1           0       -1.040316    0.385442   -2.946417
    131          1           0       -1.196242   -0.033588   -4.625624
    132          1           0       -5.406944    1.602260   -4.115504
    133          1           0       -6.449752    0.253679   -3.533207
    134          1           0       -5.115957   -0.617872   -5.893058
    135          1           0       -5.386052    1.071505   -6.133741
    136          1           0       -1.289136    5.131431   -3.437191
    137          1           0       -0.271595    6.134723   -2.458827
    138          1           0       -1.933266    6.690513   -2.769829
    139          1           0       -0.314424    7.778037   -0.951150
    140          1           0       -0.965676    8.923899    0.356352
    141          1           0       -2.021732    8.159196   -0.865681
    142          1           0       -2.334847    4.049114    4.939469
    143          1           0       -2.165389    1.129153    5.488929
    144          1           0       -0.185758    3.836082    5.621483
    145          1           0        0.130088    2.940442    4.093707
    146          1           0       -0.276320    2.081713    5.491231
    147          1           0       -3.392566    2.777814    6.954449
    148          1           0       -4.274262    1.304774    6.597051
    149          1           0       -4.562469    4.062516    5.651579
    150          1           0       -5.867341    2.948301    6.199893
    151          1           0       -5.144662    2.825173    4.533499
    152          1           0       -6.376346   -3.116668    3.474527
    153          1           0       -5.223313   -2.244966    4.536059
    154          1           0       -4.587262   -3.467869    3.364647
    155          1           0       -4.906716   -2.933359   -1.726217
    156          1           0       -8.177214   -3.985470   -4.330009
    157          1           0       -7.650098   -2.318103   -5.012617
    158          1           0       -8.837712   -2.566713   -3.708779
 ---------------------------------------------------------------------

 SCF Done:  E(RCAM-B3LYP) =  -4069.81280233     A.U. after   19 cycles

 Excitation energies and oscillator strengths:

 Excited State   1:      Singlet-A      1.6517 eV  750.64 nm  f=0.1492  <S**2>=0.000
     309 -> 315        0.11636
     310 -> 316        0.11982
     311 -> 313        0.47480
     312 -> 314        0.49650
 This state for optimization and/or second-order correction.
 Total Energy, E(TD-HF/TD-DFT) =  -4069.75210289
 Copying the excited state density for this state as the 1-particle RhoCI density.

 Excited State   2:      Singlet-A      1.6941 eV  731.85 nm  f=0.5031  <S**2>=0.000
     309 -> 315        0.12926
     310 -> 316       -0.12309
     311 -> 313        0.49453
     312 -> 314       -0.47327

 Excited State   3:      Singlet-A      2.1855 eV  567.31 nm  f=0.0541  <S**2>=0.000
     309 -> 313        0.34955
     310 -> 314        0.54027
     311 -> 315       -0.14603
     312 -> 316       -0.22724

 Excited State   4:      Singlet-A      2.1938 eV  565.15 nm  f=0.1349  <S**2>=0.000
     309 -> 313        0.53759
     310 -> 314       -0.34642
     311 -> 315       -0.23451
     312 -> 316        0.15142

 Excited State   5:      Singlet-A      2.2184 eV  558.88 nm  f=0.0000  <S**2>=0.000
     312 -> 313        0.70703

 The electronic state is 1-A.
 Alpha  occ. eigenvalues --  -46.87945 -46.87383 -19.26551 -19.26191 -19.19317
 Alpha  occ. eigenvalues --  -19.18977 -19.18948 -19.18461 -19.18401 -19.17791
 Alpha  occ. eigenvalues --  -14.42592 -14.42204 -14.41593 -14.41102 -14.39550
 Alpha  occ. eigenvalues --  -14.39059 -14.38760 -14.38323 -10.39360 -10.38904
 Alpha  occ. eigenvalues --  -10.35580 -10.35137 -10.34621 -10.33975 -10.31948
 Alpha  occ. eigenvalues --  -10.31625 -10.31568 -10.31044 -10.30993 -10.30748
 Alpha  occ. eigenvalues --  -10.30710 -10.30672 -10.30335 -10.30141 -10.30072
 Alpha  occ. eigenvalues --  -10.30052 -10.29879 -10.29807 -10.29685 -10.29408
 Alpha  occ. eigenvalues --  -10.29121 -10.29112 -10.28857 -10.28568 -10.28530
 Alpha  occ. eigenvalues --  -10.28437 -10.28429 -10.28233 -10.28100 -10.27976
 Alpha  occ. eigenvalues --  -10.27874 -10.27785 -10.27752 -10.27688 -10.27632
 Alpha  occ. eigenvalues --  -10.27611 -10.27563 -10.27538 -10.27403 -10.27373
 Alpha  occ. eigenvalues --  -10.27304 -10.27281 -10.27208 -10.27155 -10.26933
 Alpha  occ. eigenvalues --  -10.26823 -10.26770 -10.26548 -10.26438 -10.26347
 Alpha  occ. eigenvalues --  -10.26295 -10.26178 -10.26155 -10.26106 -10.26054
 Alpha  occ. eigenvalues --  -10.25673 -10.25578 -10.25562 -10.25499 -10.25416
 Alpha  occ. eigenvalues --  -10.25026 -10.24929 -10.24839 -10.24632 -10.24572
 Alpha  occ. eigenvalues --  -10.24440  -3.16687  -3.16134  -1.91568  -1.91155
 Alpha  occ. eigenvalues --   -1.91017  -1.90998  -1.90605  -1.90441  -1.16902
 Alpha  occ. eigenvalues --   -1.16478  -1.08870  -1.08410  -1.07345  -1.06932
 Alpha  occ. eigenvalues --   -1.06761  -1.06718  -1.04728  -1.04197  -1.03904
 Alpha  occ. eigenvalues --   -1.03394  -1.03386  -1.02772  -1.02568  -1.01835
 Alpha  occ. eigenvalues --   -0.92151  -0.91715  -0.89661  -0.89303  -0.89291
 Alpha  occ. eigenvalues --   -0.88834  -0.88411  -0.88074  -0.88054  -0.87811
 Alpha  occ. eigenvalues --   -0.87503  -0.87430  -0.87384  -0.86775  -0.85104
 Alpha  occ. eigenvalues --   -0.84711  -0.84073  -0.83736  -0.83108  -0.82790
 Alpha  occ. eigenvalues --   -0.82665  -0.82368  -0.81785  -0.81370  -0.80767
 Alpha  occ. eigenvalues --   -0.80187  -0.78964  -0.78304  -0.77364  -0.77078
 Alpha  occ. eigenvalues --   -0.76872  -0.76664  -0.76086  -0.75543  -0.75030
 Alpha  occ. eigenvalues --   -0.74633  -0.72940  -0.72413  -0.71816  -0.71328
 Alpha  occ. eigenvalues --   -0.70033  -0.69614  -0.69009  -0.68541  -0.67802
 Alpha  occ. eigenvalues --   -0.67341  -0.67329  -0.66927  -0.65423  -0.65028
 Alpha  occ. eigenvalues --   -0.64997  -0.64771  -0.64516  -0.64414  -0.64402
 Alpha  occ. eigenvalues --   -0.64005  -0.62510  -0.62070  -0.60588  -0.60059
 Alpha  occ. eigenvalues --   -0.59940  -0.59490  -0.59145  -0.58736  -0.58671
 Alpha  occ. eigenvalues --   -0.58173  -0.57806  -0.57467  -0.57320  -0.57008
 Alpha  occ. eigenvalues --   -0.56490  -0.56183  -0.55911  -0.55681  -0.55657
 Alpha  occ. eigenvalues --   -0.55507  -0.55182  -0.55078  -0.54710  -0.54326
 Alpha  occ. eigenvalues --   -0.54013  -0.53612  -0.53461  -0.53376  -0.53102
 Alpha  occ. eigenvalues --   -0.52978  -0.52895  -0.52873  -0.52641  -0.52577
 Alpha  occ. eigenvalues --   -0.52342  -0.52253  -0.52148  -0.51755  -0.51600
 Alpha  occ. eigenvalues --   -0.51373  -0.51358  -0.50956  -0.50717  -0.50164
 Alpha  occ. eigenvalues --   -0.50154  -0.50057  -0.49719  -0.49662  -0.49612
 Alpha  occ. eigenvalues --   -0.49398  -0.49241  -0.49201  -0.48901  -0.48816
 Alpha  occ. eigenvalues --   -0.48775  -0.48617  -0.48587  -0.48300  -0.48198
 Alpha  occ. eigenvalues --   -0.48056  -0.47841  -0.47448  -0.47315  -0.46948
 Alpha  occ. eigenvalues --   -0.46829  -0.46681  -0.46529  -0.46455  -0.46335
 Alpha  occ. eigenvalues --   -0.46270  -0.46027  -0.45988  -0.45873  -0.45588
 Alpha  occ. eigenvalues --   -0.45328  -0.45048  -0.44778  -0.44638  -0.44308
 Alpha  occ. eigenvalues --   -0.44274  -0.44229  -0.44188  -0.44175  -0.43873
 Alpha  occ. eigenvalues --   -0.43831  -0.43706  -0.43650  -0.43510  -0.43347
 Alpha  occ. eigenvalues --   -0.43189  -0.43130  -0.42936  -0.42792  -0.42729
 Alpha  occ. eigenvalues --   -0.42666  -0.42339  -0.42157  -0.41869  -0.41761
 Alpha  occ. eigenvalues --   -0.41650  -0.41419  -0.41277  -0.41201  -0.40987
 Alpha  occ. eigenvalues --   -0.40944  -0.40726  -0.40696  -0.40472  -0.40443
 Alpha  occ. eigenvalues --   -0.40314  -0.40286  -0.39971  -0.39559  -0.39289
 Alpha  occ. eigenvalues --   -0.38579  -0.38183  -0.37853  -0.37450  -0.37396
 Alpha  occ. eigenvalues --   -0.37394  -0.37048  -0.36944  -0.36905  -0.36598
 Alpha  occ. eigenvalues --   -0.36362  -0.36013  -0.34446  -0.34046  -0.33984
 Alpha  occ. eigenvalues --   -0.33659  -0.33354  -0.32893  -0.31475  -0.31189
 Alpha  occ. eigenvalues --   -0.31025  -0.30701  -0.30263  -0.29704  -0.29619
 Alpha  occ. eigenvalues --   -0.29508  -0.29014  -0.28913  -0.24236  -0.23754
 Alpha  occ. eigenvalues --   -0.21286  -0.20825
 Alpha virt. eigenvalues --   -0.08938  -0.08490  -0.01894  -0.01418  -0.00212
 Alpha virt. eigenvalues --    0.00278   0.02000   0.02367   0.02575   0.03606
 Alpha virt. eigenvalues --    0.04594   0.04835   0.05039   0.05364   0.06070

 Mulliken charges:
               1
     1  Mg   0.839165
     2  C   -0.002997
     3  C   -0.093957
     4  C   -0.045193
     5  C   -0.064587
     6  N   -0.257005
     7  C   -0.051980
     8  C   -0.014330
     9  C   -0.087136
    10  C    0.047003
    11  C    0.104721
    12  C    0.053436
    13  C   -0.072455
    14  H    0.037733
    15  N   -0.433369
    16  C    0.169083
    17  C   -0.177163
    18  C   -0.003520
    19  C    0.149551
    20  C    0.110164
    21  C    0.012552
    22  O   -0.248291
    23  C    0.062512
    24  N   -0.341254
    25  C    0.041599
    26  C   -0.028779
    27  C   -0.024228
    28  C    0.074952
    29  C    0.075907
    30  C    0.035149
    31  C   -0.010589
    32  N   -0.310071
    33  C    0.079733
    34  C   -0.172081
    35  C    0.007321
    36  C    0.082111
    37  C    0.127770
    38  C    0.044274
    39  O   -0.189998
    40  C   -0.004887
    41  C    0.212942
    42  O   -0.259651
    43  O   -0.304015
    44  C    0.158599
    45  H   -0.017150
    46  H   -0.015841
    47  H   -0.042138
    48  H    0.000720
    49  H   -0.003423
    50  H    0.025449
    51  H    0.016470
    52  H    0.017114
    53  H    0.012267
    54  H    0.043840
    55  H    0.017325
    56  H    0.018768
    57  H    0.006405
    58  H    0.027455
    59  H    0.039095
    60  H    0.037706
    61  H    0.036276
    62  H    0.030337
    63  H    0.018223
    64  H    0.009699
    65  H    0.024448
    66  H    0.012437
    67  H    0.004918
    68  H    0.008564
    69  H    0.003482
    70  H    0.012979
    71  H    0.019474
    72  H    0.030195
    73  H    0.044815
    74  H    0.008745
    75  H    0.046737
    76  H    0.035670
    77  H    0.042983
    78  H    0.047965
    79  H    0.050690
    80  Mg   0.836666
    81  C   -0.016149
    82  C   -0.085128
    83  C   -0.045593
    84  C   -0.065273
    85  N   -0.254600
    86  C   -0.050358
    87  C   -0.014456
    88  C   -0.091468
    89  C    0.043897
    90  C    0.112455
    91  C    0.062738
    92  C   -0.077420
    93  H    0.033749
    94  N   -0.424269
    95  C    0.161633
    96  C   -0.167851
    97  C   -0.008337
    98  C    0.153650
    99  C    0.097864
   100  C    0.015856
   101  O   -0.255106
   102  C    0.060963
   103  N   -0.350163
   104  C    0.037418
   105  C   -0.019492
   106  C   -0.034251
   107  C    0.088476
   108  C    0.074681
   109  C    0.035103
   110  C   -0.007494
   111  N   -0.323997
   112  C    0.077584
   113  C   -0.163143
   114  C    0.002054
   115  C    0.095436
   116  C    0.131233
   117  C    0.042095
   118  O   -0.189280
   119  C    0.000102
   120  C    0.211284
   121  O   -0.251051
   122  O   -0.306097
   123  C    0.152145
   124  H   -0.012058
   125  H   -0.017051
   126  H   -0.041768
   127  H   -0.002775
   128  H   -0.003778
   129  H    0.019672
   130  H    0.020921
   131  H    0.017715
   132  H    0.014122
   133  H    0.037044
   134  H    0.019908
   135  H    0.020203
   136  H    0.011935
   137  H    0.032816
   138  H    0.037574
   139  H    0.039649
   140  H    0.034597
   141  H    0.033759
   142  H    0.013895
   143  H    0.009931
   144  H    0.023529
   145  H    0.012034
   146  H    0.002159
   147  H    0.004636
   148  H    0.003205
   149  H    0.010496
   150  H    0.017476
   151  H    0.031125
   152  H    0.044974
   153  H    0.007196
   154  H    0.048918
   155  H    0.034331
   156  H    0.043062
   157  H    0.049522
   158  H    0.053485
 Sum of Mulliken charges =  -0.00000

 Dipole moment (field-independent basis, Debye):
    X=              5.6077    Y=              1.1733    Z=              1.0299  Tot=              5.8209
 Quadrupole moment (field-independent basis, Debye-Ang):
   XX=           -526.2606   YY=           -521.3621   ZZ=           -472.6938
   XY=            -13.2126   XZ=             40.0701   YZ=             10.4429

 Normal termination of Gaussian 16 at Fri Sep  3 12:13:19 2021.
