 Gaussian 16, Revision A.03,
 Gaussian 16:  ES64L-G16RevA.03 25-Dec-2016

 -----------------------------------
 #p cam-b3lyp/Def2SVP td=(nstates=5)
 -----------------------------------

 --------------------------------
 TDDFT excited states in gaussian
 --------------------------------
 Symbolic Z-matrix:
 Charge =  0 Multiplicity = 1

                         Standard orientation:
 ---------------------------------------------------------------------
 Center     Atomic      Atomic             Coordinates (Angstroms)
 Number     Number       Type             X           Y           Z
 ---------------------------------------------------------------------
      1         12           0        6.890196    0.349786    0.462825
      2          6           0        7.057874   -2.795555   -1.237448
      3          6           0        7.901437    1.809890   -2.450687
      4          6           0        7.188171    3.074133    2.058371
      5          6           0        7.004670   -1.429988    3.456980
      6          7           0        7.383654   -0.491888   -1.524316
      7          6           0        7.349972   -1.707030   -2.062335
      8          6           0        7.580353   -1.707059   -3.603211
      9          6           0        8.377456   -0.332905   -3.738584
     10          6           0        7.829794    0.386770   -2.518724
     11          6           0        9.886917   -0.486160   -3.581927
     12          6           0        6.236098   -1.671019   -4.405339
     13          6           0        6.356400   -1.996208   -5.897027
     14          1           0        5.279527   -2.731800   -6.542471
     15          7           0        6.984106    2.212444   -0.188741
     16          6           0        7.404716    2.623235   -1.409242
     17          6           0        7.286871    4.097272   -1.406128
     18          6           0        6.943776    4.523387   -0.020918
     19          6           0        7.052105    3.273112    0.686512
     20          6           0        7.444915    4.937949   -2.635775
     21          6           0        6.586790    5.849189    0.573171
     22          8           0        6.552249    6.041203    1.836702
     23          6           0        6.361951    6.954969   -0.375374
     24          7           0        7.291937    0.786698    2.464162
     25          6           0        7.308363    2.049397    2.904962
     26          6           0        7.333373    2.104232    4.403730
     27          6           0        7.084406    0.608746    4.905019
     28          6           0        7.038512   -0.097340    3.527483
     29          6           0        8.625235    2.644729    5.032192
     30          6           0        5.908963    0.383394    5.888875
     31          6           0        4.594819    0.639477    5.185636
     32          7           0        6.831770   -1.740032    1.046172
     33          6           0        6.916016   -2.254690    2.347979
     34          6           0        6.942164   -3.724256    2.230669
     35          6           0        6.887674   -3.963594    0.858957
     36          6           0        6.857561   -2.721785    0.162325
     37          6           0        7.066781   -4.644252    3.308867
     38          6           0        6.872744   -4.979220   -0.181301
     39          8           0        6.788653   -6.208164   -0.192228
     40          6           0        7.105299   -4.262848   -1.584354
     41          6           0        6.072968   -4.792733   -2.541863
     42          8           0        4.861329   -4.541844   -2.379532
     43          8           0        6.687340   -5.305247   -3.619090
     44          6           0        5.718549   -5.821964   -4.622385
     45          1           0        8.437205    2.349463   -3.234112
     46          1           0        7.183021    3.989230    2.654198
     47          1           0        6.954426   -2.052629    4.352104
     48          1           0        8.192733   -2.530473   -3.971185
     49          1           0        8.109734    0.204983   -4.647827
     50          1           0       10.154944   -1.496781   -3.274147
     51          1           0       10.174633    0.234045   -2.815755
     52          1           0       10.403919   -0.178808   -4.491334
     53          1           0        5.882268   -0.641956   -4.467739
     54          1           0        5.497646   -2.332257   -3.950608
     55          1           0        7.320914   -2.448316   -6.129878
     56          1           0        6.355838   -1.058144   -6.452217
     57          1           0        7.856308    4.362545   -3.464154
     58          1           0        8.209621    5.682735   -2.416163
     59          1           0        6.516133    5.435876   -2.914640
     60          1           0        7.262640    7.107443   -0.970404
     61          1           0        6.029672    7.802103    0.223629
     62          1           0        5.577451    6.665772   -1.075284
     63          1           0        6.539711    2.745521    4.784881
     64          1           0        7.950642    0.203236    5.428345
     65          1           0        8.468253    3.502566    5.686545
     66          1           0        9.315713    2.889365    4.225542
     67          1           0        9.201264    1.911032    5.595483
     68          1           0        5.970168    1.085293    6.719860
     69          1           0        5.884022   -0.623310    6.306219
     70          1           0        4.486346    1.721017    5.258690
     71          1           0        3.781111    0.129691    5.702558
     72          1           0        4.654702    0.388812    4.126359
     73          1           0        6.351201   -5.442677    3.112824
     74          1           0        6.869581   -4.161753    4.265899
     75          1           0        8.108909   -4.943914    3.199196
     76          1           0        8.119232   -4.509312   -1.897909
     77          1           0        5.975268   -6.864794   -4.809030
     78          1           0        5.750856   -5.133891   -5.467321
     79          1           0        4.685208   -5.921061   -4.288132
     80         12           0       -6.334636    0.732079    0.042962
     81          6           0       -8.948055   -1.719756    0.236804
     82          6           0       -8.474170    2.649434   -1.795713
     83          6           0       -3.917214    2.706384   -0.527680
     84          6           0       -4.088843   -1.798100    0.879825
     85          7           0       -8.416359    0.399482   -0.626416
     86          6           0       -9.328687   -0.542553   -0.440497
     87          6           0      -10.749544   -0.169874   -0.942342
     88          6           0      -10.336958    0.929252   -2.038044
     89          6           0       -9.008796    1.385980   -1.437996
     90          6           0      -10.062582    0.337343   -3.410528
     91          6           0      -11.638980    0.453582    0.190009
     92          6           0      -13.128690    0.555183   -0.144939
     93          1           0      -14.098641    0.353503    0.927900
     94          7           0       -6.335164    2.618397   -0.573782
     95          6           0       -7.295107    3.239959   -1.290327
     96          6           0       -6.811380    4.612507   -1.505473
     97          6           0       -5.414824    4.702441   -0.999255
     98          6           0       -5.155330    3.310007   -0.692865
     99          6           0       -7.678733    5.702675   -2.064651
    100          6           0       -4.465021    5.849666   -0.832124
    101          8           0       -3.218915    5.663375   -0.596849
    102          6           0       -5.018300    7.195127   -1.044492
    103          7           0       -4.276749    0.451397   -0.050076
    104          6           0       -3.446592    1.487568   -0.262496
    105          6           0       -2.009652    1.095021   -0.014527
    106          6           0       -2.069670   -0.360442    0.645477
    107          6           0       -3.593194   -0.605353    0.580052
    108          6           0       -1.107962    1.057332   -1.248185
    109          6           0       -1.349243   -0.545068    2.009143
    110          6           0       -2.061902    0.247958    3.080880
    111          7           0       -6.478167   -1.332706    0.662733
    112          6           0       -5.411953   -2.216950    0.937309
    113          6           0       -6.004604   -3.542917    1.207525
    114          6           0       -7.383901   -3.341817    1.047564
    115          6           0       -7.631722   -1.991022    0.682278
    116          6           0       -5.281341   -4.732991    1.502021
    117          6           0       -8.685758   -3.967646    1.094256
    118          8           0       -9.106324   -5.073707    1.431156
    119          6           0       -9.746595   -2.976117    0.447810
    120          6           0      -10.935513   -2.904627    1.366444
    121          8           0      -10.827524   -2.410754    2.502684
    122          8           0      -12.044796   -3.229069    0.677519
    123          6           0      -13.252179   -3.161933    1.543277
    124          1           0       -8.981926    3.227807   -2.568084
    125          1           0       -3.054193    3.371714   -0.605211
    126          1           0       -3.462979   -2.615580    1.244094
    127          1           0      -11.291617   -0.980391   -1.414570
    128          1           0      -11.047960    1.751040   -2.060322
    129          1           0      -10.075468   -0.742327   -3.393560
    130          1           0       -9.083874    0.699574   -3.696805
    131          1           0      -10.762229    0.747256   -4.144559
    132          1           0      -11.395874    1.519211    0.290400
    133          1           0      -11.511436   -0.079872    1.111848
    134          1           0      -13.395789   -0.046017   -1.022537
    135          1           0      -13.347161    1.582296   -0.447120
    136          1           0       -8.602188    5.299437   -2.498283
    137          1           0       -7.142654    6.131722   -2.918110
    138          1           0       -7.880219    6.494211   -1.339712
    139          1           0       -5.427456    7.262823   -2.049718
    140          1           0       -4.211252    7.886019   -0.793060
    141          1           0       -5.855711    7.342152   -0.353302
    142          1           0       -1.536970    1.777221    0.681363
    143          1           0       -1.601437   -1.119424    0.001628
    144          1           0       -0.219019    1.709959   -1.159179
    145          1           0       -1.698509    1.334769   -2.111215
    146          1           0       -0.744839    0.068969   -1.524775
    147          1           0       -0.331510   -0.150644    1.956250
    148          1           0       -1.277194   -1.581130    2.322802
    149          1           0       -1.650342    1.254247    2.958031
    150          1           0       -1.837037   -0.152737    4.067246
    151          1           0       -3.137750    0.304857    2.878519
    152          1           0       -5.801936   -5.220459    2.315566
    153          1           0       -4.247895   -4.515669    1.763825
    154          1           0       -5.361419   -5.252204    0.543229
    155          1           0      -10.010528   -3.372950   -0.533223
    156          1           0      -13.742204   -4.138715    1.484464
    157          1           0      -13.827689   -2.287344    1.186031
    158          1           0      -13.098094   -3.066611    2.611745
 ---------------------------------------------------------------------

 SCF Done:  E(RCAM-B3LYP) =  -4069.81197140     A.U. after   19 cycles

 Excitation energies and oscillator strengths:

 Excited State   1:      Singlet-A      1.6643 eV  744.96 nm  f=0.0101  <S**2>=0.000
     309 -> 315       -0.10779
     310 -> 316        0.13300
     311 -> 313       -0.43087
     312 -> 314        0.53466
 This state for optimization and/or second-order correction.
 Total Energy, E(TD-HF/TD-DFT) =  -4069.75080902
 Copying the excited state density for this state as the 1-particle RhoCI density.

 Excited State   2:      Singlet-A      1.6898 eV  733.72 nm  f=0.7304  <S**2>=0.000
     309 -> 315        0.13887
     310 -> 316        0.11120
     311 -> 313        0.53345
     312 -> 314        0.42993

 Excited State   3:      Singlet-A      2.1851 eV  567.41 nm  f=0.1059  <S**2>=0.000
     310 -> 314        0.64177
     312 -> 316       -0.27221

 Excited State   4:      Singlet-A      2.1942 eV  565.07 nm  f=0.0964  <S**2>=0.000
     309 -> 313        0.63967
     311 -> 315       -0.27861

 Excited State   5:      Singlet-A      2.6455 eV  468.67 nm  f=0.0000  <S**2>=0.000
     312 -> 313        0.70680

 The electronic state is 1-A.
 Alpha  occ. eigenvalues --  -46.87837 -46.87532 -19.26338 -19.26260 -19.19085
 Alpha  occ. eigenvalues --  -19.19066 -19.18792 -19.18619 -19.18204 -19.17935
 Alpha  occ. eigenvalues --  -14.42485 -14.42375 -14.41485 -14.41219 -14.39434
 Alpha  occ. eigenvalues --  -14.39228 -14.38629 -14.38470 -10.39141 -10.38994
 Alpha  occ. eigenvalues --  -10.35422 -10.35300 -10.34426 -10.34112 -10.31728
 Alpha  occ. eigenvalues --  -10.31677 -10.31445 -10.31185 -10.30937 -10.30914
 Alpha  occ. eigenvalues --  -10.30608 -10.30540 -10.30265 -10.30231 -10.30230
 Alpha  occ. eigenvalues --  -10.29993 -10.29957 -10.29744 -10.29656 -10.29310
 Alpha  occ. eigenvalues --  -10.29278 -10.29275 -10.28784 -10.28624 -10.28582
 Alpha  occ. eigenvalues --  -10.28577 -10.28396 -10.28288 -10.28148 -10.28043
 Alpha  occ. eigenvalues --  -10.27875 -10.27820 -10.27758 -10.27603 -10.27548
 Alpha  occ. eigenvalues --  -10.27531 -10.27474 -10.27470 -10.27438 -10.27380
 Alpha  occ. eigenvalues --  -10.27361 -10.27347 -10.27300 -10.27199 -10.27190
 Alpha  occ. eigenvalues --  -10.26941 -10.26751 -10.26607 -10.26349 -10.26340
 Alpha  occ. eigenvalues --  -10.26259 -10.26229 -10.26053 -10.25937 -10.25900
 Alpha  occ. eigenvalues --  -10.25877 -10.25778 -10.25669 -10.25447 -10.25204
 Alpha  occ. eigenvalues --  -10.24864 -10.24816 -10.24764 -10.24747 -10.24558
 Alpha  occ. eigenvalues --  -10.24541  -3.16581  -3.16282  -1.91463  -1.91165
 Alpha  occ. eigenvalues --   -1.91049  -1.90891  -1.90753  -1.90590  -1.16688
 Alpha  occ. eigenvalues --   -1.16552  -1.08665  -1.08543  -1.07190  -1.06874
 Alpha  occ. eigenvalues --   -1.06850  -1.06705  -1.04615  -1.04375  -1.03793
 Alpha  occ. eigenvalues --   -1.03534  -1.03267  -1.02902  -1.02445  -1.01980
 Alpha  occ. eigenvalues --   -0.92008  -0.91865  -0.89556  -0.89333  -0.89222
 Alpha  occ. eigenvalues --   -0.89047  -0.88319  -0.88049  -0.87903  -0.87705
 Alpha  occ. eigenvalues --   -0.87651  -0.87557  -0.87275  -0.87016  -0.85012
 Alpha  occ. eigenvalues --   -0.84891  -0.83973  -0.83707  -0.82957  -0.82822
 Alpha  occ. eigenvalues --   -0.82668  -0.82544  -0.81624  -0.81482  -0.80624
 Alpha  occ. eigenvalues --   -0.80327  -0.78811  -0.78517  -0.77249  -0.77022
 Alpha  occ. eigenvalues --   -0.76971  -0.76772  -0.75957  -0.75729  -0.74928
 Alpha  occ. eigenvalues --   -0.74648  -0.72805  -0.72563  -0.71702  -0.71450
 Alpha  occ. eigenvalues --   -0.69949  -0.69571  -0.68899  -0.68717  -0.67666
 Alpha  occ. eigenvalues --   -0.67478  -0.67241  -0.67103  -0.65322  -0.65163
 Alpha  occ. eigenvalues --   -0.64890  -0.64655  -0.64639  -0.64533  -0.64304
 Alpha  occ. eigenvalues --   -0.64040  -0.62341  -0.62160  -0.60453  -0.60218
 Alpha  occ. eigenvalues --   -0.59836  -0.59686  -0.59020  -0.58859  -0.58535
 Alpha  occ. eigenvalues --   -0.58296  -0.57626  -0.57440  -0.57336  -0.57098
 Alpha  occ. eigenvalues --   -0.56334  -0.56078  -0.56019  -0.55782  -0.55529
 Alpha  occ. eigenvalues --   -0.55377  -0.55347  -0.55097  -0.54566  -0.54342
 Alpha  occ. eigenvalues --   -0.53929  -0.53811  -0.53320  -0.53236  -0.53102
 Alpha  occ. eigenvalues --   -0.53030  -0.52952  -0.52787  -0.52754  -0.52578
 Alpha  occ. eigenvalues --   -0.52482  -0.52211  -0.51950  -0.51729  -0.51638
 Alpha  occ. eigenvalues --   -0.51560  -0.51232  -0.51070  -0.50553  -0.50378
 Alpha  occ. eigenvalues --   -0.50059  -0.49923  -0.49871  -0.49712  -0.49529
 Alpha  occ. eigenvalues --   -0.49385  -0.49239  -0.49124  -0.49094  -0.48989
 Alpha  occ. eigenvalues --   -0.48627  -0.48488  -0.48446  -0.48444  -0.48239
 Alpha  occ. eigenvalues --   -0.48218  -0.47717  -0.47476  -0.47315  -0.46995
 Alpha  occ. eigenvalues --   -0.46832  -0.46586  -0.46571  -0.46446  -0.46390
 Alpha  occ. eigenvalues --   -0.46198  -0.46134  -0.45939  -0.45860  -0.45692
 Alpha  occ. eigenvalues --   -0.45230  -0.45057  -0.44612  -0.44519  -0.44405
 Alpha  occ. eigenvalues --   -0.44349  -0.44174  -0.44116  -0.44034  -0.44017
 Alpha  occ. eigenvalues --   -0.43939  -0.43836  -0.43533  -0.43433  -0.43416
 Alpha  occ. eigenvalues --   -0.43264  -0.43058  -0.42822  -0.42771  -0.42742
 Alpha  occ. eigenvalues --   -0.42699  -0.42398  -0.42051  -0.41818  -0.41736
 Alpha  occ. eigenvalues --   -0.41565  -0.41544  -0.41339  -0.41169  -0.40903
 Alpha  occ. eigenvalues --   -0.40866  -0.40812  -0.40626  -0.40605  -0.40580
 Alpha  occ. eigenvalues --   -0.40327  -0.40264  -0.40138  -0.39487  -0.39238
 Alpha  occ. eigenvalues --   -0.38502  -0.38190  -0.37784  -0.37552  -0.37353
 Alpha  occ. eigenvalues --   -0.37298  -0.37115  -0.37083  -0.36763  -0.36660
 Alpha  occ. eigenvalues --   -0.36234  -0.36075  -0.34322  -0.34123  -0.33831
 Alpha  occ. eigenvalues --   -0.33761  -0.33222  -0.33046  -0.31325  -0.31177
 Alpha  occ. eigenvalues --   -0.31065  -0.30847  -0.30066  -0.29839  -0.29469
 Alpha  occ. eigenvalues --   -0.29354  -0.29211  -0.29084  -0.24116  -0.23906
 Alpha  occ. eigenvalues --   -0.21159  -0.20987
 Alpha virt. eigenvalues --   -0.08800  -0.08668  -0.01779  -0.01553  -0.00066
 Alpha virt. eigenvalues --    0.00077   0.02168   0.02336   0.02998   0.03346
 Alpha virt. eigenvalues --    0.04682   0.04847   0.05042   0.05264   0.06139

 Mulliken charges:
               1
     1  Mg   0.837357
     2  C   -0.003285
     3  C   -0.093968
     4  C   -0.045799
     5  C   -0.064114
     6  N   -0.256831
     7  C   -0.052734
     8  C   -0.013890
     9  C   -0.087026
    10  C    0.046296
    11  C    0.104760
    12  C    0.053404
    13  C   -0.071842
    14  H    0.035987
    15  N   -0.433349
    16  C    0.168472
    17  C   -0.176815
    18  C   -0.003606
    19  C    0.148654
    20  C    0.110097
    21  C    0.012891
    22  O   -0.249208
    23  C    0.062174
    24  N   -0.341031
    25  C    0.041133
    26  C   -0.028286
    27  C   -0.023931
    28  C    0.074424
    29  C    0.076084
    30  C    0.035200
    31  C   -0.004633
    32  N   -0.310318
    33  C    0.079763
    34  C   -0.170192
    35  C    0.008309
    36  C    0.082320
    37  C    0.127412
    38  C    0.045709
    39  O   -0.188505
    40  C   -0.005185
    41  C    0.213110
    42  O   -0.258039
    43  O   -0.304596
    44  C    0.157683
    45  H   -0.017353
    46  H   -0.016429
    47  H   -0.041532
    48  H    0.001014
    49  H   -0.003877
    50  H    0.025540
    51  H    0.016545
    52  H    0.016820
    53  H    0.011207
    54  H    0.043525
    55  H    0.018044
    56  H    0.018173
    57  H    0.005818
    58  H    0.027018
    59  H    0.040446
    60  H    0.037015
    61  H    0.036427
    62  H    0.032618
    63  H    0.016820
    64  H    0.009651
    65  H    0.023542
    66  H    0.012637
    67  H    0.004857
    68  H    0.006865
    69  H    0.004762
    70  H    0.009469
    71  H    0.017509
    72  H    0.027856
    73  H    0.047246
    74  H    0.009033
    75  H    0.046207
    76  H    0.035348
    77  H    0.043211
    78  H    0.046517
    79  H    0.053373
    80  Mg   0.837607
    81  C   -0.017100
    82  C   -0.088109
    83  C   -0.045600
    84  C   -0.064401
    85  N   -0.254586
    86  C   -0.049818
    87  C   -0.015085
    88  C   -0.090462
    89  C    0.045713
    90  C    0.114470
    91  C    0.062576
    92  C   -0.077736
    93  H    0.034651
    94  N   -0.423371
    95  C    0.162789
    96  C   -0.175038
    97  C   -0.008123
    98  C    0.152071
    99  C    0.099548
   100  C    0.015299
   101  O   -0.253492
   102  C    0.061261
   103  N   -0.350071
   104  C    0.037544
   105  C   -0.020070
   106  C   -0.035610
   107  C    0.088661
   108  C    0.073167
   109  C    0.034865
   110  C   -0.007720
   111  N   -0.324180
   112  C    0.078442
   113  C   -0.162750
   114  C    0.002176
   115  C    0.096332
   116  C    0.131460
   117  C    0.042476
   118  O   -0.187890
   119  C    0.000904
   120  C    0.211245
   121  O   -0.251092
   122  O   -0.305659
   123  C    0.152099
   124  H   -0.020165
   125  H   -0.015851
   126  H   -0.038758
   127  H   -0.000797
   128  H   -0.004614
   129  H    0.022425
   130  H    0.014374
   131  H    0.015887
   132  H    0.013875
   133  H    0.037668
   134  H    0.020683
   135  H    0.019425
   136  H    0.008521
   137  H    0.025534
   138  H    0.039452
   139  H    0.037839
   140  H    0.035952
   141  H    0.033932
   142  H    0.014261
   143  H    0.015459
   144  H    0.024103
   145  H    0.010603
   146  H    0.008531
   147  H    0.006903
   148  H    0.005194
   149  H    0.010743
   150  H    0.017399
   151  H    0.029457
   152  H    0.045822
   153  H    0.009774
   154  H    0.047464
   155  H    0.034891
   156  H    0.043794
   157  H    0.049345
   158  H    0.053506
 Sum of Mulliken charges =  -0.00000

 Dipole moment (field-independent basis, Debye):
    X=              1.1917    Y=              5.9991    Z=             -5.7247  Tot=              8.3775
 Quadrupole moment (field-independent basis, Debye-Ang):
   XX=           -445.6161   YY=           -550.7623   ZZ=           -474.1188
   XY=            -28.1930   XZ=             15.1156   YZ=            -11.7123

 Normal termination of Gaussian 16 at Sat Sep 11 17:47:51 2021.
