 Gaussian 16, Revision A.03,
 Gaussian 16:  ES64L-G16RevA.03 25-Dec-2016

 -----------------------------------
 #p cam-b3lyp/Def2SVP td=(nstates=5)
 -----------------------------------

 --------------------------------
 TDDFT excited states in gaussian
 --------------------------------
 Symbolic Z-matrix:
 Charge =  0 Multiplicity = 1

                         Standard orientation:
 ---------------------------------------------------------------------
 Center     Atomic      Atomic             Coordinates (Angstroms)
 Number     Number       Type             X           Y           Z
 ---------------------------------------------------------------------
      1         12           0        8.206988    0.413541    0.595717
      2          6           0        8.457729   -2.644758   -1.247148
      3          6           0        9.237319    2.026614   -2.229080
      4          6           0        8.430970    3.064328    2.321922
      5          6           0        8.306532   -1.503234    3.504622
      6          7           0        8.746528   -0.324861   -1.420295
      7          6           0        8.743104   -1.513676   -2.015172
      8          6           0        8.997538   -1.437068   -3.550348
      9          6           0        9.771851   -0.044547   -3.607997
     10          6           0        9.192324    0.607265   -2.364930
     11          6           0       11.281185   -0.179026   -3.433842
     12          6           0        7.665572   -1.386372   -4.371949
     13          6           0        7.815030   -1.638728   -5.875057
     14          1           0        6.761779   -2.361480   -6.571935
     15          7           0        8.277613    2.306195    0.033826
     16          6           0        8.709829    2.781269   -1.158978
     17          6           0        8.565492    4.251272   -1.088705
     18          6           0        8.193159    4.605615    0.309115
     19          6           0        8.312841    3.325416    0.958843
     20          6           0        8.727638    5.151603   -2.274818
     21          6           0        7.803161    5.895584    0.958742
     22          8           0        7.745403    6.027169    2.229145
     23          6           0        7.573370    7.040838    0.059503
     24          7           0        8.569442    0.762424    2.621684
     25          6           0        8.556283    2.003024    3.121407
     26          6           0        8.556841    1.987533    4.621306
     27          6           0        8.326960    0.466007    5.047764
     28          6           0        8.315324   -0.175009    3.638071
     29          6           0        9.828791    2.519936    5.295620
     30          6           0        7.140499    0.174312    6.000468
     31          6           0        5.833136    0.440628    5.288446
     32          7           0        8.176986   -1.702160    1.079408
     33          6           0        8.250075   -2.276117    2.356868
     34          6           0        8.304448   -3.737847    2.171239
     35          6           0        8.275743   -3.913126    0.789104
     36          6           0        8.234238   -2.640546    0.151053
     37          6           0        8.428678   -4.705391    3.207029
     38          6           0        8.295343   -4.878667   -0.297728
     39          8           0        8.233521   -6.106992   -0.367641
     40          6           0        8.536926   -4.093025   -1.661631
     41          6           0        7.529393   -4.594844   -2.659812
     42          8           0        6.311050   -4.372775   -2.505887
     43          8           0        8.169658   -5.045336   -3.749610
     44          6           0        7.226127   -5.530751   -4.791855
     45          1           0        9.775506    2.611673   -2.977413
     46          1           0        8.400057    3.950081    2.959827
     47          1           0        8.253475   -2.168171    4.368622
     48          1           0        9.630294   -2.231552   -3.946378
     49          1           0        9.508775    0.530939   -4.495312
     50          1           0       11.562470   -1.198276   -3.169403
     51          1           0       11.543890    0.509086   -2.630112
     52          1           0       11.806754    0.179725   -4.319196
     53          1           0        7.294335   -0.361751   -4.391860
     54          1           0        6.932090   -2.080928   -3.960948
     55          1           0        8.791036   -2.062688   -6.112920
     56          1           0        7.806309   -0.675672   -6.385593
     57          1           0        9.162216    4.623072   -3.122369
     58          1           0        9.475311    5.898249   -2.007959
     59          1           0        7.794541    5.646073   -2.545301
     60          1           0        8.480379    7.236680   -0.512801
     61          1           0        7.216594    7.852935    0.692004
     62          1           0        6.805243    6.771517   -0.666029
     63          1           0        7.745920    2.596381    5.018970
     64          1           0        9.192043    0.051231    5.565708
     65          1           0        9.646203    3.343129    5.986794
     66          1           0       10.527305    2.814189    4.512814
     67          1           0       10.409018    1.770509    5.833312
     68          1           0        7.176072    0.837188    6.864341
     69          1           0        7.127115   -0.851235    6.369691
     70          1           0        5.704123    1.515492    5.410325
     71          1           0        5.020725   -0.106895    5.767421
     72          1           0        5.914085    0.241269    4.219713
     73          1           0        7.730711   -5.505874    2.962005
     74          1           0        8.207888   -4.272030    4.182249
     75          1           0        9.477609   -4.981571    3.100620
     76          1           0        9.559906   -4.306943   -1.969644
     77          1           0        7.504426   -6.559046   -5.022927
     78          1           0        7.259291   -4.803140   -5.602957
     79          1           0        6.189627   -5.663267   -4.479690
     80         12           0       -7.655795    0.621697   -0.147178
     81          6           0      -10.295100   -1.756858    0.358433
     82          6           0       -9.992988    2.701816   -1.505587
     83          6           0       -5.290522    2.550472   -1.014773
     84          6           0       -5.403220   -2.017765    0.176622
     85          7           0       -9.830850    0.389849   -0.475319
     86          6           0      -10.736050   -0.532972   -0.186637
     87          6           0      -12.204609   -0.090238   -0.425177
     88          6           0      -11.935961    1.054871   -1.518536
     89          6           0      -10.510145    1.437260   -1.126717
     90          6           0      -11.915267    0.531817   -2.945180
     91          6           0      -12.869849    0.496216    0.869244
     92          6           0      -14.389301    0.661269    0.793120
     93          1           0      -15.175960    0.429969    2.001476
     94          7           0       -7.684460    2.538411   -0.660916
     95          6           0       -8.724506    3.227479   -1.175468
     96          6           0       -8.229714    4.594554   -1.400053
     97          6           0       -6.766310    4.613992   -1.130227
     98          6           0       -6.514377    3.199516   -0.940849
     99          6           0       -9.134225    5.739770   -1.751873
    100          6           0       -5.757870    5.720926   -1.067329
    101          8           0       -4.498267    5.484256   -1.052889
    102          6           0       -6.285652    7.092217   -1.117424
    103          7           0       -5.654064    0.284415   -0.596209
    104          6           0       -4.830545    1.305150   -0.892599
    105          6           0       -3.388823    0.856148   -0.907743
    106          6           0       -3.395851   -0.631141   -0.319932
    107          6           0       -4.917661   -0.825808   -0.142194
    108          6           0       -2.705342    0.859522   -2.274934
    109          6           0       -2.467951   -0.912711    0.893490
    110          6           0       -2.962377   -0.159023    2.107119
    111          7           0       -7.775573   -1.468947    0.384754
    112          6           0       -6.714031   -2.398908    0.433332
    113          6           0       -7.305259   -3.719244    0.732630
    114          6           0       -8.683117   -3.467925    0.815312
    115          6           0       -8.934901   -2.092097    0.563924
    116          6           0       -6.590347   -4.945158    0.842914
    117          6           0       -9.982844   -4.055679    1.047594
    118          8           0      -10.384886   -5.165453    1.394721
    119          6           0      -11.096300   -2.998220    0.637247
    120          6           0      -12.113536   -2.941736    1.743841
    121          8           0      -11.800242   -2.515019    2.869177
    122          8           0      -13.333138   -3.193795    1.234529
    123          6           0      -14.377472   -3.138166    2.291932
    124          1           0      -10.598302    3.337157   -2.152747
    125          1           0       -4.426819    3.192629   -1.202208
    126          1           0       -4.758225   -2.872736    0.390346
    127          1           0      -12.848441   -0.856580   -0.839863
    128          1           0      -12.608237    1.897781   -1.381048
    129          1           0      -11.967337   -0.546244   -2.979838
    130          1           0      -10.983858    0.879544   -3.372499
    131          1           0      -12.709946    1.002739   -3.530895
    132          1           0      -12.572080    1.546808    0.980334
    133          1           0      -12.612806   -0.091062    1.729279
    134          1           0      -14.820890    0.117939   -0.056280
    135          1           0      -14.614375    1.709681    0.582929
    136          1           0      -10.131628    5.389307   -2.044713
    137          1           0       -8.730059    6.198985   -2.660518
    138          1           0       -9.182188    6.495696   -0.965140
    139          1           0       -6.852176    7.227815   -2.035637
    140          1           0       -5.421801    7.743371   -0.970307
    141          1           0       -6.991069    7.226033   -0.289721
    142          1           0       -2.781460    1.484147   -0.267568
    143          1           0       -3.070352   -1.367138   -1.069727
    144          1           0       -1.789100    1.479010   -2.303324
    145          1           0       -3.418971    1.202073   -3.012452
    146          1           0       -2.431751   -0.122537   -2.656894
    147          1           0       -1.458296   -0.546954    0.691069
    148          1           0       -2.385638   -1.966250    1.138982
    149          1           0       -2.537758    0.839604    1.967329
    150          1           0       -2.593585   -0.620334    3.021018
    151          1           0       -4.053818   -0.058451    2.090255
    152          1           0       -6.988126   -5.460923    1.706772
    153          1           0       -5.520170   -4.774053    0.938978
    154          1           0       -6.847827   -5.407830   -0.113594
    155          1           0      -11.533859   -3.331952   -0.304416
    156          1           0      -14.908254   -4.094905    2.267401
    157          1           0      -14.969461   -2.228109    2.079561
    158          1           0      -14.045500   -3.106850    3.323075
 ---------------------------------------------------------------------

 SCF Done:  E(RCAM-B3LYP) =  -4069.81190288     A.U. after   19 cycles

 Excitation energies and oscillator strengths:

 Excited State   1:      Singlet-A      1.6693 eV  742.75 nm  f=0.0201  <S**2>=0.000
     309 -> 315       -0.10193
     310 -> 316        0.13900
     311 -> 313       -0.40444
     312 -> 314        0.55457
 This state for optimization and/or second-order correction.
 Total Energy, E(TD-HF/TD-DFT) =  -4069.75055863
 Copying the excited state density for this state as the 1-particle RhoCI density.

 Excited State   2:      Singlet-A      1.6855 eV  735.60 nm  f=0.7354  <S**2>=0.000
     309 -> 315        0.14311
     310 -> 316        0.10378
     311 -> 313        0.55374
     312 -> 314        0.40390

 Excited State   3:      Singlet-A      2.1856 eV  567.29 nm  f=0.1056  <S**2>=0.000
     310 -> 314        0.64260
     312 -> 316       -0.27285

 Excited State   4:      Singlet-A      2.1932 eV  565.30 nm  f=0.0968  <S**2>=0.000
     309 -> 313        0.64062
     311 -> 315       -0.27869

 Excited State   5:      Singlet-A      2.7737 eV  446.99 nm  f=0.0000  <S**2>=0.000
     312 -> 313        0.70695

 The electronic state is 1-A.
 Alpha  occ. eigenvalues --  -46.87796 -46.87577 -19.26305 -19.26290 -19.19097
 Alpha  occ. eigenvalues --  -19.19045 -19.18786 -19.18651 -19.18171 -19.17976
 Alpha  occ. eigenvalues --  -14.42448 -14.42418 -14.41446 -14.41268 -14.39398
 Alpha  occ. eigenvalues --  -14.39271 -14.38587 -14.38516 -10.39102 -10.39026
 Alpha  occ. eigenvalues --  -10.35418 -10.35331 -10.34393 -10.34153 -10.31703
 Alpha  occ. eigenvalues --  -10.31702 -10.31406 -10.31229 -10.30952 -10.30905
 Alpha  occ. eigenvalues --  -10.30569 -10.30503 -10.30312 -10.30276 -10.30197
 Alpha  occ. eigenvalues --  -10.30044 -10.29917 -10.29797 -10.29624 -10.29355
 Alpha  occ. eigenvalues --  -10.29319 -10.29246 -10.28753 -10.28657 -10.28606
 Alpha  occ. eigenvalues --  -10.28550 -10.28362 -10.28329 -10.28117 -10.28077
 Alpha  occ. eigenvalues --  -10.27920 -10.27787 -10.27723 -10.27591 -10.27574
 Alpha  occ. eigenvalues --  -10.27490 -10.27458 -10.27437 -10.27409 -10.27404
 Alpha  occ. eigenvalues --  -10.27402 -10.27388 -10.27375 -10.27252 -10.27165
 Alpha  occ. eigenvalues --  -10.26979 -10.26717 -10.26636 -10.26370 -10.26360
 Alpha  occ. eigenvalues --  -10.26232 -10.26174 -10.26014 -10.25968 -10.25957
 Alpha  occ. eigenvalues --  -10.25841 -10.25834 -10.25739 -10.25419 -10.25276
 Alpha  occ. eigenvalues --  -10.24830 -10.24792 -10.24782 -10.24686 -10.24603
 Alpha  occ. eigenvalues --  -10.24578  -3.16539  -3.16327  -1.91421  -1.91209
 Alpha  occ. eigenvalues --   -1.91007  -1.90849  -1.90798  -1.90635  -1.16654
 Alpha  occ. eigenvalues --   -1.16583  -1.08631  -1.08584  -1.07186  -1.06905
 Alpha  occ. eigenvalues --   -1.06882  -1.06666  -1.04579  -1.04417  -1.03756
 Alpha  occ. eigenvalues --   -1.03579  -1.03230  -1.02950  -1.02408  -1.02026
 Alpha  occ. eigenvalues --   -0.91972  -0.91908  -0.89514  -0.89385  -0.89190
 Alpha  occ. eigenvalues --   -0.89083  -0.88279  -0.88104  -0.87867  -0.87703
 Alpha  occ. eigenvalues --   -0.87670  -0.87602  -0.87256  -0.87051  -0.84981
 Alpha  occ. eigenvalues --   -0.84929  -0.83930  -0.83758  -0.82943  -0.82857
 Alpha  occ. eigenvalues --   -0.82643  -0.82581  -0.81592  -0.81521  -0.80594
 Alpha  occ. eigenvalues --   -0.80367  -0.78785  -0.78558  -0.77214  -0.77063
 Alpha  occ. eigenvalues --   -0.76937  -0.76814  -0.75925  -0.75767  -0.74892
 Alpha  occ. eigenvalues --   -0.74700  -0.72770  -0.72611  -0.71668  -0.71496
 Alpha  occ. eigenvalues --   -0.69900  -0.69625  -0.68870  -0.68754  -0.67635
 Alpha  occ. eigenvalues --   -0.67521  -0.67216  -0.67136  -0.65289  -0.65200
 Alpha  occ. eigenvalues --   -0.64854  -0.64684  -0.64620  -0.64574  -0.64264
 Alpha  occ. eigenvalues --   -0.64092  -0.62306  -0.62200  -0.60428  -0.60259
 Alpha  occ. eigenvalues --   -0.59804  -0.59725  -0.58985  -0.58906  -0.58501
 Alpha  occ. eigenvalues --   -0.58340  -0.57591  -0.57480  -0.57303  -0.57144
 Alpha  occ. eigenvalues --   -0.56304  -0.56122  -0.55988  -0.55818  -0.55508
 Alpha  occ. eigenvalues --   -0.55383  -0.55338  -0.55146  -0.54527  -0.54389
 Alpha  occ. eigenvalues --   -0.53897  -0.53846  -0.53290  -0.53215  -0.53144
 Alpha  occ. eigenvalues --   -0.53069  -0.52917  -0.52826  -0.52739  -0.52608
 Alpha  occ. eigenvalues --   -0.52432  -0.52260  -0.51914  -0.51787  -0.51613
 Alpha  occ. eigenvalues --   -0.51594  -0.51196  -0.51113  -0.50544  -0.50409
 Alpha  occ. eigenvalues --   -0.50022  -0.49907  -0.49903  -0.49761  -0.49506
 Alpha  occ. eigenvalues --   -0.49420  -0.49210  -0.49131  -0.49095  -0.49030
 Alpha  occ. eigenvalues --   -0.48595  -0.48485  -0.48453  -0.48430  -0.48274
 Alpha  occ. eigenvalues --   -0.48272  -0.47688  -0.47516  -0.47288  -0.47038
 Alpha  occ. eigenvalues --   -0.46794  -0.46617  -0.46556  -0.46483  -0.46355
 Alpha  occ. eigenvalues --   -0.46181  -0.46161  -0.45992  -0.45826  -0.45738
 Alpha  occ. eigenvalues --   -0.45193  -0.45107  -0.44578  -0.44495  -0.44441
 Alpha  occ. eigenvalues --   -0.44394  -0.44138  -0.44086  -0.44054  -0.44012
 Alpha  occ. eigenvalues --   -0.43981  -0.43872  -0.43499  -0.43473  -0.43382
 Alpha  occ. eigenvalues --   -0.43306  -0.43024  -0.42858  -0.42816  -0.42708
 Alpha  occ. eigenvalues --   -0.42654  -0.42445  -0.42008  -0.41861  -0.41702
 Alpha  occ. eigenvalues --   -0.41587  -0.41533  -0.41378  -0.41137  -0.40909
 Alpha  occ. eigenvalues --   -0.40867  -0.40801  -0.40657  -0.40618  -0.40566
 Alpha  occ. eigenvalues --   -0.40379  -0.40237  -0.40168  -0.39435  -0.39291
 Alpha  occ. eigenvalues --   -0.38463  -0.38242  -0.37752  -0.37587  -0.37315
 Alpha  occ. eigenvalues --   -0.37265  -0.37164  -0.37125  -0.36726  -0.36696
 Alpha  occ. eigenvalues --   -0.36197  -0.36123  -0.34284  -0.34169  -0.33795
 Alpha  occ. eigenvalues --   -0.33791  -0.33185  -0.33091  -0.31317  -0.31209
 Alpha  occ. eigenvalues --   -0.31031  -0.30891  -0.30032  -0.29880  -0.29440
 Alpha  occ. eigenvalues --   -0.29319  -0.29251  -0.29130  -0.24078  -0.23952
 Alpha  occ. eigenvalues --   -0.21123  -0.21033
 Alpha virt. eigenvalues --   -0.08768  -0.08711  -0.01744  -0.01599  -0.00044
 Alpha virt. eigenvalues --    0.00041   0.02202   0.02290   0.03101   0.03309
 Alpha virt. eigenvalues --    0.04717   0.04806   0.05079   0.05230   0.06169

 Mulliken charges:
               1
     1  Mg   0.838260
     2  C   -0.003158
     3  C   -0.094083
     4  C   -0.045801
     5  C   -0.063972
     6  N   -0.256796
     7  C   -0.052617
     8  C   -0.013975
     9  C   -0.086989
    10  C    0.046293
    11  C    0.104787
    12  C    0.053452
    13  C   -0.071774
    14  H    0.035882
    15  N   -0.433215
    16  C    0.168451
    17  C   -0.177009
    18  C   -0.003815
    19  C    0.148725
    20  C    0.110136
    21  C    0.012523
    22  O   -0.249409
    23  C    0.062352
    24  N   -0.341093
    25  C    0.041230
    26  C   -0.028247
    27  C   -0.023931
    28  C    0.074680
    29  C    0.076134
    30  C    0.035119
    31  C   -0.004530
    32  N   -0.310378
    33  C    0.080146
    34  C   -0.169923
    35  C    0.008297
    36  C    0.082689
    37  C    0.127364
    38  C    0.045892
    39  O   -0.188555
    40  C   -0.005245
    41  C    0.212973
    42  O   -0.257645
    43  O   -0.304664
    44  C    0.157742
    45  H   -0.017504
    46  H   -0.016632
    47  H   -0.041479
    48  H    0.000945
    49  H   -0.003977
    50  H    0.025491
    51  H    0.016512
    52  H    0.016719
    53  H    0.011214
    54  H    0.043755
    55  H    0.017974
    56  H    0.018090
    57  H    0.005843
    58  H    0.026918
    59  H    0.039982
    60  H    0.037216
    61  H    0.036024
    62  H    0.031961
    63  H    0.016730
    64  H    0.009524
    65  H    0.023375
    66  H    0.012552
    67  H    0.004794
    68  H    0.006590
    69  H    0.004732
    70  H    0.009094
    71  H    0.017965
    72  H    0.028576
    73  H    0.047382
    74  H    0.009126
    75  H    0.046082
    76  H    0.035231
    77  H    0.043064
    78  H    0.046457
    79  H    0.053371
    80  Mg   0.837763
    81  C   -0.016961
    82  C   -0.087987
    83  C   -0.045564
    84  C   -0.064742
    85  N   -0.254561
    86  C   -0.049836
    87  C   -0.015103
    88  C   -0.090471
    89  C    0.045701
    90  C    0.114439
    91  C    0.062555
    92  C   -0.077802
    93  H    0.034758
    94  N   -0.423446
    95  C    0.162854
    96  C   -0.174866
    97  C   -0.007982
    98  C    0.152112
    99  C    0.099463
   100  C    0.015447
   101  O   -0.253366
   102  C    0.061242
   103  N   -0.350117
   104  C    0.037512
   105  C   -0.019877
   106  C   -0.035218
   107  C    0.088864
   108  C    0.073713
   109  C    0.034687
   110  C   -0.007783
   111  N   -0.324158
   112  C    0.078512
   113  C   -0.162900
   114  C    0.002193
   115  C    0.096292
   116  C    0.131408
   117  C    0.042436
   118  O   -0.187868
   119  C    0.000887
   120  C    0.211259
   121  O   -0.251040
   122  O   -0.305652
   123  C    0.152063
   124  H   -0.019968
   125  H   -0.015712
   126  H   -0.039517
   127  H   -0.000748
   128  H   -0.004501
   129  H    0.022415
   130  H    0.014388
   131  H    0.016042
   132  H    0.013901
   133  H    0.037687
   134  H    0.020712
   135  H    0.019488
   136  H    0.008608
   137  H    0.025793
   138  H    0.039587
   139  H    0.038020
   140  H    0.036088
   141  H    0.033916
   142  H    0.014432
   143  H    0.013473
   144  H    0.024906
   145  H    0.010972
   146  H    0.006567
   147  H    0.007448
   148  H    0.004733
   149  H    0.010740
   150  H    0.018087
   151  H    0.029471
   152  H    0.046021
   153  H    0.009334
   154  H    0.047059
   155  H    0.034910
   156  H    0.043839
   157  H    0.049398
   158  H    0.053556
 Sum of Mulliken charges =  -0.00000

 Dipole moment (field-independent basis, Debye):
    X=              0.7068    Y=              6.3638    Z=             -5.1385  Tot=              8.2098
 Quadrupole moment (field-independent basis, Debye-Ang):
   XX=           -428.0899   YY=           -547.9073   ZZ=           -479.1448
   XY=            -29.1922   XZ=              8.3217   YZ=            -10.8639

 Normal termination of Gaussian 16 at Sun Sep 12 09:11:24 2021.
