 Gaussian 16, Revision A.03,
 Gaussian 16:  ES64L-G16RevA.03 25-Dec-2016

 -----------------------------------
 #p cam-b3lyp/Def2SVP td=(nstates=5)
 -----------------------------------

 --------------------------------
 TDDFT excited states in gaussian
 --------------------------------
 Symbolic Z-matrix:
 Charge =  0 Multiplicity = 1

                         Standard orientation:
 ---------------------------------------------------------------------
 Center     Atomic      Atomic             Coordinates (Angstroms)
 Number     Number       Type             X           Y           Z
 ---------------------------------------------------------------------
      1         12           0       15.541865    0.862300    0.404783
      2          6           0       15.805321   -2.613004   -0.410733
      3          6           0       16.455769    1.534022   -2.813389
      4          6           0       15.758240    3.919517    1.219170
      5          6           0       15.766053   -0.059099    3.758352
      6          7           0       16.039076   -0.457338   -1.301670
      7          6           0       16.044145   -1.771833   -1.499787
      8          6           0       16.252707   -2.171037   -2.991267
      9          6           0       16.994921   -0.855819   -3.502459
     10          6           0       16.437427    0.141867   -2.502586
     11          6           0       18.511174   -0.912333   -3.346622
     12          6           0       14.896927   -2.392459   -3.742641
     13          6           0       15.008576   -3.095755   -5.098467
     14          1           0       13.951544   -4.010801   -5.501855
     15          7           0       15.555615    2.488913   -0.716283
     16          6           0       15.943102    2.576583   -2.011449
     17          6           0       15.769262    3.994422   -2.393803
     18          6           0       15.429667    4.759537   -1.161988
     19          6           0       15.595451    3.744663   -0.153066
     20          6           0       15.877900    4.485397   -3.804793
     21          6           0       15.030824    6.182600   -0.929721
     22          8           0       15.006736    6.700121    0.239110
     23          6           0       14.750743    6.990685   -2.130385
     24          7           0       15.954729    1.825081    2.210394
     25          6           0       15.929242    3.159182    2.302635
     26          6           0       15.973181    3.608537    3.733050
     27          6           0       15.788409    2.291067    4.616161
     28          6           0       15.750106    1.245249    3.474642
     29          6           0       17.252218    4.338138    4.166362
     30          6           0       14.636328    2.294745    5.652074
     31          6           0       13.303643    2.312537    4.937419
     32          7           0       15.571262   -1.000125    1.519035
     33          6           0       15.693312   -1.149777    2.908057
     34          6           0       15.773757   -2.596482    3.181264
     35          6           0       15.709172   -3.191122    1.922662
     36          6           0       15.622013   -2.178975    0.924537
     37          6           0       15.948442   -3.194562    4.460411
     38          6           0       15.718330   -4.445261    1.187198
     39          8           0       15.680956   -5.635573    1.502243
     40          6           0       15.903716   -4.117429   -0.360053
     41          6           0       14.878974   -4.915095   -1.119621
     42          8           0       13.661058   -4.670416   -1.000551
     43          8           0       15.497237   -5.673228   -2.038058
     44          6           0       14.534839   -6.468189   -2.846749
     45          1           0       16.959550    1.865023   -3.723655
     46          1           0       15.726608    4.958758    1.552960
     47          1           0       15.752127   -0.424647    4.786765
     48          1           0       16.890775   -3.041689   -3.143774
     49          1           0       16.694172   -0.586199   -4.514673
     50          1           0       18.821788   -1.796422   -2.790002
     51          1           0       18.781980   -0.006315   -2.804137
     52          1           0       19.003280   -0.839062   -4.316798
     53          1           0       14.503323   -1.428646   -4.065444
     54          1           0       14.190650   -2.934208   -3.112558
     55          1           0       15.986244   -3.561180   -5.226735
     56          1           0       14.964496   -2.338088   -5.880898
     57          1           0       16.299239    3.725631   -4.461889
     58          1           0       16.616694    5.286575   -3.807144
     59          1           0       14.927006    4.861078   -4.182942
     60          1           0       15.636531    7.010329   -2.765636
     61          1           0       14.394886    7.954446   -1.767920
     62          1           0       13.968079    6.501224   -2.710741
     63          1           0       15.161102    4.301119    3.950497
     64          1           0       16.676721    2.066943    5.207214
     65          1           0       17.071881    5.332618    4.575254
     66          1           0       17.921487    4.383812    3.307709
     67          1           0       17.863620    3.798620    4.889220
     68          1           0       14.682417    3.192746    6.267229
     69          1           0       14.655604    1.433679    6.320239
     70          1           0       13.155096    3.370799    4.725645
     71          1           0       12.517276    1.930713    5.589376
     72          1           0       13.358153    1.793239    3.980422
     73          1           0       15.261107   -4.039602    4.498458
     74          1           0       15.746465   -2.483314    5.260995
     75          1           0       16.999584   -3.477953    4.408970
     76          1           0       16.921798   -4.404295   -0.621469
     77          1           0       14.828440   -7.514226   -2.758214
     78          1           0       14.529055   -6.026909   -3.843565
     79          1           0       13.510815   -6.509605   -2.473922
     80         12           0      -16.201129    0.414619   -0.078454
     81          6           0      -14.035198   -2.443164    0.066289
     82          6           0      -13.806955    1.946802   -1.963915
     83          6           0      -17.878917    3.097895    0.150576
     84          6           0      -17.862563   -0.877677    2.699186
     85          7           0      -14.220085   -0.263703   -0.790926
     86          6           0      -13.528818   -1.391642   -0.725736
     87          6           0      -12.260870   -1.421573   -1.620713
     88          6           0      -12.006548    0.160253   -1.730387
     89          6           0      -13.436471    0.653031   -1.517826
     90          6           0      -11.140373    0.709712   -0.609148
     91          6           0      -12.537511   -2.057812   -3.028071
     92          6           0      -11.284200   -2.401291   -3.836144
     93          1           0      -11.305112   -3.592717   -4.680266
     94          7           0      -16.138519    2.066146   -1.177128
     95          6           0      -15.093101    2.526074   -1.896056
     96          6           0      -15.547023    3.785712   -2.505501
     97          6           0      -16.889798    4.115843   -1.955340
     98          6           0      -17.014869    3.094630   -0.934757
     99          6           0      -14.764667    4.505016   -3.565670
    100          6           0      -17.889656    5.182949   -2.283648
    101          8           0      -18.887666    5.429089   -1.518001
    102          6           0      -17.614713    5.993554   -3.478984
    103          7           0      -17.523073    1.132811    1.356469
    104          6           0      -18.156680    2.306577    1.186901
    105          6           0      -19.257352    2.484418    2.205379
    106          6           0      -19.390107    1.072914    2.945392
    107          6           0      -18.232071    0.316832    2.257865
    108          6           0      -19.032037    3.583684    3.243268
    109          6           0      -20.797157    0.415135    2.959240
    110          6           0      -21.188334    0.003653    1.558148
    111          7           0      -16.130763   -1.419086    1.062010
    112          6           0      -16.895940   -1.743417    2.203677
    113          6           0      -16.412642   -3.050154    2.694877
    114          6           0      -15.376109   -3.387276    1.811455
    115          6           0      -15.210685   -2.353517    0.850475
    116          6           0      -16.892858   -3.735375    3.846386
    117          6           0      -14.377196   -4.377651    1.479730
    118          8           0      -14.102420   -5.505078    1.888538
    119          6           0      -13.380465   -3.751923    0.411376
    120          6           0      -13.194507   -4.755200   -0.693787
    121          8           0      -14.146818   -5.068823   -1.429553
    122          8           0      -11.881982   -5.013783   -0.837911
    123          6           0      -11.645881   -5.995415   -1.929916
    124          1           0      -13.031211    2.598604   -2.366730
    125          1           0      -18.557153    3.952212    0.210733
    126          1           0      -18.394187   -1.393691    3.501552
    127          1           0      -11.400993   -1.906328   -1.174172
    128          1           0      -11.651541    0.435554   -2.720106
    129          1           0      -10.935719   -0.036273    0.144362
    130          1           0      -11.697700    1.534070   -0.183882
    131          1           0      -10.224404    1.144806   -1.019066
    132          1           0      -12.981295   -1.297596   -3.683721
    133          1           0      -13.158710   -2.927605   -2.937527
    134          1           0      -10.377948   -2.383697   -3.218611
    135          1           0      -11.120597   -1.612781   -4.574722
    136          1           0      -13.742715    4.114459   -3.646062
    137          1           0      -14.634798    5.537074   -3.222354
    138          1           0      -15.274562    4.515327   -4.531362
    139          1           0      -16.649671    6.482598   -3.369538
    140          1           0      -18.485075    6.641548   -3.599163
    141          1           0      -17.532692    5.325379   -4.343530
    142          1           0      -20.197960    2.717395    1.721558
    143          1           0      -19.128905    1.145572    4.011377
    144          1           0      -19.840573    4.338667    3.261966
    145          1           0      -18.078201    4.052931    3.041894
    146          1           0      -18.906001    3.233907    4.266484
    147          1           0      -21.548576    1.135207    3.292439
    148          1           0      -20.864488   -0.446999    3.614371
    149          1           0      -21.584963    0.929444    1.130735
    150          1           0      -21.947522   -0.775397    1.585577
    151          1           0      -20.307254   -0.279634    0.970710
    152          1           0      -16.994872   -4.776210    3.569344
    153          1           0      -17.837838   -3.320362    4.190721
    154          1           0      -16.077325   -3.535469    4.546540
    155          1           0      -12.444482   -3.531750    0.926182
    156          1           0      -11.075001   -6.823024   -1.497640
    157          1           0      -11.165279   -5.424231   -2.746318
    158          1           0      -12.507283   -6.518258   -2.328737
 ---------------------------------------------------------------------

 SCF Done:  E(RCAM-B3LYP) =  -4069.81177257     A.U. after   19 cycles

 Excitation energies and oscillator strengths:

 Excited State   1:      Singlet-A      1.6753 eV  740.07 nm  f=0.2063  <S**2>=0.000
     310 -> 316        0.16819
     311 -> 314       -0.16844
     312 -> 313        0.66506
     310 <- 316        0.10140
 This state for optimization and/or second-order correction.
 Total Energy, E(TD-HF/TD-DFT) =  -4069.75020644
 Copying the excited state density for this state as the 1-particle RhoCI density.

 Excited State   2:      Singlet-A      1.6801 eV  737.96 nm  f=0.5709  <S**2>=0.000
     309 -> 315        0.17023
     311 -> 314        0.66469
     312 -> 313        0.16838
     309 <- 315        0.10191

 Excited State   3:      Singlet-A      2.1861 eV  567.16 nm  f=0.1001  <S**2>=0.000
     310 -> 313        0.64235
     312 -> 316       -0.27302

 Excited State   4:      Singlet-A      2.1925 eV  565.49 nm  f=0.1009  <S**2>=0.000
     309 -> 314        0.64057
     311 -> 315       -0.27823

 Excited State   5:      Singlet-A      3.0616 eV  404.96 nm  f=0.0000  <S**2>=0.000
     312 -> 314        0.70710

 The electronic state is 1-A.
 Alpha  occ. eigenvalues --  -46.87812 -46.87659 -19.26339 -19.26296 -19.19153
 Alpha  occ. eigenvalues --  -19.19033 -19.18833 -19.18715 -19.18183 -19.18047
 Alpha  occ. eigenvalues --  -14.42496 -14.42465 -14.41465 -14.41358 -14.39418
 Alpha  occ. eigenvalues --  -14.39351 -14.38602 -14.38598 -10.39093 -10.39083
 Alpha  occ. eigenvalues --  -10.35467 -10.35392 -10.34402 -10.34224 -10.31743
 Alpha  occ. eigenvalues --  -10.31691 -10.31419 -10.31306 -10.31021 -10.30924
 Alpha  occ. eigenvalues --  -10.30585 -10.30523 -10.30397 -10.30359 -10.30223
 Alpha  occ. eigenvalues --  -10.30141 -10.29935 -10.29894 -10.29646 -10.29436
 Alpha  occ. eigenvalues --  -10.29400 -10.29270 -10.28764 -10.28713 -10.28646
 Alpha  occ. eigenvalues --  -10.28554 -10.28403 -10.28380 -10.28135 -10.28131
 Alpha  occ. eigenvalues --  -10.27999 -10.27808 -10.27742 -10.27667 -10.27600
 Alpha  occ. eigenvalues --  -10.27519 -10.27516 -10.27499 -10.27481 -10.27467
 Alpha  occ. eigenvalues --  -10.27464 -10.27464 -10.27418 -10.27377 -10.27171
 Alpha  occ. eigenvalues --  -10.27045 -10.26721 -10.26687 -10.26431 -10.26417
 Alpha  occ. eigenvalues --  -10.26247 -10.26199 -10.26140 -10.26034 -10.26018
 Alpha  occ. eigenvalues --  -10.25934 -10.25855 -10.25849 -10.25449 -10.25400
 Alpha  occ. eigenvalues --  -10.24871 -10.24847 -10.24803 -10.24733 -10.24703
 Alpha  occ. eigenvalues --  -10.24689  -3.16555  -3.16409  -1.91436  -1.91291
 Alpha  occ. eigenvalues --   -1.91023  -1.90880  -1.90865  -1.90717  -1.16645
 Alpha  occ. eigenvalues --   -1.16634  -1.08654  -1.08640  -1.07234  -1.06968
 Alpha  occ. eigenvalues --   -1.06937  -1.06655  -1.04596  -1.04493  -1.03776
 Alpha  occ. eigenvalues --   -1.03662  -1.03249  -1.03038  -1.02426  -1.02110
 Alpha  occ. eigenvalues --   -0.91986  -0.91984  -0.89535  -0.89494  -0.89202
 Alpha  occ. eigenvalues --   -0.89146  -0.88302  -0.88221  -0.87884  -0.87792
 Alpha  occ. eigenvalues --   -0.87688  -0.87682  -0.87291  -0.87120  -0.84997
 Alpha  occ. eigenvalues --   -0.84996  -0.83951  -0.83876  -0.82985  -0.82932
 Alpha  occ. eigenvalues --   -0.82664  -0.82649  -0.81599  -0.81591  -0.80611
 Alpha  occ. eigenvalues --   -0.80439  -0.78813  -0.78635  -0.77233  -0.77142
 Alpha  occ. eigenvalues --   -0.76949  -0.76894  -0.75937  -0.75834  -0.74912
 Alpha  occ. eigenvalues --   -0.74802  -0.72789  -0.72698  -0.71687  -0.71579
 Alpha  occ. eigenvalues --   -0.69922  -0.69758  -0.68888  -0.68824  -0.67656
 Alpha  occ. eigenvalues --   -0.67600  -0.67236  -0.67196  -0.65301  -0.65267
 Alpha  occ. eigenvalues --   -0.64868  -0.64768  -0.64650  -0.64635  -0.64284
 Alpha  occ. eigenvalues --   -0.64203  -0.62311  -0.62273  -0.60458  -0.60339
 Alpha  occ. eigenvalues --   -0.59819  -0.59793  -0.59002  -0.58991  -0.58518
 Alpha  occ. eigenvalues --   -0.58423  -0.57598  -0.57549  -0.57324  -0.57235
 Alpha  occ. eigenvalues --   -0.56325  -0.56202  -0.55992  -0.55880  -0.55536
 Alpha  occ. eigenvalues --   -0.55449  -0.55354  -0.55246  -0.54537  -0.54485
 Alpha  occ. eigenvalues --   -0.53910  -0.53908  -0.53314  -0.53237  -0.53226
 Alpha  occ. eigenvalues --   -0.53138  -0.52929  -0.52898  -0.52773  -0.52667
 Alpha  occ. eigenvalues --   -0.52453  -0.52402  -0.51928  -0.51883  -0.51655
 Alpha  occ. eigenvalues --   -0.51632  -0.51210  -0.51198  -0.50590  -0.50476
 Alpha  occ. eigenvalues --   -0.50047  -0.49978  -0.49935  -0.49867  -0.49530
 Alpha  occ. eigenvalues --   -0.49486  -0.49229  -0.49199  -0.49110  -0.49100
 Alpha  occ. eigenvalues --   -0.48607  -0.48554  -0.48477  -0.48461  -0.48375
 Alpha  occ. eigenvalues --   -0.48338  -0.47710  -0.47592  -0.47312  -0.47117
 Alpha  occ. eigenvalues --   -0.46812  -0.46707  -0.46570  -0.46550  -0.46374
 Alpha  occ. eigenvalues --   -0.46269  -0.46176  -0.46084  -0.45835  -0.45818
 Alpha  occ. eigenvalues --   -0.45216  -0.45209  -0.44592  -0.44523  -0.44511
 Alpha  occ. eigenvalues --   -0.44473  -0.44160  -0.44124  -0.44103  -0.44077
 Alpha  occ. eigenvalues --   -0.44034  -0.43937  -0.43548  -0.43508  -0.43400
 Alpha  occ. eigenvalues --   -0.43383  -0.43041  -0.42925  -0.42897  -0.42713
 Alpha  occ. eigenvalues --   -0.42669  -0.42554  -0.42024  -0.41963  -0.41718
 Alpha  occ. eigenvalues --   -0.41666  -0.41549  -0.41455  -0.41156  -0.40987
 Alpha  occ. eigenvalues --   -0.40884  -0.40841  -0.40721  -0.40696  -0.40586
 Alpha  occ. eigenvalues --   -0.40492  -0.40250  -0.40222  -0.39456  -0.39427
 Alpha  occ. eigenvalues --   -0.38484  -0.38350  -0.37763  -0.37649  -0.37335
 Alpha  occ. eigenvalues --   -0.37278  -0.37265  -0.37196  -0.36765  -0.36726
 Alpha  occ. eigenvalues --   -0.36215  -0.36207  -0.34301  -0.34252  -0.33855
 Alpha  occ. eigenvalues --   -0.33784  -0.33201  -0.33174  -0.31363  -0.31274
 Alpha  occ. eigenvalues --   -0.31050  -0.30971  -0.30042  -0.29951  -0.29465
 Alpha  occ. eigenvalues --   -0.29336  -0.29326  -0.29210  -0.24095  -0.24035
 Alpha  occ. eigenvalues --   -0.21143  -0.21116
 Alpha virt. eigenvalues --   -0.08791  -0.08789  -0.01765  -0.01683  -0.00074
 Alpha virt. eigenvalues --   -0.00028   0.02186   0.02210   0.03105   0.03227
 Alpha virt. eigenvalues --    0.04703   0.04733   0.05085   0.05173   0.06163

 Mulliken charges:
               1
     1  Mg   0.838698
     2  C   -0.002958
     3  C   -0.094127
     4  C   -0.045863
     5  C   -0.063935
     6  N   -0.256778
     7  C   -0.052462
     8  C   -0.014027
     9  C   -0.086995
    10  C    0.046310
    11  C    0.104809
    12  C    0.053488
    13  C   -0.071809
    14  H    0.036115
    15  N   -0.433130
    16  C    0.168387
    17  C   -0.177163
    18  C   -0.004031
    19  C    0.148690
    20  C    0.110178
    21  C    0.012258
    22  O   -0.249642
    23  C    0.062491
    24  N   -0.341109
    25  C    0.041224
    26  C   -0.028189
    27  C   -0.023955
    28  C    0.074817
    29  C    0.076164
    30  C    0.035121
    31  C   -0.004500
    32  N   -0.310493
    33  C    0.080414
    34  C   -0.169688
    35  C    0.008373
    36  C    0.082990
    37  C    0.127306
    38  C    0.046129
    39  O   -0.188373
    40  C   -0.005343
    41  C    0.212895
    42  O   -0.257132
    43  O   -0.304787
    44  C    0.157686
    45  H   -0.017601
    46  H   -0.016850
    47  H   -0.041460
    48  H    0.000972
    49  H   -0.004048
    50  H    0.025495
    51  H    0.016452
    52  H    0.016671
    53  H    0.011164
    54  H    0.044113
    55  H    0.017910
    56  H    0.017930
    57  H    0.005878
    58  H    0.026829
    59  H    0.039485
    60  H    0.037367
    61  H    0.035608
    62  H    0.031443
    63  H    0.016528
    64  H    0.009492
    65  H    0.023206
    66  H    0.012556
    67  H    0.004780
    68  H    0.006373
    69  H    0.004767
    70  H    0.008743
    71  H    0.018149
    72  H    0.028967
    73  H    0.047609
    74  H    0.009129
    75  H    0.046044
    76  H    0.035182
    77  H    0.042995
    78  H    0.046386
    79  H    0.053683
    80  Mg   0.837803
    81  C   -0.016829
    82  C   -0.087777
    83  C   -0.045491
    84  C   -0.064905
    85  N   -0.254568
    86  C   -0.049812
    87  C   -0.015112
    88  C   -0.090486
    89  C    0.045741
    90  C    0.114368
    91  C    0.062515
    92  C   -0.077915
    93  H    0.034924
    94  N   -0.423475
    95  C    0.162906
    96  C   -0.174620
    97  C   -0.007824
    98  C    0.152099
    99  C    0.099374
   100  C    0.015558
   101  O   -0.253197
   102  C    0.061193
   103  N   -0.350036
   104  C    0.037474
   105  C   -0.019810
   106  C   -0.034822
   107  C    0.088929
   108  C    0.073649
   109  C    0.034741
   110  C   -0.007668
   111  N   -0.324096
   112  C    0.078454
   113  C   -0.163125
   114  C    0.002263
   115  C    0.096188
   116  C    0.131482
   117  C    0.042394
   118  O   -0.187781
   119  C    0.000918
   120  C    0.211277
   121  O   -0.251051
   122  O   -0.305594
   123  C    0.152011
   124  H   -0.019640
   125  H   -0.015587
   126  H   -0.040457
   127  H   -0.000559
   128  H   -0.004317
   129  H    0.022520
   130  H    0.014401
   131  H    0.016344
   132  H    0.013884
   133  H    0.037677
   134  H    0.020875
   135  H    0.019569
   136  H    0.008771
   137  H    0.026136
   138  H    0.039774
   139  H    0.038252
   140  H    0.036379
   141  H    0.033895
   142  H    0.014387
   143  H    0.012421
   144  H    0.025125
   145  H    0.011647
   146  H    0.005674
   147  H    0.006249
   148  H    0.003655
   149  H    0.010920
   150  H    0.017931
   151  H    0.030110
   152  H    0.046027
   153  H    0.008500
   154  H    0.046981
   155  H    0.035108
   156  H    0.044013
   157  H    0.049512
   158  H    0.053558
 Sum of Mulliken charges =  -0.00000

 Dipole moment (field-independent basis, Debye):
    X=              4.5402    Y=              5.7720    Z=             -4.8764  Tot=              8.8152
 Quadrupole moment (field-independent basis, Debye-Ang):
   XX=           -511.6053   YY=           -567.1778   ZZ=           -452.5908
   XY=             -6.7773   XZ=            -53.9002   YZ=              6.1904

 Normal termination of Gaussian 16 at Sun Sep 12 18:03:19 2021.
