 Gaussian 16, Revision A.03,
 Gaussian 16:  ES64L-G16RevA.03 25-Dec-2016

 -----------------------------------
 #p cam-b3lyp/Def2SVP td=(nstates=5)
 -----------------------------------

 --------------------------------
 TDDFT excited states in gaussian
 --------------------------------
 Symbolic Z-matrix:
 Charge =  0 Multiplicity = 1

                         Standard orientation:
 ---------------------------------------------------------------------
 Center     Atomic      Atomic             Coordinates (Angstroms)
 Number     Number       Type             X           Y           Z
 ---------------------------------------------------------------------
      1         12           0       15.493765    0.759995    0.464203
      2          6           0       15.768443   -2.503701   -0.979769
      3          6           0       16.411019    2.017931   -2.572129
      4          6           0       15.700109    3.614232    1.830722
      5          6           0       15.715088   -0.765521    3.589819
      6          7           0       15.997520   -0.219819   -1.455912
      7          6           0       16.006654   -1.474930   -1.893843
      8          6           0       16.218791   -1.590712   -3.432988
      9          6           0       16.958095   -0.201765   -3.690386
     10          6           0       16.396130    0.592264   -2.524351
     11          6           0       18.474246   -0.282361   -3.544462
     12          6           0       14.864878   -1.672644   -4.215252
     13          6           0       14.980745   -2.112610   -5.677565
     14          1           0       13.926982   -2.939835   -6.245570
     15          7           0       15.504722    2.566002   -0.336466
     16          6           0       15.894076    2.892801   -1.592209
     17          6           0       15.716828    4.356469   -1.705959
     18          6           0       15.373043    4.879567   -0.354562
     19          6           0       15.540063    3.695932    0.449485
     20          6           0       15.826377    5.100344   -3.001490
     21          6           0       14.969773    6.234070    0.136180
     22          8           0       14.942300    6.526293    1.380537
     23          6           0       14.689359    7.249686   -0.894807
     24          7           0       15.900934    1.373037    2.417668
     25          6           0       15.871501    2.666958    2.755137
     26          6           0       15.911821    2.843954    4.244092
     27          6           0       15.729353    1.385359    4.867756
     28          6           0       15.695894    0.568756    3.552344
     29          6           0       17.188065    3.483955    4.807661
     30          6           0       14.575573    1.194400    5.883997
     31          6           0       13.244014    1.340812    5.182134
     32          7           0       15.526639   -1.276380    1.214629
     33          6           0       15.646841   -1.680189    2.552225
     34          6           0       15.730955   -3.152259    2.553172
     35          6           0       15.670121   -3.503877    1.206135
     36          6           0       15.581716   -2.324724    0.412362
     37          6           0       15.905249   -3.976285    3.699923
     38          6           0       15.684051   -4.600227    0.251316
     39          8           0       15.649549   -5.828370    0.340572
     40          6           0       15.871035   -3.991270   -1.208148
     41          6           0       14.849811   -4.637149   -2.104391
     42          8           0       13.631010   -4.421769   -1.944700
     43          8           0       15.471730   -5.210683   -3.145937
     44          6           0       14.512922   -5.844658   -4.089820
     45          1           0       16.915344    2.512919   -3.404345
     46          1           0       15.664974    4.573672    2.350990
     47          1           0       15.700520   -1.315103    4.532793
     48          1           0       16.859582   -2.416511   -3.742613
     49          1           0       16.658237    0.249763   -4.635864
     50          1           0       18.786463   -1.253408   -3.160394
     51          1           0       18.741585    0.508291   -2.843111
     52          1           0       18.967728   -0.029593   -4.483271
     53          1           0       14.469062   -0.666726   -4.354965
     54          1           0       14.159114   -2.323396   -3.697810
     55          1           0       15.959942   -2.543820   -5.887657
     56          1           0       14.935790   -1.223348   -6.306368
     57          1           0       16.250951    4.476353   -3.786930
     58          1           0       16.562892    5.889959   -2.853965
     59          1           0       14.875039    5.537143   -3.305617
     60          1           0       15.576126    7.388755   -1.513559
     61          1           0       14.330168    8.128835   -0.361019
     62          1           0       13.909041    6.874126   -1.557383
     63          1           0       15.097420    3.482308    4.584211
     64          1           0       16.617331    1.057944    5.409022
     65          1           0       17.004232    4.385138    5.393134
     66          1           0       17.858606    3.689405    3.973720
     67          1           0       17.799817    2.821512    5.419500
     68          1           0       14.618100    1.963166    6.654800
     69          1           0       14.596205    0.224610    6.381322
     70          1           0       13.092803    2.419612    5.169533
     71          1           0       12.457670    0.842976    5.750496
     72          1           0       13.301567    1.007718    4.145688
     73          1           0       15.220259   -4.815481    3.579471
     74          1           0       15.699939   -3.425979    4.617863
     75          1           0       16.957275   -4.242640    3.599172
     76          1           0       16.890356   -4.222266   -1.515960
     77          1           0       14.809353   -6.888277   -4.195757
     78          1           0       14.507513   -5.226550   -4.987772
     79          1           0       13.488412   -5.956906   -3.733284
     80         12           0      -16.242816    0.330863   -0.160009
     81          6           0      -13.671256   -2.098001    0.445588
     82          6           0      -13.759320    2.606247   -0.698028
     83          6           0      -18.468971    2.589735   -0.255485
     84          6           0      -18.445915   -1.789037    1.512751
     85          7           0      -14.038578    0.156066   -0.105114
     86          6           0      -13.174045   -0.830971    0.075675
     87          6           0      -11.698792   -0.458128   -0.231219
     88          6           0      -11.801163    1.129298   -0.011036
     89          6           0      -13.283383    1.324328   -0.323527
     90          6           0      -11.556298    1.554415    1.427238
     91          6           0      -11.287815   -0.808368   -1.704462
     92          6           0       -9.783665   -0.758576   -1.981621
     93          1           0       -9.216230   -1.724285   -2.918584
     94          7           0      -16.175324    2.169894   -0.902944
     95          6           0      -15.079689    2.939477   -1.072093
     96          6           0      -15.563530    4.210608   -1.632708
     97          6           0      -17.051567    4.189672   -1.626838
     98          6           0      -17.295044    2.964023   -0.892953
     99          6           0      -14.642109    5.261382   -2.180678
    100          6           0      -18.084507    5.125335   -2.177976
    101          8           0      -19.320194    5.032698   -1.850354
    102          6           0      -17.592978    6.210850   -3.039097
    103          7           0      -18.124453    0.493719    0.709064
    104          6           0      -18.909855    1.557013    0.463132
    105          6           0      -20.313857    1.326784    0.969252
    106          6           0      -20.370753   -0.214467    1.392214
    107          6           0      -18.899385   -0.603511    1.129293
    108          6           0      -20.745711    2.194818    2.150948
    109          6           0      -21.489994   -1.079493    0.750572
    110          6           0      -21.237357   -1.233460   -0.731942
    111          7           0      -16.162813   -1.670937    0.648986
    112          6           0      -17.191101   -2.356631    1.332010
    113          6           0      -16.626777   -3.642517    1.790783
    114          6           0      -15.292229   -3.605459    1.359384
    115          6           0      -15.036938   -2.374168    0.697375
    116          6           0      -17.316947   -4.631243    2.547231
    117          6           0      -14.038504   -4.323460    1.322803
    118          8           0      -13.674389   -5.452768    1.648085
    119          6           0      -12.898823   -3.326041    0.840411
    120          6           0      -12.094263   -4.020075   -0.224247
    121          8           0      -12.612127   -4.316387   -1.315409
    122          8           0      -10.797728   -4.023796    0.135425
    123          6           0       -9.957815   -4.691716   -0.894255
    124          1           0      -13.066680    3.447598   -0.662471
    125          1           0      -19.303004    3.288269   -0.355159
    126          1           0      -19.095398   -2.547134    1.955605
    127          1           0      -10.971754   -0.882015    0.451068
    128          1           0      -11.186359    1.667893   -0.727477
    129          1           0      -11.470163    0.705544    2.089161
    130          1           0      -12.406836    2.164156    1.702630
    131          1           0      -10.683742    2.211622    1.482728
    132          1           0      -11.628452   -0.006074   -2.371570
    133          1           0      -11.676534   -1.766194   -1.990972
    134          1           0       -9.194881   -0.728828   -1.056747
    135          1           0       -9.553175    0.187911   -2.476635
    136          1           0      -13.599721    5.069469   -1.897833
    137          1           0      -14.892044    6.200716   -1.675654
    138          1           0      -14.753646    5.398966   -3.258308
    139          1           0      -16.877414    6.814662   -2.486061
    140          1           0      -18.486301    6.718920   -3.407481
    141          1           0      -17.048184    5.769863   -3.881329
    142          1           0      -21.041028    1.503382    0.186223
    143          1           0      -20.539339   -0.334574    2.472478
    144          1           0      -21.658850    2.785593    1.947853
    145          1           0      -19.922758    2.845542    2.415212
    146          1           0      -20.921437    1.655549    3.080206
    147          1           0      -22.457625   -0.581612    0.850451
    148          1           0      -21.586096   -2.062937    1.198431
    149          1           0      -21.657230   -0.313950   -1.150634
    150          1           0      -21.748878   -2.112673   -1.118425
    151          1           0      -20.163084   -1.234483   -0.950092
    152          1           0      -17.063885   -5.588942    2.112187
    153          1           0      -18.391486   -4.460845    2.537686
    154          1           0      -16.882764   -4.458859    3.535683
    155          1           0      -12.293500   -3.074109    1.712017
    156          1           0       -9.405648   -5.489429   -0.387845
    157          1           0       -9.362188   -3.885760   -1.362684
    158          1           0      -10.466916   -5.248037   -1.672559
 ---------------------------------------------------------------------

 SCF Done:  E(RCAM-B3LYP) =  -4069.81176371     A.U. after   19 cycles

 Excitation energies and oscillator strengths:

 Excited State   1:      Singlet-A      1.6753 eV  740.08 nm  f=0.2057  <S**2>=0.000
     310 -> 316        0.16812
     311 -> 313       -0.16937
     312 -> 314        0.66482
     310 <- 316        0.10135
 This state for optimization and/or second-order correction.
 Total Energy, E(TD-HF/TD-DFT) =  -4069.75019811
 Copying the excited state density for this state as the 1-particle RhoCI density.

 Excited State   2:      Singlet-A      1.6801 eV  737.95 nm  f=0.5715  <S**2>=0.000
     309 -> 315        0.17016
     311 -> 313        0.66445
     312 -> 314        0.16932
     309 <- 315        0.10187

 Excited State   3:      Singlet-A      2.1860 eV  567.16 nm  f=0.1028  <S**2>=0.000
     310 -> 314        0.64248
     312 -> 316       -0.27306

 Excited State   4:      Singlet-A      2.1925 eV  565.50 nm  f=0.0987  <S**2>=0.000
     309 -> 313        0.64070
     311 -> 315       -0.27827

 Excited State   5:      Singlet-A      3.0616 eV  404.97 nm  f=0.0000  <S**2>=0.000
     312 -> 313        0.70710

 The electronic state is 1-A.
 Alpha  occ. eigenvalues --  -46.87813 -46.87658 -19.26334 -19.26295 -19.19149
 Alpha  occ. eigenvalues --  -19.19032 -19.18834 -19.18714 -19.18183 -19.18046
 Alpha  occ. eigenvalues --  -14.42495 -14.42466 -14.41465 -14.41358 -14.39419
 Alpha  occ. eigenvalues --  -14.39350 -14.38602 -14.38598 -10.39091 -10.39079
 Alpha  occ. eigenvalues --  -10.35468 -10.35392 -10.34402 -10.34223 -10.31736
 Alpha  occ. eigenvalues --  -10.31688 -10.31420 -10.31305 -10.31020 -10.30924
 Alpha  occ. eigenvalues --  -10.30585 -10.30523 -10.30396 -10.30358 -10.30224
 Alpha  occ. eigenvalues --  -10.30141 -10.29936 -10.29893 -10.29647 -10.29436
 Alpha  occ. eigenvalues --  -10.29399 -10.29271 -10.28763 -10.28711 -10.28640
 Alpha  occ. eigenvalues --  -10.28551 -10.28402 -10.28380 -10.28133 -10.28130
 Alpha  occ. eigenvalues --  -10.27999 -10.27808 -10.27743 -10.27666 -10.27601
 Alpha  occ. eigenvalues --  -10.27519 -10.27518 -10.27499 -10.27480 -10.27467
 Alpha  occ. eigenvalues --  -10.27466 -10.27463 -10.27419 -10.27377 -10.27171
 Alpha  occ. eigenvalues --  -10.27043 -10.26719 -10.26683 -10.26432 -10.26417
 Alpha  occ. eigenvalues --  -10.26247 -10.26202 -10.26140 -10.26035 -10.26017
 Alpha  occ. eigenvalues --  -10.25933 -10.25856 -10.25849 -10.25451 -10.25400
 Alpha  occ. eigenvalues --  -10.24870 -10.24848 -10.24804 -10.24733 -10.24707
 Alpha  occ. eigenvalues --  -10.24688  -3.16555  -3.16408  -1.91437  -1.91290
 Alpha  occ. eigenvalues --   -1.91024  -1.90879  -1.90866  -1.90716  -1.16644
 Alpha  occ. eigenvalues --   -1.16629  -1.08652  -1.08640  -1.07236  -1.06967
 Alpha  occ. eigenvalues --   -1.06933  -1.06654  -1.04596  -1.04492  -1.03776
 Alpha  occ. eigenvalues --   -1.03661  -1.03250  -1.03037  -1.02427  -1.02109
 Alpha  occ. eigenvalues --   -0.91987  -0.91983  -0.89536  -0.89494  -0.89202
 Alpha  occ. eigenvalues --   -0.89145  -0.88303  -0.88220  -0.87885  -0.87791
 Alpha  occ. eigenvalues --   -0.87688  -0.87681  -0.87291  -0.87119  -0.84997
 Alpha  occ. eigenvalues --   -0.84994  -0.83953  -0.83876  -0.82986  -0.82932
 Alpha  occ. eigenvalues --   -0.82664  -0.82648  -0.81599  -0.81588  -0.80611
 Alpha  occ. eigenvalues --   -0.80437  -0.78814  -0.78634  -0.77234  -0.77141
 Alpha  occ. eigenvalues --   -0.76948  -0.76892  -0.75937  -0.75832  -0.74914
 Alpha  occ. eigenvalues --   -0.74801  -0.72790  -0.72697  -0.71687  -0.71578
 Alpha  occ. eigenvalues --   -0.69924  -0.69758  -0.68888  -0.68822  -0.67657
 Alpha  occ. eigenvalues --   -0.67598  -0.67235  -0.67194  -0.65301  -0.65265
 Alpha  occ. eigenvalues --   -0.64868  -0.64767  -0.64648  -0.64635  -0.64285
 Alpha  occ. eigenvalues --   -0.64203  -0.62310  -0.62270  -0.60459  -0.60339
 Alpha  occ. eigenvalues --   -0.59819  -0.59791  -0.59003  -0.58990  -0.58519
 Alpha  occ. eigenvalues --   -0.58422  -0.57598  -0.57547  -0.57324  -0.57235
 Alpha  occ. eigenvalues --   -0.56325  -0.56201  -0.55991  -0.55877  -0.55536
 Alpha  occ. eigenvalues --   -0.55448  -0.55354  -0.55244  -0.54538  -0.54483
 Alpha  occ. eigenvalues --   -0.53909  -0.53906  -0.53315  -0.53237  -0.53225
 Alpha  occ. eigenvalues --   -0.53137  -0.52929  -0.52896  -0.52773  -0.52666
 Alpha  occ. eigenvalues --   -0.52455  -0.52402  -0.51928  -0.51883  -0.51653
 Alpha  occ. eigenvalues --   -0.51632  -0.51210  -0.51197  -0.50591  -0.50475
 Alpha  occ. eigenvalues --   -0.50048  -0.49977  -0.49935  -0.49867  -0.49530
 Alpha  occ. eigenvalues --   -0.49484  -0.49229  -0.49198  -0.49110  -0.49099
 Alpha  occ. eigenvalues --   -0.48607  -0.48552  -0.48478  -0.48461  -0.48375
 Alpha  occ. eigenvalues --   -0.48337  -0.47710  -0.47591  -0.47313  -0.47116
 Alpha  occ. eigenvalues --   -0.46812  -0.46706  -0.46570  -0.46548  -0.46375
 Alpha  occ. eigenvalues --   -0.46268  -0.46177  -0.46082  -0.45835  -0.45816
 Alpha  occ. eigenvalues --   -0.45217  -0.45208  -0.44592  -0.44524  -0.44509
 Alpha  occ. eigenvalues --   -0.44471  -0.44161  -0.44123  -0.44103  -0.44076
 Alpha  occ. eigenvalues --   -0.44034  -0.43935  -0.43545  -0.43508  -0.43401
 Alpha  occ. eigenvalues --   -0.43381  -0.43042  -0.42922  -0.42895  -0.42713
 Alpha  occ. eigenvalues --   -0.42670  -0.42553  -0.42025  -0.41961  -0.41719
 Alpha  occ. eigenvalues --   -0.41665  -0.41548  -0.41453  -0.41156  -0.40986
 Alpha  occ. eigenvalues --   -0.40884  -0.40841  -0.40719  -0.40694  -0.40587
 Alpha  occ. eigenvalues --   -0.40492  -0.40249  -0.40219  -0.39459  -0.39426
 Alpha  occ. eigenvalues --   -0.38485  -0.38349  -0.37763  -0.37646  -0.37336
 Alpha  occ. eigenvalues --   -0.37278  -0.37264  -0.37194  -0.36761  -0.36726
 Alpha  occ. eigenvalues --   -0.36213  -0.36207  -0.34301  -0.34251  -0.33852
 Alpha  occ. eigenvalues --   -0.33783  -0.33202  -0.33173  -0.31364  -0.31273
 Alpha  occ. eigenvalues --   -0.31051  -0.30970  -0.30042  -0.29950  -0.29466
 Alpha  occ. eigenvalues --   -0.29337  -0.29326  -0.29209  -0.24096  -0.24034
 Alpha  occ. eigenvalues --   -0.21143  -0.21115
 Alpha virt. eigenvalues --   -0.08790  -0.08790  -0.01766  -0.01682  -0.00075
 Alpha virt. eigenvalues --   -0.00027   0.02186   0.02210   0.03104   0.03228
 Alpha virt. eigenvalues --    0.04703   0.04734   0.05086   0.05176   0.06164

 Mulliken charges:
               1
     1  Mg   0.838723
     2  C   -0.002966
     3  C   -0.094113
     4  C   -0.045908
     5  C   -0.063983
     6  N   -0.256779
     7  C   -0.052465
     8  C   -0.014001
     9  C   -0.087007
    10  C    0.046299
    11  C    0.104809
    12  C    0.053470
    13  C   -0.071819
    14  H    0.036150
    15  N   -0.433150
    16  C    0.168394
    17  C   -0.177169
    18  C   -0.004032
    19  C    0.148706
    20  C    0.110182
    21  C    0.012249
    22  O   -0.249660
    23  C    0.062495
    24  N   -0.341154
    25  C    0.041252
    26  C   -0.028172
    27  C   -0.024004
    28  C    0.074879
    29  C    0.076175
    30  C    0.035144
    31  C   -0.004502
    32  N   -0.310466
    33  C    0.080418
    34  C   -0.169700
    35  C    0.008371
    36  C    0.082986
    37  C    0.127310
    38  C    0.046149
    39  O   -0.188361
    40  C   -0.005336
    41  C    0.212883
    42  O   -0.257126
    43  O   -0.304780
    44  C    0.157672
    45  H   -0.017591
    46  H   -0.016865
    47  H   -0.041466
    48  H    0.000975
    49  H   -0.004036
    50  H    0.025499
    51  H    0.016447
    52  H    0.016682
    53  H    0.011164
    54  H    0.044109
    55  H    0.017913
    56  H    0.017940
    57  H    0.005891
    58  H    0.026827
    59  H    0.039487
    60  H    0.037375
    61  H    0.035590
    62  H    0.031444
    63  H    0.016507
    64  H    0.009495
    65  H    0.023190
    66  H    0.012561
    67  H    0.004779
    68  H    0.006358
    69  H    0.004766
    70  H    0.008729
    71  H    0.018127
    72  H    0.028974
    73  H    0.047607
    74  H    0.009118
    75  H    0.046050
    76  H    0.035188
    77  H    0.043008
    78  H    0.046401
    79  H    0.053691
    80  Mg   0.837784
    81  C   -0.016830
    82  C   -0.087776
    83  C   -0.045524
    84  C   -0.064908
    85  N   -0.254562
    86  C   -0.049797
    87  C   -0.015122
    88  C   -0.090470
    89  C    0.045751
    90  C    0.114363
    91  C    0.062526
    92  C   -0.077945
    93  H    0.035002
    94  N   -0.423489
    95  C    0.162919
    96  C   -0.174639
    97  C   -0.007819
    98  C    0.152115
    99  C    0.099369
   100  C    0.015559
   101  O   -0.253212
   102  C    0.061200
   103  N   -0.350060
   104  C    0.037501
   105  C   -0.019816
   106  C   -0.034813
   107  C    0.088943
   108  C    0.073656
   109  C    0.034729
   110  C   -0.007675
   111  N   -0.324101
   112  C    0.078448
   113  C   -0.163147
   114  C    0.002272
   115  C    0.096199
   116  C    0.131495
   117  C    0.042398
   118  O   -0.187774
   119  C    0.000916
   120  C    0.211278
   121  O   -0.251044
   122  O   -0.305612
   123  C    0.152001
   124  H   -0.019641
   125  H   -0.015592
   126  H   -0.040470
   127  H   -0.000559
   128  H   -0.004297
   129  H    0.022498
   130  H    0.014383
   131  H    0.016344
   132  H    0.013878
   133  H    0.037677
   134  H    0.020885
   135  H    0.019575
   136  H    0.008783
   137  H    0.026129
   138  H    0.039778
   139  H    0.038251
   140  H    0.036373
   141  H    0.033896
   142  H    0.014385
   143  H    0.012406
   144  H    0.025122
   145  H    0.011638
   146  H    0.005662
   147  H    0.006247
   148  H    0.003650
   149  H    0.010924
   150  H    0.017932
   151  H    0.030119
   152  H    0.046037
   153  H    0.008492
   154  H    0.046959
   155  H    0.035090
   156  H    0.044045
   157  H    0.049540
   158  H    0.053571
 Sum of Mulliken charges =  -0.00000

 Dipole moment (field-independent basis, Debye):
    X=              4.0563    Y=              6.9600    Z=             -2.7741  Tot=              8.5200
 Quadrupole moment (field-independent basis, Debye-Ang):
   XX=           -488.0126   YY=           -558.6573   ZZ=           -469.3563
   XY=              7.0767   XZ=            -62.6382   YZ=             -9.8338

 Normal termination of Gaussian 16 at Sun Sep 12 17:00:41 2021.
