 Gaussian 16, Revision A.03,
 Gaussian 16:  ES64L-G16RevA.03 25-Dec-2016

 -----------------------------------
 #p cam-b3lyp/Def2SVP td=(nstates=5)
 -----------------------------------

 --------------------------------
 TDDFT excited states in gaussian
 --------------------------------
 Symbolic Z-matrix:
 Charge =  0 Multiplicity = 1

                         Standard orientation:
 ---------------------------------------------------------------------
 Center     Atomic      Atomic             Coordinates (Angstroms)
 Number     Number       Type             X           Y           Z
 ---------------------------------------------------------------------
      1         12           0        8.054484   -0.603914    0.675789
      2          6           0        8.411496    2.304080   -1.380501
      3          6           0        8.696506    1.399471    3.362296
      4          6           0        8.194067   -3.223156    2.458121
      5          6           0        8.567459   -2.514666   -2.193278
      6          7           0        8.482214    1.561747    0.841941
      7          6           0        8.531201    2.576136   -0.015839
      8          6           0        8.646250    3.966577    0.677565
      9          6           0        9.289145    3.505190    2.061692
     10          6           0        8.763350    2.081455    2.111112
     11          6           0       10.813785    3.465330    2.042053
     12          6           0        7.249740    4.641698    0.891348
     13          6           0        7.291851    6.127660    1.259449
     14          1           0        6.249691    7.005422    0.748779
     15          7           0        7.912561   -0.830713    2.633152
     16          6           0        8.198699    0.096309    3.578689
     17          6           0        7.933946   -0.553840    4.880185
     18          6           0        7.652794   -1.993230    4.620946
     19          6           0        7.937988   -2.079941    3.211505
     20          6           0        7.915711    0.187482    6.181669
     21          6           0        7.209198   -3.115210    5.505545
     22          8           0        7.248745   -4.335883    5.127436
     23          6           0        6.805148   -2.751158    6.875674
     24          7           0        8.556682   -2.585174    0.251476
     25          6           0        8.478632   -3.533350    1.191610
     26          6           0        8.608378   -4.904165    0.596654
     27          6           0        8.548498   -4.706342   -0.986708
     28          6           0        8.472378   -3.160148   -1.028640
     29          6           0        9.882197   -5.676497    0.966650
     30          6           0        7.477344   -5.518701   -1.756851
     31          6           0        6.095896   -5.028045   -1.385427
     32          7           0        8.249405   -0.215633   -1.450779
     33          6           0        8.480613   -1.158969   -2.462379
     34          6           0        8.645520   -0.410176   -3.721816
     35          6           0        8.514418    0.926448   -3.350205
     36          6           0        8.308477    1.008915   -1.943407
     37          6           0        8.941021   -0.974295   -4.994169
     38          6           0        8.524964    2.305509   -3.810570
     39          8           0        8.564161    2.850944   -4.914408
     40          6           0        8.580367    3.258765   -2.536184
     41          6           0        7.538746    4.328106   -2.722844
     42          8           0        6.323306    4.045191   -2.717173
     43          8           0        8.120434    5.534508   -2.640536
     44          6           0        7.137160    6.640681   -2.787878
     45          1           0        9.116177    1.879828    4.248341
     46          1           0        8.140946   -4.159156    3.018050
     47          1           0        8.646104   -3.048190   -3.142288
     48          1           0        9.309450    4.671294    0.175606
     49          1           0        8.902482    4.081324    2.902099
     50          1           0       11.203912    3.636678    1.038877
     51          1           0       11.083376    2.468016    2.390161
     52          1           0       11.228878    4.160088    2.772660
     53          1           0        6.790706    4.239757    1.794560
     54          1           0        6.616964    4.505493    0.013641
     55          1           0        8.277105    6.556422    1.074121
     56          1           0        7.156162    6.216482    2.337363
     57          1           0        8.320655    1.193110    6.075477
     58          1           0        8.615834   -0.318499    6.846139
     59          1           0        6.923603    0.199516    6.633231
     60          1           0        7.639661   -2.262658    7.379167
     61          1           0        6.434508   -3.667645    7.333414
     62          1           0        6.004234   -2.013094    6.823263
     63          1           0        7.784571   -5.545148    0.907957
     64          1           0        9.487280   -4.979975   -1.468879
     65          1           0        9.688491   -6.643483    1.431538
     66          1           0       10.483286   -5.042787    1.618106
     67          1           0       10.568940   -5.849045    0.138381
     68          1           0        7.528803   -6.571370   -1.480836
     69          1           0        7.584465   -5.454153   -2.839722
     70          1           0        5.885017   -5.569192   -0.463732
     71          1           0        5.377820   -5.288093   -2.163857
     72          1           0        6.102435   -3.964774   -1.144804
     73          1           0        8.296765   -0.464938   -5.710730
     74          1           0        8.767414   -2.050133   -5.000298
     75          1           0        9.997049   -0.721202   -5.086931
     76          1           0        9.588053    3.671249   -2.496841
     77          1           0        7.482871    7.270350   -3.607778
     78          1           0        7.037844    7.100063   -1.804258
     79          1           0        6.146452    6.360291   -3.147346
     80         12           0       -7.758276   -0.693720   -0.639365
     81          6           0       -9.836004    1.632850    1.135227
     82          6           0       -6.586911    1.955611   -2.440358
     83          6           0       -6.255991   -2.762588   -2.518293
     84          6           0       -9.880117   -3.224340    0.473930
     85          7           0       -8.226995    1.466731   -0.568459
     86          6           0       -8.987172    2.243462    0.188615
     87          6           0       -8.769692    3.764975   -0.028777
     88          6           0       -8.186553    3.713300   -1.524156
     89          6           0       -7.595942    2.304894   -1.507647
     90          6           0       -9.265462    3.766286   -2.593016
     91          6           0       -7.725289    4.368854    0.974496
     92          6           0       -7.692203    5.897918    1.025466
     93          1           0       -7.429615    6.546080    2.307420
     94          7           0       -6.247751   -0.423492   -1.897884
     95          6           0       -5.901837    0.723244   -2.519669
     96          6           0       -4.735737    0.392876   -3.353464
     97          6           0       -4.522796   -1.079042   -3.300052
     98          6           0       -5.705642   -1.490211   -2.570749
     99          6           0       -3.901127    1.437507   -4.035797
    100          6           0       -3.440922   -1.970515   -3.830179
    101          8           0       -3.579255   -3.243978   -3.874604
    102          6           0       -2.252910   -1.302862   -4.381863
    103          7           0       -8.144078   -2.671498   -1.151123
    104          6           0       -7.303262   -3.356589   -1.945848
    105          6           0       -7.635933   -4.829582   -1.950915
    106          6           0       -8.729057   -5.027108   -0.800412
    107          6           0       -8.912812   -3.555091   -0.370518
    108          6           0       -8.177676   -5.384694   -3.268006
    109          6           0       -8.415441   -6.083253    0.294514
    110          6           0       -7.245027   -5.624331    1.134104
    111          7           0       -9.426265   -0.836282    0.726487
    112          6           0      -10.187032   -1.987495    1.026544
    113          6           0      -11.284410   -1.563445    1.920063
    114          6           0      -11.097971   -0.179959    2.060491
    115          6           0       -9.976436    0.232628    1.291456
    116          6           0      -12.305205   -2.406993    2.442103
    117          6           0      -11.601265    1.026943    2.675919
    118          8           0      -12.477704    1.280835    3.501229
    119          6           0      -10.882311    2.274829    2.003391
    120          6           0      -10.415867    3.189932    3.102262
    121          8           0       -9.533935    2.823012    3.898616
    122          8           0      -10.927497    4.417823    2.900045
    123          6           0      -10.484261    5.364077    3.958338
    124          1           0       -6.322097    2.677945   -3.213020
    125          1           0       -5.708423   -3.535918   -3.061978
    126          1           0      -10.525713   -3.969878    0.943028
    127          1           0       -9.673798    4.361379   -0.002664
    128          1           0       -7.403745    4.453361   -1.668636
    129          1           0      -10.256652    3.710664   -2.168067
    130          1           0       -9.082261    2.917087   -3.238272
    131          1           0       -9.133379    4.653939   -3.218283
    132          1           0       -6.712841    4.171425    0.599359
    133          1           0       -7.875167    3.977536    1.961927
    134          1           0       -8.568402    6.345553    0.540862
    135          1           0       -6.847319    6.246889    0.426794
    136          1           0       -4.397194    2.415915   -4.029617
    137          1           0       -3.851258    1.164949   -5.095554
    138          1           0       -2.885995    1.492342   -3.636840
    139          1           0       -2.552736   -0.645953   -5.194905
    140          1           0       -1.554718   -2.105202   -4.628117
    141          1           0       -1.818268   -0.663954   -3.605015
    142          1           0       -6.762716   -5.424073   -1.711795
    143          1           0       -9.695198   -5.358153   -1.208833
    144          1           0       -7.579957   -6.226570   -3.665567
    145          1           0       -8.221719   -4.576964   -3.986451
    146          1           0       -9.212209   -5.722230   -3.236172
    147          1           0       -8.115856   -7.028147   -0.165479
    148          1           0       -9.257760   -6.294449    0.944803
    149          1           0       -6.379407   -5.930410    0.539046
    150          1           0       -7.252062   -6.118265    2.103652
    151          1           0       -7.221397   -4.531180    1.212286
    152          1           0      -12.424869   -2.142544    3.484329
    153          1           0      -12.050931   -3.458323    2.324554
    154          1           0      -13.144620   -2.114067    1.805826
    155          1           0      -11.608878    2.758036    1.349023
    156          1           0      -11.387891    5.794258    4.401140
    157          1           0       -9.785432    6.062602    3.460897
    158          1           0       -9.998493    4.946583    4.832515
 ---------------------------------------------------------------------

 SCF Done:  E(RCAM-B3LYP) =  -4069.81200266     A.U. after   19 cycles

 Excitation energies and oscillator strengths:

 Excited State   1:      Singlet-A      1.6706 eV  742.15 nm  f=0.1356  <S**2>=0.000
     309 -> 315        0.10504
     310 -> 316        0.13742
     311 -> 313        0.41550
     312 -> 314        0.54624
 This state for optimization and/or second-order correction.
 Total Energy, E(TD-HF/TD-DFT) =  -4069.75060875
 Copying the excited state density for this state as the 1-particle RhoCI density.

 Excited State   2:      Singlet-A      1.6849 eV  735.84 nm  f=0.6334  <S**2>=0.000
     309 -> 315        0.14086
     310 -> 316       -0.10661
     311 -> 313        0.54550
     312 -> 314       -0.41507

 Excited State   3:      Singlet-A      2.1870 eV  566.92 nm  f=0.0550  <S**2>=0.000
     309 -> 313       -0.15083
     310 -> 314        0.62454
     312 -> 316       -0.26599

 Excited State   4:      Singlet-A      2.1934 eV  565.25 nm  f=0.1381  <S**2>=0.000
     309 -> 313        0.62280
     310 -> 314        0.14990
     311 -> 315       -0.27098

 Excited State   5:      Singlet-A      2.7745 eV  446.88 nm  f=0.0000  <S**2>=0.000
     312 -> 313        0.70706

 The electronic state is 1-A.
 Alpha  occ. eigenvalues --  -46.87819 -46.87576 -19.26377 -19.26307 -19.19113
 Alpha  occ. eigenvalues --  -19.19113 -19.18813 -19.18584 -19.18216 -19.17978
 Alpha  occ. eigenvalues --  -14.42475 -14.42413 -14.41468 -14.41277 -14.39423
 Alpha  occ. eigenvalues --  -14.39262 -14.38614 -14.38516 -10.39167 -10.39041
 Alpha  occ. eigenvalues --  -10.35445 -10.35254 -10.34438 -10.34158 -10.31787
 Alpha  occ. eigenvalues --  -10.31726 -10.31437 -10.31231 -10.30936 -10.30933
 Alpha  occ. eigenvalues --  -10.30598 -10.30529 -10.30313 -10.30277 -10.30215
 Alpha  occ. eigenvalues --  -10.30050 -10.29939 -10.29819 -10.29652 -10.29340
 Alpha  occ. eigenvalues --  -10.29305 -10.29271 -10.28792 -10.28647 -10.28606
 Alpha  occ. eigenvalues --  -10.28602 -10.28392 -10.28315 -10.28152 -10.28064
 Alpha  occ. eigenvalues --  -10.27911 -10.27818 -10.27750 -10.27602 -10.27581
 Alpha  occ. eigenvalues --  -10.27495 -10.27485 -10.27446 -10.27445 -10.27433
 Alpha  occ. eigenvalues --  -10.27401 -10.27363 -10.27304 -10.27300 -10.27212
 Alpha  occ. eigenvalues --  -10.26984 -10.26765 -10.26628 -10.26390 -10.26265
 Alpha  occ. eigenvalues --  -10.26216 -10.26161 -10.26072 -10.26035 -10.25952
 Alpha  occ. eigenvalues --  -10.25875 -10.25851 -10.25786 -10.25430 -10.25330
 Alpha  occ. eigenvalues --  -10.24862 -10.24805 -10.24787 -10.24665 -10.24652
 Alpha  occ. eigenvalues --  -10.24606  -3.16562  -3.16326  -1.91444  -1.91208
 Alpha  occ. eigenvalues --   -1.91031  -1.90873  -1.90796  -1.90633  -1.16724
 Alpha  occ. eigenvalues --   -1.16599  -1.08679  -1.08589  -1.07213  -1.06897
 Alpha  occ. eigenvalues --   -1.06835  -1.06734  -1.04608  -1.04411  -1.03780
 Alpha  occ. eigenvalues --   -1.03578  -1.03256  -1.02954  -1.02433  -1.02026
 Alpha  occ. eigenvalues --   -0.92006  -0.91908  -0.89527  -0.89416  -0.89226
 Alpha  occ. eigenvalues --   -0.89077  -0.88292  -0.88144  -0.87899  -0.87715
 Alpha  occ. eigenvalues --   -0.87699  -0.87601  -0.87284  -0.86992  -0.85017
 Alpha  occ. eigenvalues --   -0.84921  -0.83941  -0.83804  -0.82965  -0.82804
 Alpha  occ. eigenvalues --   -0.82679  -0.82555  -0.81639  -0.81531  -0.80630
 Alpha  occ. eigenvalues --   -0.80361  -0.78814  -0.78527  -0.77240  -0.77060
 Alpha  occ. eigenvalues --   -0.76973  -0.76830  -0.75963  -0.75762  -0.74911
 Alpha  occ. eigenvalues --   -0.74728  -0.72797  -0.72615  -0.71697  -0.71503
 Alpha  occ. eigenvalues --   -0.69901  -0.69685  -0.68904  -0.68744  -0.67667
 Alpha  occ. eigenvalues --   -0.67515  -0.67254  -0.67107  -0.65325  -0.65197
 Alpha  occ. eigenvalues --   -0.64887  -0.64692  -0.64651  -0.64579  -0.64279
 Alpha  occ. eigenvalues --   -0.64128  -0.62354  -0.62216  -0.60452  -0.60229
 Alpha  occ. eigenvalues --   -0.59838  -0.59717  -0.59013  -0.58913  -0.58531
 Alpha  occ. eigenvalues --   -0.58345  -0.57638  -0.57488  -0.57329  -0.57148
 Alpha  occ. eigenvalues --   -0.56337  -0.56115  -0.56043  -0.55820  -0.55540
 Alpha  occ. eigenvalues --   -0.55364  -0.55351  -0.55178  -0.54560  -0.54423
 Alpha  occ. eigenvalues --   -0.53934  -0.53837  -0.53318  -0.53251  -0.53138
 Alpha  occ. eigenvalues --   -0.53049  -0.52956  -0.52826  -0.52770  -0.52536
 Alpha  occ. eigenvalues --   -0.52431  -0.52329  -0.51947  -0.51814  -0.51651
 Alpha  occ. eigenvalues --   -0.51566  -0.51227  -0.51126  -0.50570  -0.50330
 Alpha  occ. eigenvalues --   -0.50033  -0.49931  -0.49880  -0.49779  -0.49541
 Alpha  occ. eigenvalues --   -0.49382  -0.49246  -0.49133  -0.49110  -0.49030
 Alpha  occ. eigenvalues --   -0.48635  -0.48484  -0.48479  -0.48460  -0.48303
 Alpha  occ. eigenvalues --   -0.48220  -0.47718  -0.47503  -0.47317  -0.47019
 Alpha  occ. eigenvalues --   -0.46818  -0.46631  -0.46593  -0.46472  -0.46382
 Alpha  occ. eigenvalues --   -0.46191  -0.46183  -0.46012  -0.45868  -0.45757
 Alpha  occ. eigenvalues --   -0.45209  -0.45132  -0.44618  -0.44521  -0.44439
 Alpha  occ. eigenvalues --   -0.44393  -0.44162  -0.44117  -0.44047  -0.44046
 Alpha  occ. eigenvalues --   -0.43992  -0.43826  -0.43544  -0.43491  -0.43410
 Alpha  occ. eigenvalues --   -0.43308  -0.43054  -0.42868  -0.42827  -0.42766
 Alpha  occ. eigenvalues --   -0.42663  -0.42469  -0.42026  -0.41892  -0.41733
 Alpha  occ. eigenvalues --   -0.41592  -0.41567  -0.41382  -0.41166  -0.40911
 Alpha  occ. eigenvalues --   -0.40895  -0.40830  -0.40637  -0.40590  -0.40581
 Alpha  occ. eigenvalues --   -0.40420  -0.40278  -0.40143  -0.39430  -0.39353
 Alpha  occ. eigenvalues --   -0.38478  -0.38277  -0.37793  -0.37584  -0.37332
 Alpha  occ. eigenvalues --   -0.37301  -0.37189  -0.37119  -0.36777  -0.36718
 Alpha  occ. eigenvalues --   -0.36230  -0.36147  -0.34311  -0.34172  -0.33851
 Alpha  occ. eigenvalues --   -0.33807  -0.33213  -0.33092  -0.31344  -0.31147
 Alpha  occ. eigenvalues --   -0.31059  -0.30887  -0.30078  -0.29885  -0.29468
 Alpha  occ. eigenvalues --   -0.29349  -0.29227  -0.29125  -0.24105  -0.23953
 Alpha  occ. eigenvalues --   -0.21149  -0.21030
 Alpha virt. eigenvalues --   -0.08796  -0.08701  -0.01768  -0.01596  -0.00075
 Alpha virt. eigenvalues --    0.00079   0.02169   0.02288   0.03091   0.03307
 Alpha virt. eigenvalues --    0.04686   0.04806   0.05017   0.05218   0.06124

 Mulliken charges:
               1
     1  Mg   0.838521
     2  C   -0.003265
     3  C   -0.094163
     4  C   -0.045662
     5  C   -0.063804
     6  N   -0.256811
     7  C   -0.052599
     8  C   -0.014006
     9  C   -0.087020
    10  C    0.046324
    11  C    0.104785
    12  C    0.053486
    13  C   -0.071655
    14  H    0.035418
    15  N   -0.433192
    16  C    0.168524
    17  C   -0.177032
    18  C   -0.003782
    19  C    0.148759
    20  C    0.110138
    21  C    0.012501
    22  O   -0.249306
    23  C    0.062373
    24  N   -0.341134
    25  C    0.041324
    26  C   -0.028254
    27  C   -0.023984
    28  C    0.074824
    29  C    0.076137
    30  C    0.035065
    31  C   -0.004592
    32  N   -0.310348
    33  C    0.080177
    34  C   -0.169906
    35  C    0.008140
    36  C    0.082744
    37  C    0.127388
    38  C    0.045752
    39  O   -0.188960
    40  C   -0.005203
    41  C    0.212892
    42  O   -0.257877
    43  O   -0.304558
    44  C    0.157935
    45  H   -0.017498
    46  H   -0.016543
    47  H   -0.041390
    48  H    0.000844
    49  H   -0.003998
    50  H    0.025448
    51  H    0.016588
    52  H    0.016737
    53  H    0.011309
    54  H    0.043589
    55  H    0.018002
    56  H    0.018189
    57  H    0.005863
    58  H    0.027003
    59  H    0.039901
    60  H    0.037328
    61  H    0.036022
    62  H    0.031747
    63  H    0.016895
    64  H    0.009453
    65  H    0.023430
    66  H    0.012477
    67  H    0.004792
    68  H    0.006627
    69  H    0.004706
    70  H    0.009131
    71  H    0.018778
    72  H    0.028522
    73  H    0.047126
    74  H    0.009292
    75  H    0.046023
    76  H    0.035206
    77  H    0.042896
    78  H    0.046518
    79  H    0.052891
    80  Mg   0.837703
    81  C   -0.016884
    82  C   -0.087596
    83  C   -0.045468
    84  C   -0.064934
    85  N   -0.254549
    86  C   -0.050088
    87  C   -0.015093
    88  C   -0.090517
    89  C    0.045731
    90  C    0.114369
    91  C    0.062495
    92  C   -0.077745
    93  H    0.034330
    94  N   -0.423580
    95  C    0.162992
    96  C   -0.174296
    97  C   -0.007513
    98  C    0.152121
    99  C    0.099171
   100  C    0.015625
   101  O   -0.253469
   102  C    0.061204
   103  N   -0.350040
   104  C    0.037590
   105  C   -0.019852
   106  C   -0.034682
   107  C    0.088725
   108  C    0.073704
   109  C    0.034775
   110  C   -0.007650
   111  N   -0.324008
   112  C    0.078191
   113  C   -0.163395
   114  C    0.002095
   115  C    0.096026
   116  C    0.131551
   117  C    0.042145
   118  O   -0.188384
   119  C    0.000978
   120  C    0.211208
   121  O   -0.251173
   122  O   -0.305607
   123  C    0.152140
   124  H   -0.019348
   125  H   -0.015542
   126  H   -0.040724
   127  H   -0.000847
   128  H   -0.004157
   129  H    0.022308
   130  H    0.014507
   131  H    0.016317
   132  H    0.014139
   133  H    0.037480
   134  H    0.020710
   135  H    0.019766
   136  H    0.008790
   137  H    0.026567
   138  H    0.041594
   139  H    0.038670
   140  H    0.036678
   141  H    0.035153
   142  H    0.014408
   143  H    0.012221
   144  H    0.025074
   145  H    0.011697
   146  H    0.005521
   147  H    0.006113
   148  H    0.003464
   149  H    0.011005
   150  H    0.017747
   151  H    0.030179
   152  H    0.045709
   153  H    0.008342
   154  H    0.046716
   155  H    0.034866
   156  H    0.043712
   157  H    0.049462
   158  H    0.053357
 Sum of Mulliken charges =  -0.00000

 Dipole moment (field-independent basis, Debye):
    X=              3.3882    Y=              3.0679    Z=              0.5688  Tot=              4.6061
 Quadrupole moment (field-independent basis, Debye-Ang):
   XX=           -522.4215   YY=           -463.7895   ZZ=           -525.4236
   XY=              9.3056   XZ=             72.0370   YZ=             19.5545

 Normal termination of Gaussian 16 at Sat Sep 11 20:10:22 2021.
