 Gaussian 16, Revision A.03,
 Gaussian 16:  ES64L-G16RevA.03 25-Dec-2016

 -----------------------------------
 #p cam-b3lyp/Def2SVP td=(nstates=5)
 -----------------------------------

 --------------------------------
 TDDFT excited states in gaussian
 --------------------------------
 Symbolic Z-matrix:
 Charge =  0 Multiplicity = 1

                         Standard orientation:
 ---------------------------------------------------------------------
 Center     Atomic      Atomic             Coordinates (Angstroms)
 Number     Number       Type             X           Y           Z
 ---------------------------------------------------------------------
      1         12           0       -4.059187   -1.733253    0.151075
      2          6           0       -5.651610    1.472272    0.182947
      3          6           0       -4.993657   -1.999360   -3.119861
      4          6           0       -3.063164   -4.743101    0.224349
      5          6           0       -4.255109   -1.700988    3.630476
      6          7           0       -5.175975   -0.369030   -1.187704
      7          6           0       -5.679325    0.855690   -1.069931
      8          6           0       -6.171848    1.453847   -2.421598
      9          6           0       -6.433369    0.096983   -3.216914
     10          6           0       -5.450957   -0.804059   -2.489650
     11          6           0       -7.841456   -0.458153   -3.028190
     12          6           0       -5.075004    2.325468   -3.120840
     13          6           0       -5.574402    3.205408   -4.270476
     14          1           0       -4.970450    4.515159   -4.463203
     15          7           0       -3.596138   -2.965746   -1.321812
     16          6           0       -4.056887   -2.915677   -2.594796
     17          6           0       -3.419734   -4.046286   -3.303627
     18          6           0       -2.699656   -4.869425   -2.292676
     19          6           0       -3.117973   -4.232156   -1.070269
     20          6           0       -3.487614   -4.229637   -4.788728
     21          6           0       -1.788752   -6.050454   -2.409112
     22          8           0       -1.457328   -6.756303   -1.395944
     23          6           0       -1.359678   -6.417415   -3.770831
     24          7           0       -3.904444   -3.140872    1.684795
     25          6           0       -3.386010   -4.353026    1.459200
     26          6           0       -3.115307   -5.078792    2.743693
     27          6           0       -3.332187   -4.009635    3.909720
     28          6           0       -3.795207   -2.809971    3.046767
     29          6           0       -3.989139   -6.311687    3.012764
     30          6           0       -2.157207   -3.797975    4.897162
     31          6           0       -0.990927   -3.158447    4.177514
     32          7           0       -4.648665   -0.303123    1.673667
     33          6           0       -4.672451   -0.509830    3.060527
     34          6           0       -5.244933    0.705295    3.668642
     35          6           0       -5.531606    1.533234    2.585047
     36          6           0       -5.185950    0.866418    1.375018
     37          6           0       -5.491931    0.906149    5.055395
     38          6           0       -6.072352    2.816317    2.166538
     39          8           0       -6.438171    3.836024    2.752940
     40          6           0       -6.284716    2.779958    0.588753
     41          6           0       -5.704791    4.047495    0.022763
     42          8           0       -4.476007    4.261877    0.061461
     43          8           0       -6.647895    4.692393   -0.680943
     44          6           0       -6.129778    5.944386   -1.294315
     45          1           0       -5.433746   -2.294365   -4.074447
     46          1           0       -2.621322   -5.738611    0.302933
     47          1           0       -4.268844   -1.585072    4.715754
     48          1           0       -7.095013    2.029740   -2.354238
     49          1           0       -6.161550    0.182963   -4.268790
     50          1           0       -8.393044    0.102746   -2.273826
     51          1           0       -7.706473   -1.492279   -2.710612
     52          1           0       -8.370686   -0.503763   -3.980352
     53          1           0       -4.393410    1.674355   -3.668145
     54          1           0       -4.553094    2.946489   -2.391959
     55          1           0       -6.662031    3.282676   -4.269819
     56          1           0       -5.338892    2.705749   -5.210197
     57          1           0       -4.221988   -3.564448   -5.241234
     58          1           0       -3.880340   -5.230235   -4.968390
     59          1           0       -2.509785   -4.128439   -5.259835
     60          1           0       -2.238225   -6.634692   -4.378691
     61          1           0       -0.642183   -7.228499   -3.651699
     62          1           0       -0.873204   -5.557188   -4.231594
     63          1           0       -2.089114   -5.442289    2.778699
     64          1           0       -4.174934   -4.269040    4.550937
     65          1           0       -3.418153   -7.226649    3.172532
     66          1           0       -4.680881   -6.423091    2.178275
     67          1           0       -4.676642   -6.210294    3.852095
     68          1           0       -1.809597   -4.755426    5.283688
     69          1           0       -2.419184   -3.171467    5.749868
     70          1           0       -0.490351   -4.010879    3.719676
     71          1           0       -0.334438   -2.655927    4.888644
     72          1           0       -1.329255   -2.507549    3.371070
     73          1           0       -5.159105    1.919234    5.280905
     74          1           0       -4.963437    0.171273    5.662235
     75          1           0       -6.573414    0.775282    5.088905
     76          1           0       -7.358573    2.709376    0.418543
     77          1           0       -6.772933    6.757206   -0.956810
     78          1           0       -6.066982    5.760954   -2.367075
     79          1           0       -5.158319    6.289332   -0.938482
     80         12           0        4.215276    1.807399   -0.084680
     81          6           0        5.420056   -1.553883   -0.444358
     82          6           0        3.661201    1.097877    3.205332
     83          6           0        2.734751    4.602491    0.166205
     84          6           0        3.792567    1.878244   -3.543298
     85          7           0        4.539747   -0.026539    1.108486
     86          6           0        5.060379   -1.222558    0.878629
     87          6           0        5.278089   -2.084615    2.151035
     88          6           0        4.182922   -1.393014    3.100341
     89          6           0        4.144672   -0.006986    2.459912
     90          6           0        2.801524   -2.014273    2.977364
     91          6           0        6.725504   -1.930582    2.736934
     92          6           0        7.106477   -2.971736    3.791730
     93          1           0        8.487372   -3.444644    3.835977
     94          7           0        3.780687    2.891005    1.520149
     95          6           0        3.614143    2.444564    2.782775
     96          6           0        3.287160    3.630768    3.589095
     97          6           0        3.112304    4.788611    2.670652
     98          6           0        3.183552    4.119911    1.386966
     99          6           0        3.247221    3.608971    5.089544
    100          6           0        2.901416    6.253242    2.908509
    101          8           0        2.536649    7.042658    1.966914
    102          6           0        3.043734    6.719320    4.295595
    103          7           0        3.185842    2.985580   -1.453809
    104          6           0        2.684452    4.181273   -1.097668
    105          6           0        2.232294    4.965153   -2.306575
    106          6           0        2.758817    4.143033   -3.573254
    107          6           0        3.373993    2.926430   -2.847415
    108          6           0        0.724604    5.182944   -2.432414
    109          6           0        3.635988    4.913857   -4.597485
    110          6           0        4.959852    5.283587   -3.968145
    111          7           0        4.706844    0.507113   -1.738669
    112          6           0        4.416089    0.717197   -3.104467
    113          6           0        4.844106   -0.495098   -3.832185
    114          6           0        5.336977   -1.342359   -2.828332
    115          6           0        5.205519   -0.711296   -1.561844
    116          6           0        4.707509   -0.717048   -5.231540
    117          6           0        5.928782   -2.631337   -2.550847
    118          8           0        6.351719   -3.559309   -3.239128
    119          6           0        5.892604   -2.876573   -0.980839
    120          6           0        7.251677   -3.360249   -0.554821
    121          8           0        8.244139   -2.616233   -0.644641
    122          8           0        7.119945   -4.535528    0.086846
    123          6           0        8.440045   -5.050415    0.538583
    124          1           0        3.238083    0.912177    4.192938
    125          1           0        2.316137    5.611425    0.183128
    126          1           0        3.784614    1.861542   -4.635232
    127          1           0        5.053600   -3.137607    2.030211
    128          1           0        4.534011   -1.329120    4.126988
    129          1           0        2.757131   -2.743666    2.182275
    130          1           0        2.126510   -1.192923    2.775437
    131          1           0        2.489037   -2.431808    3.938793
    132          1           0        6.769512   -1.019630    3.347630
    133          1           0        7.456133   -1.927776    1.951570
    134          1           0        6.409619   -3.818593    3.805527
    135          1           0        6.998339   -2.519531    4.780579
    136          1           0        3.254011    2.582803    5.477264
    137          1           0        2.271352    4.006111    5.389245
    138          1           0        4.031401    4.220679    5.540709
    139          1           0        2.337908    6.187736    4.929390
    140          1           0        2.944751    7.805623    4.250485
    141          1           0        4.046139    6.456793    4.651775
    142          1           0        2.679447    5.951595   -2.317264
    143          1           0        1.928289    3.758153   -4.183109
    144          1           0        0.441741    6.250585   -2.497296
    145          1           0        0.239993    4.711835   -1.587584
    146          1           0        0.254584    4.682199   -3.277124
    147          1           0        3.153009    5.852900   -4.878728
    148          1           0        3.819942    4.359837   -5.511934
    149          1           0        4.725476    6.202243   -3.422040
    150          1           0        5.711986    5.460818   -4.734247
    151          1           0        5.269178    4.532402   -3.232159
    152          1           0        5.637324   -1.154863   -5.569567
    153          1           0        4.486835    0.207455   -5.761055
    154          1           0        3.858858   -1.406261   -5.237782
    155          1           0        5.114604   -3.614761   -0.782425
    156          1           0        8.549966   -6.056590    0.122390
    157          1           0        8.434958   -4.959111    1.641025
    158          1           0        9.327237   -4.563250    0.151279
 ---------------------------------------------------------------------

 SCF Done:  E(RCAM-B3LYP) =  -4069.81166032     A.U. after   19 cycles

 Excitation energies and oscillator strengths:

 Excited State   1:      Singlet-A      1.6480 eV  752.34 nm  f=0.0038  <S**2>=0.000
     309 -> 315        0.11227
     310 -> 316        0.12391
     311 -> 313        0.46142
     312 -> 314        0.50995
 This state for optimization and/or second-order correction.
 Total Energy, E(TD-HF/TD-DFT) =  -4069.75109824
 Copying the excited state density for this state as the 1-particle RhoCI density.

 Excited State   2:      Singlet-A      1.7052 eV  727.09 nm  f=0.6956  <S**2>=0.000
     309 -> 315        0.13498
     310 -> 316       -0.12181
     311 -> 313        0.50729
     312 -> 314       -0.45904

 Excited State   3:      Singlet-A      2.1818 eV  568.26 nm  f=0.0122  <S**2>=0.000
     309 -> 313        0.32715
     310 -> 314        0.55629
     311 -> 315       -0.13534
     312 -> 316       -0.23136

 Excited State   4:      Singlet-A      2.1976 eV  564.18 nm  f=0.1611  <S**2>=0.000
     309 -> 313        0.55094
     310 -> 314       -0.32262
     311 -> 315       -0.24354
     312 -> 316        0.14382

 Excited State   5:      Singlet-A      2.3510 eV  527.36 nm  f=0.0000  <S**2>=0.000
     312 -> 313        0.70709

 The electronic state is 1-A.
 Alpha  occ. eigenvalues --  -46.87902 -46.87438 -19.26324 -19.26183 -19.19062
 Alpha  occ. eigenvalues --  -19.18993 -19.18843 -19.18435 -19.18245 -19.17863
 Alpha  occ. eigenvalues --  -14.42553 -14.42277 -14.41571 -14.41133 -14.39498
 Alpha  occ. eigenvalues --  -14.39121 -14.38691 -14.38388 -10.39126 -10.38918
 Alpha  occ. eigenvalues --  -10.35469 -10.35109 -10.34466 -10.34041 -10.31705
 Alpha  occ. eigenvalues --  -10.31612 -10.31512 -10.31116 -10.30994 -10.30788
 Alpha  occ. eigenvalues --  -10.30677 -10.30614 -10.30332 -10.30177 -10.30166
 Alpha  occ. eigenvalues --  -10.30055 -10.29901 -10.29725 -10.29666 -10.29350
 Alpha  occ. eigenvalues --  -10.29199 -10.29191 -10.28840 -10.28643 -10.28520
 Alpha  occ. eigenvalues --  -10.28514 -10.28451 -10.28208 -10.28176 -10.27945
 Alpha  occ. eigenvalues --  -10.27885 -10.27829 -10.27787 -10.27706 -10.27666
 Alpha  occ. eigenvalues --  -10.27629 -10.27522 -10.27500 -10.27455 -10.27303
 Alpha  occ. eigenvalues --  -10.27260 -10.27241 -10.27230 -10.27229 -10.27103
 Alpha  occ. eigenvalues --  -10.26848 -10.26808 -10.26523 -10.26498 -10.26350
 Alpha  occ. eigenvalues --  -10.26315 -10.26152 -10.26124 -10.25985 -10.25983
 Alpha  occ. eigenvalues --  -10.25805 -10.25764 -10.25730 -10.25585 -10.25109
 Alpha  occ. eigenvalues --  -10.24992 -10.24924 -10.24899 -10.24665 -10.24581
 Alpha  occ. eigenvalues --  -10.24438  -3.16645  -3.16188  -1.91526  -1.91113
 Alpha  occ. eigenvalues --   -1.91070  -1.90955  -1.90659  -1.90496  -1.16674
 Alpha  occ. eigenvalues --   -1.16477  -1.08701  -1.08477  -1.07241  -1.06777
 Alpha  occ. eigenvalues --   -1.06685  -1.06679  -1.04681  -1.04277  -1.03875
 Alpha  occ. eigenvalues --   -1.03438  -1.03338  -1.02814  -1.02519  -1.01888
 Alpha  occ. eigenvalues --   -0.92065  -0.91775  -0.89699  -0.89285  -0.89283
 Alpha  occ. eigenvalues --   -0.88954  -0.88456  -0.87987  -0.87981  -0.87780
 Alpha  occ. eigenvalues --   -0.87622  -0.87471  -0.87330  -0.86878  -0.85080
 Alpha  occ. eigenvalues --   -0.84795  -0.84135  -0.83645  -0.83032  -0.82723
 Alpha  occ. eigenvalues --   -0.82677  -0.82435  -0.81669  -0.81411  -0.80681
 Alpha  occ. eigenvalues --   -0.80236  -0.78876  -0.78419  -0.77352  -0.77047
 Alpha  occ. eigenvalues --   -0.76943  -0.76693  -0.76013  -0.75640  -0.75042
 Alpha  occ. eigenvalues --   -0.74542  -0.72891  -0.72495  -0.71779  -0.71346
 Alpha  occ. eigenvalues --   -0.70144  -0.69551  -0.68966  -0.68622  -0.67732
 Alpha  occ. eigenvalues --   -0.67384  -0.67299  -0.66993  -0.65390  -0.65074
 Alpha  occ. eigenvalues --   -0.64963  -0.64736  -0.64563  -0.64452  -0.64423
 Alpha  occ. eigenvalues --   -0.63986  -0.62380  -0.62089  -0.60528  -0.60098
 Alpha  occ. eigenvalues --   -0.59899  -0.59595  -0.59100  -0.58774  -0.58609
 Alpha  occ. eigenvalues --   -0.58212  -0.57665  -0.57421  -0.57366  -0.57011
 Alpha  occ. eigenvalues --   -0.56401  -0.56045  -0.56008  -0.55698  -0.55600
 Alpha  occ. eigenvalues --   -0.55486  -0.55236  -0.55036  -0.54654  -0.54281
 Alpha  occ. eigenvalues --   -0.53989  -0.53714  -0.53407  -0.53284  -0.53027
 Alpha  occ. eigenvalues --   -0.53016  -0.52927  -0.52817  -0.52704  -0.52663
 Alpha  occ. eigenvalues --   -0.52421  -0.52221  -0.52034  -0.51752  -0.51690
 Alpha  occ. eigenvalues --   -0.51452  -0.51316  -0.51010  -0.50614  -0.50223
 Alpha  occ. eigenvalues --   -0.50208  -0.49981  -0.49756  -0.49618  -0.49583
 Alpha  occ. eigenvalues --   -0.49295  -0.49263  -0.49186  -0.48997  -0.48907
 Alpha  occ. eigenvalues --   -0.48693  -0.48582  -0.48492  -0.48364  -0.48141
 Alpha  occ. eigenvalues --   -0.48086  -0.47793  -0.47385  -0.47377  -0.46938
 Alpha  occ. eigenvalues --   -0.46879  -0.46645  -0.46509  -0.46476  -0.46345
 Alpha  occ. eigenvalues --   -0.46278  -0.46058  -0.45922  -0.45874  -0.45645
 Alpha  occ. eigenvalues --   -0.45352  -0.44923  -0.44689  -0.44598  -0.44323
 Alpha  occ. eigenvalues --   -0.44298  -0.44266  -0.44175  -0.44082  -0.43921
 Alpha  occ. eigenvalues --   -0.43861  -0.43716  -0.43589  -0.43498  -0.43369
 Alpha  occ. eigenvalues --   -0.43178  -0.43139  -0.42885  -0.42744  -0.42738
 Alpha  occ. eigenvalues --   -0.42694  -0.42330  -0.42175  -0.41807  -0.41769
 Alpha  occ. eigenvalues --   -0.41638  -0.41461  -0.41258  -0.41245  -0.41014
 Alpha  occ. eigenvalues --   -0.40866  -0.40765  -0.40726  -0.40520  -0.40457
 Alpha  occ. eigenvalues --   -0.40325  -0.40270  -0.40023  -0.39689  -0.39227
 Alpha  occ. eigenvalues --   -0.38635  -0.38116  -0.37851  -0.37478  -0.37458
 Alpha  occ. eigenvalues --   -0.37358  -0.37050  -0.36993  -0.36801  -0.36586
 Alpha  occ. eigenvalues --   -0.36299  -0.35997  -0.34393  -0.34038  -0.33823
 Alpha  occ. eigenvalues --   -0.33682  -0.33288  -0.32957  -0.31379  -0.31134
 Alpha  occ. eigenvalues --   -0.30995  -0.30743  -0.30106  -0.29771  -0.29530
 Alpha  occ. eigenvalues --   -0.29415  -0.29099  -0.29003  -0.24187  -0.23813
 Alpha  occ. eigenvalues --   -0.21235  -0.20895
 Alpha virt. eigenvalues --   -0.08868  -0.08568  -0.01856  -0.01450  -0.00120
 Alpha virt. eigenvalues --    0.00213   0.02104   0.02399   0.02832   0.03493
 Alpha virt. eigenvalues --    0.04609   0.04930   0.05044   0.05342   0.06068

 Mulliken charges:
               1
     1  Mg   0.838715
     2  C   -0.002585
     3  C   -0.093909
     4  C   -0.046133
     5  C   -0.064706
     6  N   -0.256664
     7  C   -0.052688
     8  C   -0.013906
     9  C   -0.087063
    10  C    0.046347
    11  C    0.104736
    12  C    0.053426
    13  C   -0.071742
    14  H    0.035615
    15  N   -0.433313
    16  C    0.168690
    17  C   -0.176655
    18  C   -0.003393
    19  C    0.148867
    20  C    0.110113
    21  C    0.012889
    22  O   -0.249565
    23  C    0.062188
    24  N   -0.340898
    25  C    0.041104
    26  C   -0.028427
    27  C   -0.023947
    28  C    0.074094
    29  C    0.076061
    30  C    0.037085
    31  C   -0.009650
    32  N   -0.310376
    33  C    0.079978
    34  C   -0.170534
    35  C    0.008554
    36  C    0.082883
    37  C    0.127451
    38  C    0.046269
    39  O   -0.188204
    40  C   -0.005409
    41  C    0.212902
    42  O   -0.256544
    43  O   -0.304948
    44  C    0.157268
    45  H   -0.017157
    46  H   -0.016773
    47  H   -0.042519
    48  H    0.001196
    49  H   -0.003939
    50  H    0.025621
    51  H    0.016531
    52  H    0.016957
    53  H    0.010782
    54  H    0.044091
    55  H    0.018327
    56  H    0.017847
    57  H    0.005796
    58  H    0.027358
    59  H    0.040516
    60  H    0.037078
    61  H    0.037422
    62  H    0.032736
    63  H    0.015941
    64  H    0.009798
    65  H    0.023358
    66  H    0.013231
    67  H    0.004822
    68  H    0.006049
    69  H    0.003743
    70  H    0.010142
    71  H    0.016284
    72  H    0.031032
    73  H    0.047053
    74  H    0.007943
    75  H    0.046296
    76  H    0.035267
    77  H    0.043279
    78  H    0.046018
    79  H    0.054655
    80  Mg   0.837676
    81  C   -0.016940
    82  C   -0.087675
    83  C   -0.042685
    84  C   -0.065496
    85  N   -0.254676
    86  C   -0.050105
    87  C   -0.015095
    88  C   -0.091774
    89  C    0.046074
    90  C    0.113024
    91  C    0.062714
    92  C   -0.077581
    93  H    0.034263
    94  N   -0.424060
    95  C    0.163667
    96  C   -0.173202
    97  C   -0.005947
    98  C    0.152292
    99  C    0.098794
   100  C    0.016995
   101  O   -0.252006
   102  C    0.061002
   103  N   -0.349996
   104  C    0.038268
   105  C   -0.020377
   106  C   -0.033940
   107  C    0.088647
   108  C    0.072064
   109  C    0.034912
   110  C   -0.007475
   111  N   -0.323800
   112  C    0.078058
   113  C   -0.164393
   114  C    0.001806
   115  C    0.095785
   116  C    0.131754
   117  C    0.041644
   118  O   -0.189217
   119  C    0.000978
   120  C    0.210989
   121  O   -0.251436
   122  O   -0.305276
   123  C    0.152285
   124  H   -0.020009
   125  H   -0.013904
   126  H   -0.042022
   127  H   -0.000374
   128  H   -0.005344
   129  H    0.023932
   130  H    0.015666
   131  H    0.016364
   132  H    0.013695
   133  H    0.037508
   134  H    0.020707
   135  H    0.019129
   136  H    0.007948
   137  H    0.028144
   138  H    0.039362
   139  H    0.039600
   140  H    0.036406
   141  H    0.032778
   142  H    0.013730
   143  H    0.010890
   144  H    0.024129
   145  H    0.020602
   146  H    0.003601
   147  H    0.005591
   148  H    0.002373
   149  H    0.011027
   150  H    0.017075
   151  H    0.030348
   152  H    0.045455
   153  H    0.007767
   154  H    0.044458
   155  H    0.035917
   156  H    0.043684
   157  H    0.049326
   158  H    0.053142
 Sum of Mulliken charges =  -0.00000

 Dipole moment (field-independent basis, Debye):
    X=             -3.7837    Y=             -1.8238    Z=              0.1667  Tot=              4.2036
 Quadrupole moment (field-independent basis, Debye-Ang):
   XX=           -530.3260   YY=           -540.8971   ZZ=           -449.0495
   XY=             21.9306   XZ=             56.9816   YZ=            -33.4810

 Normal termination of Gaussian 16 at Thu Sep  9 17:40:33 2021.
