 Gaussian 16, Revision A.03,
 Gaussian 16:  ES64L-G16RevA.03 25-Dec-2016

 -----------------------------------
 #p cam-b3lyp/Def2SVP td=(nstates=5)
 -----------------------------------

 --------------------------------
 TDDFT excited states in gaussian
 --------------------------------
 Symbolic Z-matrix:
 Charge =  0 Multiplicity = 1

                         Standard orientation:
 ---------------------------------------------------------------------
 Center     Atomic      Atomic             Coordinates (Angstroms)
 Number     Number       Type             X           Y           Z
 ---------------------------------------------------------------------
      1         12           0        7.806116    0.860734    0.318710
      2          6           0        8.404367   -2.535324   -0.641028
      3          6           0        8.613955    1.749343   -2.875165
      4          6           0        7.726783    3.888970    1.256855
      5          6           0        8.156929   -0.168194    3.629888
      6          7           0        8.413353   -0.332939   -1.443974
      7          6           0        8.546722   -1.631329   -1.696098
      8          6           0        8.777723   -1.947318   -3.204131
      9          6           0        9.380156   -0.545173   -3.665718
     10          6           0        8.737245    0.350892   -2.621853
     11          6           0       10.896129   -0.456604   -3.522592
     12          6           0        7.442563   -2.272219   -3.954808
     13          6           0        7.608785   -2.905661   -5.339177
     14          1           0        6.643491   -3.904440   -5.772761
     15          7           0        7.646217    2.524493   -0.734470
     16          6           0        8.009050    2.702468   -2.027515
     17          6           0        7.691215    4.110194   -2.349958
     18          6           0        7.290707    4.787391   -1.085406
     19          6           0        7.567312    3.754234   -0.120287
     20          6           0        7.735309    4.666031   -3.740228
     21          6           0        6.755126    6.153119   -0.792028
     22          8           0        6.692442    6.618123    0.397264
     23          6           0        6.383246    6.977030   -1.956467
     24          7           0        8.140899    1.786274    2.159615
     25          6           0        7.984122    3.106392    2.306901
     26          6           0        7.998722    3.499856    3.754282
     27          6           0        7.955194    2.136007    4.583604
     28          6           0        8.008530    1.138449    3.400260
     29          6           0        9.203642    4.335172    4.208625
     30          6           0        6.819716    1.983139    5.626551
     31          6           0        5.484190    1.896886    4.922259
     32          7           0        8.032277   -1.032898    1.355076
     33          6           0        8.183603   -1.225524    2.735898
     34          6           0        8.410194   -2.666852    2.948732
     35          6           0        8.391331   -3.213742    1.667170
     36          6           0        8.193346   -2.175899    0.712196
     37          6           0        8.657212   -3.295636    4.200949
     38          6           0        8.516962   -4.430056    0.880625
     39          8           0        8.601327   -5.629899    1.146619
     40          6           0        8.652138   -4.023279   -0.653026
     41          6           0        7.703468   -4.887782   -1.437863
     42          8           0        6.468640   -4.770641   -1.300588
     43          8           0        8.383949   -5.542911   -2.390907
     44          6           0        7.496510   -6.396534   -3.225134
     45          1           0        9.072514    2.165307   -3.774408
     46          1           0        7.595773    4.905585    1.633375
     47          1           0        8.190485   -0.574473    4.642441
     48          1           0        9.497368   -2.743220   -3.396680
     49          1           0        9.043194   -0.266266   -4.663912
     50          1           0       11.298963   -1.327072   -3.004973
     51          1           0       11.081527    0.449273   -2.945091
     52          1           0       11.368003   -0.295625   -4.492230
     53          1           0        6.951770   -1.340182   -4.234969
     54          1           0        6.800404   -2.906588   -3.342816
     55          1           0        8.626376   -3.265832   -5.493111
     56          1           0        7.481257   -2.125229   -6.089418
     57          1           0        8.222841    3.979127   -4.430895
     58          1           0        8.390866    5.536258   -3.714569
     59          1           0        6.747786    4.960061   -4.096147
     60          1           0        7.255783    7.110406   -2.596341
     61          1           0        5.937432    7.885149   -1.552215
     62          1           0        5.646792    6.435836   -2.551189
     63          1           0        7.124313    4.098767    4.005556
     64          1           0        8.867709    1.977840    5.158907
     65          1           0        8.929926    5.289445    4.659344
     66          1           0        9.855741    4.481865    3.348079
     67          1           0        9.873361    3.830540    4.904498
     68          1           0        6.783102    2.855731    6.277849
     69          1           0        6.931590    1.102043    6.258536
     70          1           0        5.229056    2.942760    4.755265
     71          1           0        4.746705    1.412658    5.563234
     72          1           0        5.579613    1.424606    3.944336
     73          1           0        8.057595   -4.205783    4.208799
     74          1           0        8.394313   -2.640901    5.031496
     75          1           0        9.730672   -3.470605    4.130775
     76          1           0        9.690777   -4.196531   -0.932911
     77          1           0        7.893426   -7.410837   -3.181748
     78          1           0        7.436169   -5.918200   -4.202866
     79          1           0        6.485749   -6.554747   -2.847418
     80         12           0       -7.974822   -0.927982    0.186334
     81          6           0       -8.131828    2.384411   -1.185702
     82          6           0       -7.282315    0.513933    3.198959
     83          6           0       -7.386163   -3.829398    1.327689
     84          6           0       -7.543586   -2.104624   -3.065632
     85          7           0       -7.761734    1.186096    0.800778
     86          6           0       -7.904045    2.360994    0.206060
     87          6           0       -7.876083    3.577401    1.169988
     88          6           0       -7.046298    2.911826    2.373046
     89          6           0       -7.408765    1.446758    2.138797
     90          6           0       -5.541670    3.061726    2.221525
     91          6           0       -9.312725    4.007153    1.631891
     92          6           0       -9.385034    5.370553    2.323023
     93          1           0      -10.566060    6.200729    2.102886
     94          7           0       -7.900786   -1.580708    2.059045
     95          6           0       -7.627817   -0.854900    3.163557
     96          6           0       -7.675698   -1.801271    4.288844
     97          6           0       -7.836592   -3.175099    3.739839
     98          6           0       -7.689994   -2.911387    2.322430
     99          6           0       -7.652000   -1.361095    5.723808
    100          6           0       -8.069451   -4.507765    4.384801
    101          8           0       -7.940105   -5.603388    3.732334
    102          6           0       -8.361918   -4.496643    5.825576
    103          7           0       -7.318797   -2.687657   -0.705593
    104          6           0       -7.196534   -3.820614    0.008119
    105          6           0       -6.978333   -5.012316   -0.893348
    106          6           0       -7.221886   -4.476481   -2.380344
    107          6           0       -7.461789   -2.981708   -2.074568
    108          6           0       -5.599928   -5.667382   -0.808095
    109          6           0       -8.272726   -5.233449   -3.237900
    110          6           0       -9.655401   -5.023246   -2.663935
    111          7           0       -8.038853   -0.074948   -1.797678
    112          6           0       -7.803826   -0.740945   -3.020497
    113          6           0       -7.845905    0.280012   -4.087407
    114          6           0       -8.081508    1.482170   -3.403448
    115          6           0       -8.159243    1.231283   -2.006844
    116          6           0       -7.630575    0.043213   -5.474374
    117          6           0       -8.271540    2.907915   -3.544398
    118          8           0       -8.392996    3.678200   -4.496042
    119          6           0       -8.186629    3.573904   -2.103696
    120          6           0       -9.348944    4.517627   -1.959004
    121          8           0      -10.515075    4.085895   -1.940150
    122          8           0       -8.886096    5.742625   -1.649939
    123          6           0      -10.002338    6.711501   -1.485269
    124          1           0       -6.837070    0.850343    4.135687
    125          1           0       -7.283314   -4.865675    1.657884
    126          1           0       -7.515873   -2.405396   -4.115127
    127          1           0       -7.349971    4.445342    0.790964
    128          1           0       -7.414897    3.246012    3.339390
    129          1           0       -5.273502    3.489340    1.266861
    130          1           0       -5.135544    2.063168    2.316288
    131          1           0       -5.133546    3.633866    3.059622
    132          1           0       -9.631397    3.360016    2.459176
    133          1           0      -10.000819    3.982022    0.809381
    134          1           0       -8.470066    5.956895    2.174745
    135          1           0       -9.428558    5.210265    3.403037
    136          1           0       -7.361870   -0.307240    5.816553
    137          1           0       -6.840503   -1.910334    6.213381
    138          1           0       -8.587678   -1.573993    6.245197
    139          1           0       -7.539807   -4.023543    6.357324
    140          1           0       -8.586428   -5.532772    6.086190
    141          1           0       -9.247521   -3.874882    5.997999
    142          1           0       -7.695814   -5.795130   -0.679979
    143          1           0       -6.306461   -4.529995   -2.987770
    144          1           0       -5.642943   -6.743223   -0.553572
    145          1           0       -5.009931   -5.127520   -0.079411
    146          1           0       -4.991633   -5.581950   -1.706919
    147          1           0       -8.083651   -6.309261   -3.205913
    148          1           0       -8.272727   -4.937348   -4.281602
    149          1           0       -9.709406   -5.773432   -1.869334
    150          1           0      -10.415645   -5.196729   -3.422858
    151          1           0       -9.740151   -4.037175   -2.192629
    152          1           0       -8.385555    0.605904   -6.007188
    153          1           0       -7.684430   -1.017695   -5.709632
    154          1           0       -6.616662    0.437107   -5.584377
    155          1           0       -7.228676    4.091161   -2.037837
    156          1           0       -9.805447    7.544626   -2.167034
    157          1           0      -10.039685    6.943293   -0.404235
    158          1           0      -10.988132    6.400397   -1.810632
 ---------------------------------------------------------------------

 SCF Done:  E(RCAM-B3LYP) =  -4069.81180888     A.U. after   19 cycles

 Excitation energies and oscillator strengths:

 Excited State   1:      Singlet-A      1.6713 eV  741.83 nm  f=0.0962  <S**2>=0.000
     310 -> 316        0.14299
     311 -> 313        0.38487
     312 -> 314        0.56822
 This state for optimization and/or second-order correction.
 Total Energy, E(TD-HF/TD-DFT) =  -4069.75038908
 Copying the excited state density for this state as the 1-particle RhoCI density.

 Excited State   2:      Singlet-A      1.6839 eV  736.31 nm  f=0.6581  <S**2>=0.000
     309 -> 315        0.14614
     311 -> 313        0.56749
     312 -> 314       -0.38444

 Excited State   3:      Singlet-A      2.1857 eV  567.25 nm  f=0.0702  <S**2>=0.000
     309 -> 313        0.12426
     310 -> 314        0.63063
     312 -> 316       -0.26757

 Excited State   4:      Singlet-A      2.1930 eV  565.36 nm  f=0.1250  <S**2>=0.000
     309 -> 313        0.62861
     310 -> 314       -0.12336
     311 -> 315       -0.27322

 Excited State   5:      Singlet-A      2.7662 eV  448.21 nm  f=0.0000  <S**2>=0.000
     312 -> 313        0.70710

 The electronic state is 1-A.
 Alpha  occ. eigenvalues --  -46.87835 -46.87591 -19.26314 -19.26310 -19.19122
 Alpha  occ. eigenvalues --  -19.19048 -19.18851 -19.18638 -19.18201 -19.18002
 Alpha  occ. eigenvalues --  -14.42486 -14.42429 -14.41491 -14.41287 -14.39440
 Alpha  occ. eigenvalues --  -14.39282 -14.38625 -14.38534 -10.39108 -10.39050
 Alpha  occ. eigenvalues --  -10.35483 -10.35315 -10.34421 -10.34180 -10.31728
 Alpha  occ. eigenvalues --  -10.31702 -10.31439 -10.31246 -10.30955 -10.30941
 Alpha  occ. eigenvalues --  -10.30606 -10.30548 -10.30331 -10.30298 -10.30250
 Alpha  occ. eigenvalues --  -10.30064 -10.29966 -10.29822 -10.29667 -10.29365
 Alpha  occ. eigenvalues --  -10.29337 -10.29291 -10.28775 -10.28659 -10.28609
 Alpha  occ. eigenvalues --  -10.28555 -10.28400 -10.28338 -10.28142 -10.28076
 Alpha  occ. eigenvalues --  -10.27937 -10.27828 -10.27762 -10.27620 -10.27600
 Alpha  occ. eigenvalues --  -10.27561 -10.27507 -10.27501 -10.27439 -10.27434
 Alpha  occ. eigenvalues --  -10.27418 -10.27400 -10.27396 -10.27283 -10.27189
 Alpha  occ. eigenvalues --  -10.27001 -10.26727 -10.26641 -10.26434 -10.26338
 Alpha  occ. eigenvalues --  -10.26263 -10.26257 -10.26067 -10.26062 -10.25951
 Alpha  occ. eigenvalues --  -10.25883 -10.25866 -10.25810 -10.25490 -10.25271
 Alpha  occ. eigenvalues --  -10.24868 -10.24829 -10.24811 -10.24782 -10.24667
 Alpha  occ. eigenvalues --  -10.24616  -3.16578  -3.16341  -1.91460  -1.91223
 Alpha  occ. eigenvalues --   -1.91047  -1.90889  -1.90812  -1.90649  -1.16659
 Alpha  occ. eigenvalues --   -1.16607  -1.08659  -1.08612  -1.07252  -1.06907
 Alpha  occ. eigenvalues --   -1.06889  -1.06670  -1.04616  -1.04428  -1.03801
 Alpha  occ. eigenvalues --   -1.03594  -1.03272  -1.02968  -1.02450  -1.02042
 Alpha  occ. eigenvalues --   -0.92007  -0.91925  -0.89572  -0.89423  -0.89215
 Alpha  occ. eigenvalues --   -0.89088  -0.88339  -0.88141  -0.87907  -0.87737
 Alpha  occ. eigenvalues --   -0.87708  -0.87616  -0.87305  -0.87051  -0.85012
 Alpha  occ. eigenvalues --   -0.84936  -0.83993  -0.83799  -0.83003  -0.82857
 Alpha  occ. eigenvalues --   -0.82680  -0.82588  -0.81618  -0.81545  -0.80631
 Alpha  occ. eigenvalues --   -0.80383  -0.78830  -0.78570  -0.77258  -0.77080
 Alpha  occ. eigenvalues --   -0.76969  -0.76835  -0.75954  -0.75779  -0.74945
 Alpha  occ. eigenvalues --   -0.74720  -0.72813  -0.72634  -0.71710  -0.71508
 Alpha  occ. eigenvalues --   -0.69971  -0.69682  -0.68904  -0.68764  -0.67677
 Alpha  occ. eigenvalues --   -0.67536  -0.67247  -0.67139  -0.65318  -0.65211
 Alpha  occ. eigenvalues --   -0.64891  -0.64706  -0.64659  -0.64593  -0.64319
 Alpha  occ. eigenvalues --   -0.64131  -0.62332  -0.62226  -0.60479  -0.60267
 Alpha  occ. eigenvalues --   -0.59834  -0.59733  -0.59026  -0.58926  -0.58542
 Alpha  occ. eigenvalues --   -0.58361  -0.57617  -0.57504  -0.57350  -0.57167
 Alpha  occ. eigenvalues --   -0.56344  -0.56143  -0.56007  -0.55836  -0.55554
 Alpha  occ. eigenvalues --   -0.55391  -0.55387  -0.55180  -0.54567  -0.54424
 Alpha  occ. eigenvalues --   -0.53923  -0.53850  -0.53336  -0.53252  -0.53162
 Alpha  occ. eigenvalues --   -0.53080  -0.52951  -0.52844  -0.52785  -0.52599
 Alpha  occ. eigenvalues --   -0.52504  -0.52332  -0.51953  -0.51836  -0.51644
 Alpha  occ. eigenvalues --   -0.51598  -0.51235  -0.51143  -0.50601  -0.50402
 Alpha  occ. eigenvalues --   -0.50084  -0.49950  -0.49910  -0.49787  -0.49545
 Alpha  occ. eigenvalues --   -0.49422  -0.49247  -0.49142  -0.49125  -0.49044
 Alpha  occ. eigenvalues --   -0.48627  -0.48506  -0.48500  -0.48478  -0.48300
 Alpha  occ. eigenvalues --   -0.48269  -0.47730  -0.47529  -0.47332  -0.47046
 Alpha  occ. eigenvalues --   -0.46839  -0.46642  -0.46584  -0.46490  -0.46399
 Alpha  occ. eigenvalues --   -0.46204  -0.46203  -0.46018  -0.45856  -0.45769
 Alpha  occ. eigenvalues --   -0.45250  -0.45123  -0.44613  -0.44543  -0.44456
 Alpha  occ. eigenvalues --   -0.44412  -0.44190  -0.44119  -0.44065  -0.44051
 Alpha  occ. eigenvalues --   -0.44010  -0.43876  -0.43529  -0.43501  -0.43423
 Alpha  occ. eigenvalues --   -0.43320  -0.43065  -0.42881  -0.42839  -0.42742
 Alpha  occ. eigenvalues --   -0.42701  -0.42479  -0.42058  -0.41899  -0.41741
 Alpha  occ. eigenvalues --   -0.41607  -0.41565  -0.41395  -0.41177  -0.40918
 Alpha  occ. eigenvalues --   -0.40907  -0.40857  -0.40655  -0.40631  -0.40621
 Alpha  occ. eigenvalues --   -0.40418  -0.40259  -0.40168  -0.39509  -0.39352
 Alpha  occ. eigenvalues --   -0.38519  -0.38271  -0.37777  -0.37596  -0.37368
 Alpha  occ. eigenvalues --   -0.37294  -0.37194  -0.37136  -0.36749  -0.36723
 Alpha  occ. eigenvalues --   -0.36232  -0.36149  -0.34324  -0.34187  -0.33817
 Alpha  occ. eigenvalues --   -0.33801  -0.33224  -0.33108  -0.31381  -0.31197
 Alpha  occ. eigenvalues --   -0.31073  -0.30904  -0.30061  -0.29907  -0.29485
 Alpha  occ. eigenvalues --   -0.29358  -0.29260  -0.29150  -0.24119  -0.23968
 Alpha  occ. eigenvalues --   -0.21166  -0.21048
 Alpha virt. eigenvalues --   -0.08811  -0.08725  -0.01789  -0.01612  -0.00091
 Alpha virt. eigenvalues --    0.00040   0.02163   0.02266   0.03074   0.03290
 Alpha virt. eigenvalues --    0.04685   0.04796   0.05069   0.05207   0.06153

 Mulliken charges:
               1
     1  Mg   0.838625
     2  C   -0.002895
     3  C   -0.093929
     4  C   -0.045993
     5  C   -0.064068
     6  N   -0.256780
     7  C   -0.052458
     8  C   -0.014006
     9  C   -0.087028
    10  C    0.046313
    11  C    0.104778
    12  C    0.053410
    13  C   -0.071857
    14  H    0.036148
    15  N   -0.433172
    16  C    0.168393
    17  C   -0.176985
    18  C   -0.004008
    19  C    0.148699
    20  C    0.110104
    21  C    0.012224
    22  O   -0.249852
    23  C    0.062473
    24  N   -0.341095
    25  C    0.041242
    26  C   -0.028162
    27  C   -0.023919
    28  C    0.074740
    29  C    0.076168
    30  C    0.035208
    31  C   -0.004434
    32  N   -0.310465
    33  C    0.080332
    34  C   -0.169807
    35  C    0.008405
    36  C    0.082917
    37  C    0.127332
    38  C    0.046114
    39  O   -0.188362
    40  C   -0.005349
    41  C    0.212940
    42  O   -0.257166
    43  O   -0.304768
    44  C    0.157675
    45  H   -0.017407
    46  H   -0.016964
    47  H   -0.041648
    48  H    0.001000
    49  H   -0.003860
    50  H    0.025493
    51  H    0.016433
    52  H    0.016813
    53  H    0.011281
    54  H    0.044053
    55  H    0.017922
    56  H    0.018116
    57  H    0.006032
    58  H    0.026933
    59  H    0.039868
    60  H    0.037500
    61  H    0.035635
    62  H    0.031716
    63  H    0.016257
    64  H    0.009503
    65  H    0.023088
    66  H    0.012719
    67  H    0.004774
    68  H    0.006147
    69  H    0.004703
    70  H    0.008502
    71  H    0.017581
    72  H    0.029206
    73  H    0.047572
    74  H    0.008928
    75  H    0.046068
    76  H    0.035236
    77  H    0.043017
    78  H    0.046459
    79  H    0.053643
    80  Mg   0.837997
    81  C   -0.016903
    82  C   -0.087767
    83  C   -0.045248
    84  C   -0.064740
    85  N   -0.254579
    86  C   -0.049906
    87  C   -0.015102
    88  C   -0.090535
    89  C    0.045832
    90  C    0.114343
    91  C    0.062560
    92  C   -0.077835
    93  H    0.034645
    94  N   -0.423570
    95  C    0.163051
    96  C   -0.174447
    97  C   -0.007573
    98  C    0.152172
    99  C    0.099298
   100  C    0.015698
   101  O   -0.252892
   102  C    0.061182
   103  N   -0.350017
   104  C    0.037734
   105  C   -0.020005
   106  C   -0.034693
   107  C    0.088865
   108  C    0.073385
   109  C    0.034727
   110  C   -0.007644
   111  N   -0.324048
   112  C    0.078376
   113  C   -0.163287
   114  C    0.002071
   115  C    0.096175
   116  C    0.131517
   117  C    0.042183
   118  O   -0.188386
   119  C    0.000988
   120  C    0.211171
   121  O   -0.251065
   122  O   -0.305639
   123  C    0.152099
   124  H   -0.019567
   125  H   -0.015242
   126  H   -0.040646
   127  H   -0.000751
   128  H   -0.004416
   129  H    0.022417
   130  H    0.014795
   131  H    0.016356
   132  H    0.013896
   133  H    0.037571
   134  H    0.020802
   135  H    0.019590
   136  H    0.008721
   137  H    0.026432
   138  H    0.039701
   139  H    0.038408
   140  H    0.036473
   141  H    0.033703
   142  H    0.014316
   143  H    0.012557
   144  H    0.025358
   145  H    0.012411
   146  H    0.006097
   147  H    0.006346
   148  H    0.003395
   149  H    0.010986
   150  H    0.017686
   151  H    0.030032
   152  H    0.045726
   153  H    0.008426
   154  H    0.046652
   155  H    0.034864
   156  H    0.043689
   157  H    0.049541
   158  H    0.053489
 Sum of Mulliken charges =  -0.00000

 Dipole moment (field-independent basis, Debye):
    X=              3.7251    Y=              3.0333    Z=              0.7462  Tot=              4.8615
 Quadrupole moment (field-independent basis, Debye-Ang):
   XX=           -520.8356   YY=           -539.5135   ZZ=           -458.4964
   XY=             21.1902   XZ=            -66.0822   YZ=             36.5180

 Normal termination of Gaussian 16 at Sat Sep  4 13:47:19 2021.
