 Gaussian 16, Revision A.03,
 Gaussian 16:  ES64L-G16RevA.03 25-Dec-2016

 -----------------------------------
 #p cam-b3lyp/Def2SVP td=(nstates=5)
 -----------------------------------

 --------------------------------
 TDDFT excited states in gaussian
 --------------------------------
 Symbolic Z-matrix:
 Charge =  0 Multiplicity = 1

                         Standard orientation:
 ---------------------------------------------------------------------
 Center     Atomic      Atomic             Coordinates (Angstroms)
 Number     Number       Type             X           Y           Z
 ---------------------------------------------------------------------
      1         12           0        4.315878   -0.559753    0.525720
      2          6           0        4.854363    2.654893   -0.953570
      3          6           0        5.251220    0.818988    3.503517
      4          6           0        4.286738   -3.479620    1.762710
      5          6           0        4.530571   -1.907619   -2.680965
      6          7           0        4.948394    1.488620    1.077752
      7          6           0        5.055241    2.643717    0.428518
      8          6           0        5.326948    3.857179    1.367166
      9          6           0        5.981368    3.082289    2.597319
     10          6           0        5.328788    1.724804    2.404193
     11          6           0        7.493669    2.921277    2.481029
     12          6           0        4.008870    4.590363    1.787694
     13          6           0        4.203337    5.966866    2.430171
     14          1           0        3.226435    7.010616    2.158885
     15          7           0        4.234987   -1.152812    2.408427
     16          6           0        4.644556   -0.455674    3.495413
     17          6           0        4.375125   -1.323887    4.661729
     18          6           0        3.951671   -2.656452    4.148843
     19          6           0        4.168875   -2.488834    2.734593
     20          6           0        4.479506   -0.852753    6.079786
     21          6           0        3.443418   -3.889347    4.826914
     22          8           0        3.354284   -5.011403    4.220597
     23          6           0        3.131960   -3.768446    6.262678
     24          7           0        4.614827   -2.454192   -0.298515
     25          6           0        4.488603   -3.558310    0.445780
     26          6           0        4.466331   -4.792079   -0.407014
     27          6           0        4.359305   -4.283882   -1.916992
     28          6           0        4.424691   -2.758492   -1.657798
     29          6           0        5.677602   -5.724400   -0.266974
     30          6           0        3.186633   -4.838480   -2.764152
     31          6           0        1.873042   -4.317652   -2.225345
     32          7           0        4.457388    0.219847   -1.494984
     33          6           0        4.558256   -0.523022   -2.680161
     34          6           0        4.739213    0.441596   -3.780541
     35          6           0        4.747705    1.685787   -3.153037
     36          6           0        4.608844    1.507994   -1.746837
     37          6           0        4.928254    0.115018   -5.152417
     38          6           0        4.866499    3.122611   -3.340872
     39          8           0        4.910063    3.868436   -4.320331
     40          6           0        5.062594    3.800065   -1.913136
     41          6           0        4.117379    4.967550   -1.830344
     42          8           0        2.882287    4.790356   -1.807627
     43          8           0        4.810953    6.082262   -1.553012
     44          6           0        3.928821    7.273223   -1.428074
     45          1           0        5.749896    1.080275    4.438927
     46          1           0        4.170657   -4.499472    2.135357
     47          1           0        4.520122   -2.249685   -3.717466
     48          1           0        6.031009    4.589299    0.971285
     49          1           0        5.684813    3.512689    3.553631
     50          1           0        7.855975    3.252870    1.508043
     51          1           0        7.684182    1.856326    2.615481
     52          1           0        8.001147    3.422877    3.305432
     53          1           0        3.552557    4.058700    2.622664
     54          1           0        3.330328    4.681335    0.938795
     55          1           0        5.215444    6.340755    2.272834
     56          1           0        4.121300    5.853862    3.511235
     57          1           0        4.970870    0.117264    6.144386
     58          1           0        5.156864   -1.535070    6.592951
     59          1           0        3.512358   -0.847459    6.582706
     60          1           0        4.028216   -3.458573    6.800501
     61          1           0        2.697553   -4.723006    6.557559
     62          1           0        2.401179   -2.970833    6.399507
     63          1           0        3.600463   -5.411337   -0.176320
     64          1           0        5.247961   -4.534406   -2.496822
     65          1           0        5.414851   -6.744316    0.014873
     66          1           0        6.361193   -5.282319    0.457291
     67          1           0        6.310486   -5.787585   -1.151780
     68          1           0        3.152029   -5.925398   -2.698131
     69          1           0        3.254213   -4.572278   -3.819055
     70          1           0        1.651513   -5.009455   -1.413454
     71          1           0        1.102318   -4.360085   -2.995666
     72          1           0        1.987774   -3.326299   -1.786550
     73          1           0        4.304625    0.806218   -5.719249
     74          1           0        4.655888   -0.920722   -5.354066
     75          1           0        5.998384    0.293284   -5.256819
     76          1           0        6.104841    4.112216   -1.854776
     77          1           0        4.296893    8.020465   -2.131200
     78          1           0        3.913292    7.537773   -0.370635
     79          1           0        2.902379    7.151414   -1.775808
     80         12           0       -4.629920    0.268402    0.311063
     81          6           0       -3.850445   -1.275518   -2.833434
     82          6           0       -4.809550   -2.869074    1.637175
     83          6           0       -5.756132    1.567558    2.977750
     84          6           0       -5.503450    3.133655   -1.470214
     85          7           0       -4.345887   -1.734511   -0.583334
     86          6           0       -3.991652   -2.195329   -1.773512
     87          6           0       -3.698323   -3.719156   -1.811974
     88          6           0       -4.575804   -4.165055   -0.543086
     89          6           0       -4.551444   -2.855887    0.243141
     90          6           0       -6.019591   -4.485571   -0.892491
     91          6           0       -2.177220   -4.040587   -1.600002
     92          6           0       -1.771423   -5.478303   -1.931756
     93          1           0       -0.455606   -5.711917   -2.520413
     94          7           0       -4.726675   -0.461684    2.153934
     95          6           0       -4.768803   -1.761937    2.512899
     96          6           0       -4.855861   -1.771271    3.981403
     97          6           0       -5.027815   -0.369291    4.450027
     98          6           0       -5.201539    0.312665    3.183202
     99          6           0       -4.695949   -3.020612    4.798093
    100          6           0       -5.047142    0.252663    5.813479
    101          8           0       -5.448661    1.455622    5.999198
    102          6           0       -4.670782   -0.618147    6.936670
    103          7           0       -5.702131    2.009328    0.687722
    104          6           0       -6.020484    2.367000    1.944159
    105          6           0       -6.544602    3.782412    1.992173
    106          6           0       -6.283913    4.386761    0.534643
    107          6           0       -5.710330    3.132495   -0.160489
    108          6           0       -8.023554    3.932432    2.347978
    109          6           0       -5.475019    5.710449    0.455968
    110          6           0       -4.046752    5.468974    0.888555
    111          7           0       -4.506777    0.919283   -1.745450
    112          6           0       -4.954267    2.147474   -2.279667
    113          6           0       -4.759897    2.082507   -3.742687
    114          6           0       -4.229996    0.802096   -3.962340
    115          6           0       -4.121924    0.109944   -2.725918
    116          6           0       -5.106185    3.101785   -4.673958
    117          6           0       -3.747398   -0.125263   -4.960235
    118          8           0       -3.522365   -0.062131   -6.168174
    119          6           0       -3.598314   -1.558070   -4.288498
    120          6           0       -2.253852   -2.113114   -4.671720
    121          8           0       -1.208696   -1.567818   -4.275589
    122          8           0       -2.422979   -3.312748   -5.257070
    123          6           0       -1.116799   -3.908609   -5.645223
    124          1           0       -5.113537   -3.808531    2.099665
    125          1           0       -6.058461    2.103017    3.880720
    126          1           0       -5.659773    4.022561   -2.085110
    127          1           0       -4.048208   -4.226756   -2.702881
    128          1           0       -4.085160   -4.956054    0.018124
    129          1           0       -6.248074   -4.245990   -1.920369
    130          1           0       -6.623965   -3.889147   -0.221645
    131          1           0       -6.242878   -5.528985   -0.652163
    132          1           0       -1.954487   -4.025718   -0.525333
    133          1           0       -1.562645   -3.355394   -2.150854
    134          1           0       -2.546556   -6.004143   -2.502376
    135          1           0       -1.696782   -6.041915   -0.998600
    136          1           0       -4.746806   -3.919839    4.171826
    137          1           0       -5.574649   -3.092330    5.448180
    138          1           0       -3.797444   -3.006032    5.418687
    139          1           0       -5.337775   -1.476419    6.967437
    140          1           0       -4.658300    0.028410    7.816269
    141          1           0       -3.663446   -1.008775    6.754224
    142          1           0       -6.000137    4.371942    2.719575
    143          1           0       -7.225180    4.628734    0.019554
    144          1           0       -8.196871    4.575342    3.231553
    145          1           0       -8.437806    2.945917    2.508380
    146          1           0       -8.653584    4.320523    1.549459
    147          1           0       -5.888278    6.448505    1.147804
    148          1           0       -5.475844    6.159089   -0.531813
    149          1           0       -4.106129    5.527185    1.979505
    150          1           0       -3.389767    6.238075    0.487430
    151          1           0       -3.723384    4.454041    0.629712
    152          1           0       -4.282360    3.179690   -5.370904
    153          1           0       -5.295953    4.049317   -4.174001
    154          1           0       -6.016719    2.673866   -5.101843
    155          1           0       -4.416972   -2.178534   -4.655085
    156          1           0       -1.171927   -4.129594   -6.715644
    157          1           0       -0.963936   -4.764621   -4.961382
    158          1           0       -0.242762   -3.269104   -5.606025
 ---------------------------------------------------------------------

 SCF Done:  E(RCAM-B3LYP) =  -4069.80996906     A.U. after   19 cycles

 Excitation energies and oscillator strengths:

 Excited State   1:      Singlet-A      1.6460 eV  753.23 nm  f=0.0045  <S**2>=0.000
     309 -> 315       -0.11328
     310 -> 316        0.12105
     311 -> 313        0.50017
     312 -> 314       -0.46639
 This state for optimization and/or second-order correction.
 Total Energy, E(TD-HF/TD-DFT) =  -4069.74947810
 Copying the excited state density for this state as the 1-particle RhoCI density.

 Excited State   2:      Singlet-A      1.7031 eV  727.99 nm  f=0.6967  <S**2>=0.000
     309 -> 315        0.13199
     310 -> 316        0.12255
     311 -> 313        0.46494
     312 -> 314        0.49835

 Excited State   3:      Singlet-A      2.1803 eV  568.65 nm  f=0.0201  <S**2>=0.000
     309 -> 314        0.35818
     310 -> 313        0.53612
     311 -> 316       -0.22225
     312 -> 315       -0.14858

 Excited State   4:      Singlet-A      2.1937 eV  565.19 nm  f=0.1591  <S**2>=0.000
     309 -> 314        0.53144
     310 -> 313       -0.35459
     311 -> 316        0.15395
     312 -> 315       -0.23200

 Excited State   5:      Singlet-A      2.4642 eV  503.14 nm  f=0.0000  <S**2>=0.000
     312 -> 313        0.70366

 The electronic state is 1-A.
 Alpha  occ. eigenvalues --  -46.87587 -46.87479 -19.26349 -19.26067 -19.19096
 Alpha  occ. eigenvalues --  -19.18772 -19.18732 -19.18612 -19.17926 -19.17878
 Alpha  occ. eigenvalues --  -14.42319 -14.42248 -14.41267 -14.41184 -14.39211
 Alpha  occ. eigenvalues --  -14.39182 -14.38408 -14.38348 -10.39015 -10.38838
 Alpha  occ. eigenvalues --  -10.35374 -10.35295 -10.34145 -10.34059 -10.31893
 Alpha  occ. eigenvalues --  -10.31493 -10.31178 -10.31117 -10.30862 -10.30735
 Alpha  occ. eigenvalues --  -10.30335 -10.30299 -10.30220 -10.30169 -10.30062
 Alpha  occ. eigenvalues --  -10.29980 -10.29729 -10.29715 -10.29419 -10.29268
 Alpha  occ. eigenvalues --  -10.29224 -10.29065 -10.28567 -10.28546 -10.28372
 Alpha  occ. eigenvalues --  -10.28298 -10.28235 -10.28160 -10.27958 -10.27930
 Alpha  occ. eigenvalues --  -10.27822 -10.27577 -10.27526 -10.27487 -10.27426
 Alpha  occ. eigenvalues --  -10.27396 -10.27370 -10.27356 -10.27347 -10.27322
 Alpha  occ. eigenvalues --  -10.27317 -10.27302 -10.27227 -10.27200 -10.26935
 Alpha  occ. eigenvalues --  -10.26919 -10.26520 -10.26495 -10.26412 -10.26378
 Alpha  occ. eigenvalues --  -10.26173 -10.26065 -10.25955 -10.25868 -10.25819
 Alpha  occ. eigenvalues --  -10.25750 -10.25612 -10.25521 -10.25374 -10.25277
 Alpha  occ. eigenvalues --  -10.24688 -10.24615 -10.24614 -10.24598 -10.24523
 Alpha  occ. eigenvalues --  -10.24508  -3.16329  -3.16229  -1.91210  -1.91111
 Alpha  occ. eigenvalues --   -1.90798  -1.90700  -1.90639  -1.90536  -1.16627
 Alpha  occ. eigenvalues --   -1.16411  -1.08490  -1.08376  -1.07144  -1.06877
 Alpha  occ. eigenvalues --   -1.06870  -1.06398  -1.04380  -1.04319  -1.03576
 Alpha  occ. eigenvalues --   -1.03489  -1.03028  -1.02862  -1.02207  -1.01932
 Alpha  occ. eigenvalues --   -0.91823  -0.91759  -0.89391  -0.89323  -0.89001
 Alpha  occ. eigenvalues --   -0.88966  -0.88165  -0.88054  -0.87615  -0.87591
 Alpha  occ. eigenvalues --   -0.87502  -0.87481  -0.87126  -0.86981  -0.84824
 Alpha  occ. eigenvalues --   -0.84804  -0.83835  -0.83719  -0.82886  -0.82820
 Alpha  occ. eigenvalues --   -0.82512  -0.82487  -0.81506  -0.81385  -0.80415
 Alpha  occ. eigenvalues --   -0.80317  -0.78616  -0.78472  -0.77071  -0.76962
 Alpha  occ. eigenvalues --   -0.76787  -0.76733  -0.75735  -0.75705  -0.74771
 Alpha  occ. eigenvalues --   -0.74661  -0.72574  -0.72517  -0.71497  -0.71426
 Alpha  occ. eigenvalues --   -0.69837  -0.69581  -0.68701  -0.68655  -0.67462
 Alpha  occ. eigenvalues --   -0.67446  -0.67055  -0.67023  -0.65110  -0.65099
 Alpha  occ. eigenvalues --   -0.64668  -0.64626  -0.64514  -0.64457  -0.64129
 Alpha  occ. eigenvalues --   -0.64042  -0.62200  -0.62104  -0.60297  -0.60192
 Alpha  occ. eigenvalues --   -0.59619  -0.59609  -0.58830  -0.58802  -0.58318
 Alpha  occ. eigenvalues --   -0.58275  -0.57429  -0.57363  -0.57152  -0.57086
 Alpha  occ. eigenvalues --   -0.56118  -0.56058  -0.55834  -0.55785  -0.55378
 Alpha  occ. eigenvalues --   -0.55343  -0.55215  -0.55110  -0.54393  -0.54369
 Alpha  occ. eigenvalues --   -0.53736  -0.53710  -0.53161  -0.53089  -0.53057
 Alpha  occ. eigenvalues --   -0.53000  -0.52780  -0.52736  -0.52632  -0.52547
 Alpha  occ. eigenvalues --   -0.52351  -0.52220  -0.51675  -0.51638  -0.51513
 Alpha  occ. eigenvalues --   -0.51438  -0.51079  -0.50998  -0.50487  -0.50357
 Alpha  occ. eigenvalues --   -0.50052  -0.49794  -0.49768  -0.49707  -0.49376
 Alpha  occ. eigenvalues --   -0.49321  -0.49059  -0.49024  -0.48929  -0.48912
 Alpha  occ. eigenvalues --   -0.48442  -0.48389  -0.48341  -0.48281  -0.48231
 Alpha  occ. eigenvalues --   -0.48219  -0.47545  -0.47456  -0.47138  -0.46985
 Alpha  occ. eigenvalues --   -0.46641  -0.46534  -0.46413  -0.46363  -0.46190
 Alpha  occ. eigenvalues --   -0.46117  -0.45965  -0.45936  -0.45712  -0.45582
 Alpha  occ. eigenvalues --   -0.45156  -0.45040  -0.44430  -0.44375  -0.44357
 Alpha  occ. eigenvalues --   -0.44262  -0.44048  -0.43957  -0.43931  -0.43890
 Alpha  occ. eigenvalues --   -0.43827  -0.43807  -0.43470  -0.43298  -0.43229
 Alpha  occ. eigenvalues --   -0.43220  -0.42862  -0.42840  -0.42743  -0.42583
 Alpha  occ. eigenvalues --   -0.42472  -0.42378  -0.41867  -0.41767  -0.41522
 Alpha  occ. eigenvalues --   -0.41504  -0.41362  -0.41285  -0.40972  -0.40828
 Alpha  occ. eigenvalues --   -0.40749  -0.40739  -0.40598  -0.40574  -0.40434
 Alpha  occ. eigenvalues --   -0.40331  -0.40066  -0.40035  -0.39385  -0.39217
 Alpha  occ. eigenvalues --   -0.38353  -0.38135  -0.37580  -0.37352  -0.37166
 Alpha  occ. eigenvalues --   -0.37075  -0.37067  -0.36931  -0.36692  -0.36461
 Alpha  occ. eigenvalues --   -0.36073  -0.35967  -0.34078  -0.34075  -0.33767
 Alpha  occ. eigenvalues --   -0.33529  -0.33003  -0.32977  -0.31264  -0.31171
 Alpha  occ. eigenvalues --   -0.30847  -0.30808  -0.29784  -0.29781  -0.29267
 Alpha  occ. eigenvalues --   -0.29166  -0.29074  -0.29020  -0.23876  -0.23861
 Alpha  occ. eigenvalues --   -0.20939  -0.20924
 Alpha virt. eigenvalues --   -0.08619  -0.08575  -0.01570  -0.01516   0.00098
 Alpha virt. eigenvalues --    0.00115   0.02375   0.02419   0.02989   0.03862
 Alpha virt. eigenvalues --    0.04824   0.04963   0.05251   0.05333   0.06209

 Mulliken charges:
               1
     1  Mg   0.840663
     2  C   -0.002765
     3  C   -0.094127
     4  C   -0.046711
     5  C   -0.061129
     6  N   -0.256618
     7  C   -0.052151
     8  C   -0.014105
     9  C   -0.086889
    10  C    0.045900
    11  C    0.104949
    12  C    0.053460
    13  C   -0.071489
    14  H    0.035664
    15  N   -0.432751
    16  C    0.167808
    17  C   -0.177816
    18  C   -0.005045
    19  C    0.148321
    20  C    0.110352
    21  C    0.010991
    22  O   -0.251517
    23  C    0.063023
    24  N   -0.341076
    25  C    0.040989
    26  C   -0.028050
    27  C   -0.022996
    28  C    0.074569
    29  C    0.076546
    30  C    0.036550
    31  C   -0.013943
    32  N   -0.311586
    33  C    0.083918
    34  C   -0.164812
    35  C    0.008697
    36  C    0.085340
    37  C    0.127144
    38  C    0.047812
    39  O   -0.187555
    40  C   -0.006098
    41  C    0.212789
    42  O   -0.255561
    43  O   -0.305110
    44  C    0.157900
    45  H   -0.018243
    46  H   -0.018428
    47  H   -0.041561
    48  H    0.000764
    49  H   -0.004303
    50  H    0.025253
    51  H    0.016215
    52  H    0.016168
    53  H    0.011405
    54  H    0.044569
    55  H    0.017592
    56  H    0.017890
    57  H    0.005883
    58  H    0.025967
    59  H    0.038319
    60  H    0.037808
    61  H    0.033673
    62  H    0.030184
    63  H    0.015377
    64  H    0.008888
    65  H    0.021934
    66  H    0.012793
    67  H    0.004490
    68  H    0.002789
    69  H    0.003120
    70  H    0.010766
    71  H    0.024434
    72  H    0.036433
    73  H    0.051145
    74  H    0.009266
    75  H    0.044753
    76  H    0.034623
    77  H    0.042580
    78  H    0.045908
    79  H    0.053624
    80  Mg   0.838710
    81  C   -0.016743
    82  C   -0.087196
    83  C   -0.045761
    84  C   -0.064225
    85  N   -0.254583
    86  C   -0.049790
    87  C   -0.015944
    88  C   -0.090055
    89  C    0.045455
    90  C    0.114507
    91  C    0.063612
    92  C   -0.082953
    93  H    0.033175
    94  N   -0.423309
    95  C    0.162577
    96  C   -0.175037
    97  C   -0.008569
    98  C    0.151933
    99  C    0.099626
   100  C    0.014776
   101  O   -0.253962
   102  C    0.061700
   103  N   -0.350163
   104  C    0.037457
   105  C   -0.019582
   106  C   -0.034948
   107  C    0.089245
   108  C    0.073881
   109  C    0.034718
   110  C   -0.007514
   111  N   -0.324666
   112  C    0.079849
   113  C   -0.160865
   114  C    0.002657
   115  C    0.097658
   116  C    0.131076
   117  C    0.043815
   118  O   -0.187588
   119  C    0.000095
   120  C    0.210652
   121  O   -0.249403
   122  O   -0.305233
   123  C    0.148531
   124  H   -0.019878
   125  H   -0.016296
   126  H   -0.040008
   127  H   -0.001426
   128  H   -0.003611
   129  H    0.022024
   130  H    0.014186
   131  H    0.016011
   132  H    0.014880
   133  H    0.038454
   134  H    0.018051
   135  H    0.019263
   136  H    0.009398
   137  H    0.025446
   138  H    0.038987
   139  H    0.038500
   140  H    0.035200
   141  H    0.032582
   142  H    0.013869
   143  H    0.012086
   144  H    0.024455
   145  H    0.011428
   146  H    0.005409
   147  H    0.005228
   148  H    0.004100
   149  H    0.009326
   150  H    0.018993
   151  H    0.032017
   152  H    0.048092
   153  H    0.008955
   154  H    0.046143
   155  H    0.034654
   156  H    0.043828
   157  H    0.051463
   158  H    0.055016
 Sum of Mulliken charges =  -0.00000

 Dipole moment (field-independent basis, Debye):
    X=              0.5219    Y=             -2.6668    Z=              6.0353  Tot=              6.6189
 Quadrupole moment (field-independent basis, Debye-Ang):
   XX=           -487.5431   YY=           -472.7604   ZZ=           -528.7198
   XY=              8.5967   XZ=             18.5237   YZ=             26.2604

 Normal termination of Gaussian 16 at Thu Sep  9 18:46:49 2021.
