 Gaussian 16, Revision A.03,
 Gaussian 16:  ES64L-G16RevA.03 25-Dec-2016

 -----------------------------------
 #p cam-b3lyp/Def2SVP td=(nstates=5)
 -----------------------------------

 --------------------------------
 TDDFT excited states in gaussian
 --------------------------------
 Symbolic Z-matrix:
 Charge =  0 Multiplicity = 1

                         Standard orientation:
 ---------------------------------------------------------------------
 Center     Atomic      Atomic             Coordinates (Angstroms)
 Number     Number       Type             X           Y           Z
 ---------------------------------------------------------------------
      1         12           0        8.040229   -0.475212   -0.129989
      2          6           0        8.094922    2.954970   -1.151298
      3          6           0        8.955743    0.590748    2.979453
      4          6           0        8.440554   -3.516116    0.675779
      5          6           0        8.248031   -1.329200   -3.502404
      6          7           0        8.442142    1.542563    0.687138
      7          6           0        8.369623    2.779994    0.206850
      8          6           0        8.538541    3.877698    1.299501
      9          6           0        9.349315    3.033006    2.381693
     10          6           0        8.860990    1.641552    2.019316
     11          6           0       10.861450    3.088379    2.189643
     12          6           0        7.164117    4.367590    1.867566
     13          6           0        7.220334    5.656054    2.693431
     14          1           0        6.108184    6.590639    2.609636
     15          7           0        8.134945   -1.327199    1.649898
     16          6           0        8.512567   -0.738859    2.810305
     17          6           0        8.416153   -1.787015    3.848936
     18          6           0        8.134563   -3.080073    3.165708
     19          6           0        8.252935   -2.692483    1.783268
     20          6           0        8.537265   -1.505990    5.315260
     21          6           0        7.820584   -4.450268    3.677681
     22          8           0        7.839067   -5.480130    2.920306
     23          6           0        7.574142   -4.569846    5.126131
     24          7           0        8.527458   -2.182767   -1.227486
     25          6           0        8.579555   -3.385758   -0.645179
     26          6           0        8.664914   -4.482650   -1.664728
     27          6           0        8.414587   -3.789822   -3.081443
     28          6           0        8.303815   -2.319274   -2.608699
     29          6           0        9.988380   -5.259164   -1.703122
     30          6           0        7.276067   -4.370856   -3.956995
     31          6           0        5.938824   -4.105157   -3.302560
     32          7           0        7.974986    0.586836   -2.021772
     33          6           0        8.103506    0.033755   -3.304058
     34          6           0        8.103829    1.155938   -4.260496
     35          6           0        7.991414    2.292273   -3.461778
     36          6           0        7.951496    1.906028   -2.091554
     37          6           0        8.257965    1.048799   -5.670886
     38          6           0        7.920534    3.744366   -3.445761
     39          8           0        7.818406    4.617147   -4.309078
     40          6           0        8.107407    4.238607   -1.943552
     41          6           0        7.030312    5.250082   -1.660543
     42          8           0        5.829819    4.911718   -1.619423
     43          8           0        7.593939    6.396934   -1.251158
     44          6           0        6.578696    7.433893   -0.925349
     45          1           0        9.467648    0.783650    3.924272
     46          1           0        8.472258   -4.583894    0.902239
     47          1           0        8.224461   -1.523754   -4.576204
     48          1           0        9.123901    4.742937    0.987830
     49          1           0        9.053423    3.285243    3.399802
     50          1           0       11.126936    3.595176    1.261961
     51          1           0       11.189727    2.049137    2.163118
     52          1           0       11.346258    3.533657    3.058819
     53          1           0        6.822925    3.671078    2.633412
     54          1           0        6.434893    4.485159    1.065235
     55          1           0        8.168226    6.176955    2.555328
     56          1           0        7.211194    5.385593    3.749351
     57          1           0        8.907082   -0.498325    5.500713
     58          1           0        9.320730   -2.158108    5.700789
     59          1           0        7.605390   -1.696289    5.847920
     60          1           0        8.452564   -4.222607    5.670511
     61          1           0        7.278159   -5.604377    5.296397
     62          1           0        6.758360   -3.900967    5.401898
     63          1           0        7.896338   -5.235466   -1.494475
     64          1           0        9.295021   -3.839961   -3.722532
     65          1           0        9.869891   -6.333657   -1.561243
     66          1           0       10.649691   -4.835546   -0.947803
     67          1           0       10.575733   -5.116784   -2.609853
     68          1           0        7.380348   -5.451639   -4.046318
     69          1           0        7.253258   -3.955468   -4.964558
     70          1           0        5.848908   -4.925069   -2.590877
     71          1           0        5.139061   -4.141422   -4.043015
     72          1           0        5.952937   -3.177224   -2.730523
     73          1           0        7.523747    1.724040   -6.110137
     74          1           0        8.105928    0.024062   -6.009120
     75          1           0        9.290491    1.377919   -5.786755
     76          1           0        9.104424    4.673137   -1.878253
     77          1           0        6.812765    8.312400   -1.526740
     78          1           0        6.587282    7.546066    0.158970
     79          1           0        5.558141    7.228141   -1.250116
     80         12           0       -7.822586   -1.039272    0.275603
     81          6           0       -9.507383    2.090200   -0.221315
     82          6           0       -5.599968    0.640444    2.243618
     83          6           0       -6.063420   -3.678189    0.369711
     84          6           0       -9.451055   -2.209871   -2.574577
     85          7           0       -7.678217    1.088911    0.860639
     86          6           0       -8.410121    2.174619    0.660911
     87          6           0       -7.987480    3.401024    1.513479
     88          6           0       -6.456951    2.993561    1.778701
     89          6           0       -6.583262    1.476379    1.656726
     90          6           0       -5.507961    3.482320    0.697092
     91          6           0       -8.795285    3.503546    2.854727
     92          6           0       -8.655850    4.838910    3.588961
     93          1           0       -9.814855    5.363271    4.306051
     94          7           0       -6.389929   -1.583394    1.536552
     95          6           0       -5.600412   -0.771501    2.270564
     96          6           0       -4.696068   -1.658491    3.018626
     97          6           0       -4.905925   -3.052539    2.541860
     98          6           0       -5.799234   -2.817571    1.425214
     99          6           0       -3.808265   -1.169146    4.125764
    100          6           0       -4.378479   -4.376638    3.005270
    101          8           0       -4.504212   -5.437004    2.296286
    102          6           0       -3.628713   -4.377416    4.269924
    103          7           0       -7.598661   -2.632251   -1.041445
    104          6           0       -6.810020   -3.677201   -0.734775
    105          6           0       -7.019190   -4.820060   -1.699405
    106          6           0       -8.292842   -4.413808   -2.577100
    107          6           0       -8.556974   -3.004682   -2.002674
    108          6           0       -5.843260   -5.133709   -2.624184
    109          6           0       -9.469581   -5.426755   -2.620687
    110          6           0      -10.120354   -5.520739   -1.259424
    111          7           0       -9.362049   -0.302490   -1.049258
    112          6           0       -9.877812   -0.943045   -2.197202
    113          6           0      -10.822531   -0.002142   -2.833322
    114          6           0      -10.773125    1.138347   -2.017650
    115          6           0       -9.846842    0.930994   -0.960068
    116          6           0      -11.547028   -0.236517   -4.035949
    117          6           0      -11.286026    2.474511   -1.816859
    118          8           0      -12.161091    3.157866   -2.346957
    119          6           0      -10.395192    3.197771   -0.716991
    120          6           0      -11.319701    3.851081    0.273452
    121          8           0      -12.058508    3.161722    0.998411
    122          8           0      -11.023845    5.161132    0.354686
    123          6           0      -11.906922    5.850357    1.332922
    124          1           0       -4.721693    1.107262    2.690382
    125          1           0       -5.563900   -4.648648    0.416262
    126          1           0      -10.072240   -2.536758   -3.411206
    127          1           0       -8.034854    4.351843    0.996312
    128          1           0       -6.142546    3.270601    2.781573
    129          1           0       -6.037537    3.922859   -0.134541
    130          1           0       -4.955418    2.609671    0.374245
    131          1           0       -4.768859    4.165799    1.124798
    132          1           0       -8.343495    2.832952    3.596974
    133          1           0       -9.833256    3.287409    2.691822
    134          1           0       -8.214329    5.615232    2.952304
    135          1           0       -7.934311    4.715189    4.400194
    136          1           0       -3.746870   -0.073935    4.137872
    137          1           0       -2.790233   -1.495635    3.887274
    138          1           0       -4.089533   -1.572724    5.100797
    139          1           0       -2.777414   -3.706140    4.185458
    140          1           0       -3.410608   -5.426368    4.479692
    141          1           0       -4.272342   -3.971767    5.058464
    142          1           0       -7.236598   -5.738996   -1.168949
    143          1           0       -8.030783   -4.277217   -3.636587
    144          1           0       -5.491103   -6.179412   -2.543138
    145          1           0       -5.040293   -4.443701   -2.401345
    146          1           0       -6.023683   -4.944693   -3.681025
    147          1           0       -9.099435   -6.427288   -2.857498
    148          1           0      -10.225015   -5.179720   -3.359127
    149          1           0       -9.480032   -6.231375   -0.728322
    150          1           0      -11.138269   -5.895324   -1.346495
    151          1           0      -10.061861   -4.563588   -0.728311
    152          1           0      -12.556032    0.114474   -3.864999
    153          1           0      -11.532589   -1.289337   -4.310035
    154          1           0      -10.970821    0.377193   -4.733516
    155          1           0       -9.766170    3.925273   -1.231447
    156          1           0      -12.385802    6.679153    0.802410
    157          1           0      -11.257949    6.109197    2.190581
    158          1           0      -12.770003    5.306626    1.698850
 ---------------------------------------------------------------------

 SCF Done:  E(RCAM-B3LYP) =  -4069.81175279     A.U. after   19 cycles

 Excitation energies and oscillator strengths:

 Excited State   1:      Singlet-A      1.6708 eV  742.08 nm  f=0.1282  <S**2>=0.000
     309 -> 315       -0.10073
     310 -> 316       -0.14023
     311 -> 313       -0.39896
     312 -> 314        0.55845
 This state for optimization and/or second-order correction.
 Total Energy, E(TD-HF/TD-DFT) =  -4069.75035366
 Copying the excited state density for this state as the 1-particle RhoCI density.

 Excited State   2:      Singlet-A      1.6840 eV  736.26 nm  f=0.6400  <S**2>=0.000
     309 -> 315        0.14390
     310 -> 316       -0.10209
     311 -> 313        0.55770
     312 -> 314        0.39849

 Excited State   3:      Singlet-A      2.1854 eV  567.33 nm  f=0.0571  <S**2>=0.000
     309 -> 313        0.14117
     310 -> 314        0.62713
     312 -> 316        0.26586

 Excited State   4:      Singlet-A      2.1930 eV  565.35 nm  f=0.1359  <S**2>=0.000
     309 -> 313        0.62507
     310 -> 314       -0.14008
     311 -> 315       -0.27190

 Excited State   5:      Singlet-A      2.7442 eV  451.80 nm  f=0.0000  <S**2>=0.000
     312 -> 313        0.70705

 The electronic state is 1-A.
 Alpha  occ. eigenvalues --  -46.87893 -46.87591 -19.26406 -19.26295 -19.19143
 Alpha  occ. eigenvalues --  -19.19106 -19.18902 -19.18655 -19.18266 -19.17986
 Alpha  occ. eigenvalues --  -14.42549 -14.42426 -14.41541 -14.41290 -14.39500
 Alpha  occ. eigenvalues --  -14.39283 -14.38683 -14.38531 -10.39200 -10.39034
 Alpha  occ. eigenvalues --  -10.35536 -10.35333 -10.34487 -10.34163 -10.31808
 Alpha  occ. eigenvalues --  -10.31708 -10.31505 -10.31236 -10.31013 -10.30953
 Alpha  occ. eigenvalues --  -10.30667 -10.30599 -10.30331 -10.30294 -10.30293
 Alpha  occ. eigenvalues --  -10.30073 -10.30006 -10.29826 -10.29725 -10.29368
 Alpha  occ. eigenvalues --  -10.29348 -10.29337 -10.28867 -10.28690 -10.28647
 Alpha  occ. eigenvalues --  -10.28607 -10.28464 -10.28336 -10.28226 -10.28057
 Alpha  occ. eigenvalues --  -10.27933 -10.27888 -10.27825 -10.27680 -10.27596
 Alpha  occ. eigenvalues --  -10.27589 -10.27568 -10.27515 -10.27502 -10.27454
 Alpha  occ. eigenvalues --  -10.27415 -10.27414 -10.27402 -10.27310 -10.27262
 Alpha  occ. eigenvalues --  -10.26984 -10.26848 -10.26636 -10.26504 -10.26369
 Alpha  occ. eigenvalues --  -10.26333 -10.26237 -10.26108 -10.26083 -10.25924
 Alpha  occ. eigenvalues --  -10.25910 -10.25867 -10.25787 -10.25493 -10.25324
 Alpha  occ. eigenvalues --  -10.24928 -10.24877 -10.24805 -10.24736 -10.24681
 Alpha  occ. eigenvalues --  -10.24621  -3.16637  -3.16341  -1.91518  -1.91223
 Alpha  occ. eigenvalues --   -1.91105  -1.90947  -1.90811  -1.90648  -1.16755
 Alpha  occ. eigenvalues --   -1.16589  -1.08725  -1.08595  -1.07302  -1.06907
 Alpha  occ. eigenvalues --   -1.06890  -1.06765  -1.04681  -1.04424  -1.03853
 Alpha  occ. eigenvalues --   -1.03594  -1.03328  -1.02970  -1.02505  -1.02042
 Alpha  occ. eigenvalues --   -0.92071  -0.91919  -0.89599  -0.89430  -0.89300
 Alpha  occ. eigenvalues --   -0.89075  -0.88364  -0.88155  -0.87962  -0.87773
 Alpha  occ. eigenvalues --   -0.87727  -0.87615  -0.87371  -0.87061  -0.85092
 Alpha  occ. eigenvalues --   -0.84930  -0.84010  -0.83813  -0.83056  -0.82875
 Alpha  occ. eigenvalues --   -0.82753  -0.82586  -0.81692  -0.81535  -0.80697
 Alpha  occ. eigenvalues --   -0.80379  -0.78893  -0.78573  -0.77313  -0.77078
 Alpha  occ. eigenvalues --   -0.77038  -0.76833  -0.76027  -0.75768  -0.74978
 Alpha  occ. eigenvalues --   -0.74736  -0.72866  -0.72631  -0.71765  -0.71509
 Alpha  occ. eigenvalues --   -0.69975  -0.69696  -0.68979  -0.68760  -0.67737
 Alpha  occ. eigenvalues --   -0.67537  -0.67336  -0.67140  -0.65396  -0.65204
 Alpha  occ. eigenvalues --   -0.64951  -0.64719  -0.64704  -0.64588  -0.64351
 Alpha  occ. eigenvalues --   -0.64139  -0.62404  -0.62218  -0.60533  -0.60278
 Alpha  occ. eigenvalues --   -0.59911  -0.59724  -0.59081  -0.58925  -0.58598
 Alpha  occ. eigenvalues --   -0.58360  -0.57689  -0.57491  -0.57398  -0.57173
 Alpha  occ. eigenvalues --   -0.56406  -0.56140  -0.56093  -0.55827  -0.55616
 Alpha  occ. eigenvalues --   -0.55425  -0.55391  -0.55185  -0.54616  -0.54427
 Alpha  occ. eigenvalues --   -0.54008  -0.53840  -0.53392  -0.53327  -0.53164
 Alpha  occ. eigenvalues --   -0.53078  -0.53017  -0.52858  -0.52839  -0.52607
 Alpha  occ. eigenvalues --   -0.52505  -0.52344  -0.52003  -0.51820  -0.51728
 Alpha  occ. eigenvalues --   -0.51595  -0.51290  -0.51137  -0.50670  -0.50420
 Alpha  occ. eigenvalues --   -0.50110  -0.50014  -0.49911  -0.49803  -0.49617
 Alpha  occ. eigenvalues --   -0.49423  -0.49314  -0.49200  -0.49135  -0.49032
 Alpha  occ. eigenvalues --   -0.48694  -0.48544  -0.48539  -0.48491  -0.48311
 Alpha  occ. eigenvalues --   -0.48278  -0.47792  -0.47530  -0.47391  -0.47055
 Alpha  occ. eigenvalues --   -0.46889  -0.46667  -0.46643  -0.46485  -0.46451
 Alpha  occ. eigenvalues --   -0.46253  -0.46206  -0.46021  -0.45921  -0.45758
 Alpha  occ. eigenvalues --   -0.45279  -0.45141  -0.44676  -0.44604  -0.44450
 Alpha  occ. eigenvalues --   -0.44409  -0.44233  -0.44191  -0.44118  -0.44056
 Alpha  occ. eigenvalues --   -0.44018  -0.43879  -0.43597  -0.43493  -0.43483
 Alpha  occ. eigenvalues --   -0.43318  -0.43121  -0.42871  -0.42836  -0.42806
 Alpha  occ. eigenvalues --   -0.42735  -0.42491  -0.42097  -0.41902  -0.41799
 Alpha  occ. eigenvalues --   -0.41642  -0.41602  -0.41393  -0.41236  -0.40971
 Alpha  occ. eigenvalues --   -0.40920  -0.40915  -0.40661  -0.40652  -0.40634
 Alpha  occ. eigenvalues --   -0.40427  -0.40361  -0.40167  -0.39507  -0.39366
 Alpha  occ. eigenvalues --   -0.38551  -0.38284  -0.37870  -0.37593  -0.37405
 Alpha  occ. eigenvalues --   -0.37374  -0.37200  -0.37132  -0.36821  -0.36714
 Alpha  occ. eigenvalues --   -0.36290  -0.36152  -0.34381  -0.34185  -0.33889
 Alpha  occ. eigenvalues --   -0.33804  -0.33283  -0.33107  -0.31432  -0.31213
 Alpha  occ. eigenvalues --   -0.31131  -0.30904  -0.30126  -0.29891  -0.29545
 Alpha  occ. eigenvalues --   -0.29417  -0.29262  -0.29144  -0.24176  -0.23966
 Alpha  occ. eigenvalues --   -0.21222  -0.21048
 Alpha virt. eigenvalues --   -0.08869  -0.08724  -0.01843  -0.01615  -0.00154
 Alpha virt. eigenvalues --    0.00037   0.02107   0.02273   0.03008   0.03286
 Alpha virt. eigenvalues --    0.04612   0.04801   0.04980   0.05223   0.06049

 Mulliken charges:
               1
     1  Mg   0.838333
     2  C   -0.003172
     3  C   -0.094461
     4  C   -0.045686
     5  C   -0.063774
     6  N   -0.256767
     7  C   -0.052597
     8  C   -0.013945
     9  C   -0.086945
    10  C    0.046171
    11  C    0.104776
    12  C    0.053581
    13  C   -0.071591
    14  H    0.035425
    15  N   -0.433141
    16  C    0.168291
    17  C   -0.177366
    18  C   -0.004013
    19  C    0.148633
    20  C    0.110208
    21  C    0.012256
    22  O   -0.249183
    23  C    0.062561
    24  N   -0.341116
    25  C    0.041214
    26  C   -0.028235
    27  C   -0.024040
    28  C    0.074888
    29  C    0.076089
    30  C    0.035039
    31  C   -0.004538
    32  N   -0.310479
    33  C    0.080405
    34  C   -0.169600
    35  C    0.008386
    36  C    0.082927
    37  C    0.127304
    38  C    0.046113
    39  O   -0.188321
    40  C   -0.005359
    41  C    0.212960
    42  O   -0.257532
    43  O   -0.304646
    44  C    0.157736
    45  H   -0.017604
    46  H   -0.016536
    47  H   -0.041235
    48  H    0.001065
    49  H   -0.004276
    50  H    0.025588
    51  H    0.016625
    52  H    0.016721
    53  H    0.010716
    54  H    0.043791
    55  H    0.018257
    56  H    0.017789
    57  H    0.005767
    58  H    0.027064
    59  H    0.039012
    60  H    0.037430
    61  H    0.035980
    62  H    0.030883
    63  H    0.016854
    64  H    0.009607
    65  H    0.023490
    66  H    0.012516
    67  H    0.004888
    68  H    0.006687
    69  H    0.004788
    70  H    0.009128
    71  H    0.018412
    72  H    0.028601
    73  H    0.047624
    74  H    0.009302
    75  H    0.046170
    76  H    0.035301
    77  H    0.043203
    78  H    0.046240
    79  H    0.053362
    80  Mg   0.837950
    81  C   -0.016819
    82  C   -0.087712
    83  C   -0.045397
    84  C   -0.064812
    85  N   -0.254596
    86  C   -0.049719
    87  C   -0.015104
    88  C   -0.090522
    89  C    0.045786
    90  C    0.114266
    91  C    0.062565
    92  C   -0.077749
    93  H    0.034543
    94  N   -0.423523
    95  C    0.162939
    96  C   -0.174386
    97  C   -0.007810
    98  C    0.152193
    99  C    0.099320
   100  C    0.015647
   101  O   -0.253105
   102  C    0.061222
   103  N   -0.349986
   104  C    0.037610
   105  C   -0.019883
   106  C   -0.034795
   107  C    0.088924
   108  C    0.073581
   109  C    0.034750
   110  C   -0.007637
   111  N   -0.324101
   112  C    0.078458
   113  C   -0.163155
   114  C    0.002265
   115  C    0.096175
   116  C    0.131492
   117  C    0.042386
   118  O   -0.187973
   119  C    0.000895
   120  C    0.211219
   121  O   -0.251163
   122  O   -0.305535
   123  C    0.152095
   124  H   -0.019381
   125  H   -0.015551
   126  H   -0.040536
   127  H   -0.000543
   128  H   -0.004630
   129  H    0.022652
   130  H    0.015103
   131  H    0.016633
   132  H    0.013741
   133  H    0.037567
   134  H    0.020927
   135  H    0.019390
   136  H    0.008712
   137  H    0.026270
   138  H    0.039299
   139  H    0.038224
   140  H    0.036327
   141  H    0.033575
   142  H    0.014262
   143  H    0.012492
   144  H    0.025009
   145  H    0.012038
   146  H    0.005711
   147  H    0.006173
   148  H    0.003584
   149  H    0.010871
   150  H    0.017775
   151  H    0.030121
   152  H    0.045858
   153  H    0.008412
   154  H    0.047103
   155  H    0.035273
   156  H    0.043862
   157  H    0.049432
   158  H    0.053446
 Sum of Mulliken charges =  -0.00000

 Dipole moment (field-independent basis, Debye):
    X=              6.1873    Y=              0.6192    Z=              5.7735  Tot=              8.4853
 Quadrupole moment (field-independent basis, Debye-Ang):
   XX=           -556.4027   YY=           -514.4619   ZZ=           -477.7216
   XY=             14.7697   XZ=             22.3864   YZ=             58.7199

 Normal termination of Gaussian 16 at Sun Sep 12 06:47:50 2021.
