 Gaussian 16, Revision A.03,
 Gaussian 16:  ES64L-G16RevA.03 25-Dec-2016

 -----------------------------------
 #p cam-b3lyp/Def2SVP td=(nstates=5)
 -----------------------------------

 --------------------------------
 TDDFT excited states in gaussian
 --------------------------------
 Symbolic Z-matrix:
 Charge =  0 Multiplicity = 1

                         Standard orientation:
 ---------------------------------------------------------------------
 Center     Atomic      Atomic             Coordinates (Angstroms)
 Number     Number       Type             X           Y           Z
 ---------------------------------------------------------------------
      1         12           0       -3.916708   -0.322812    0.500862
      2          6           0       -3.779099    3.215029   -0.025408
      3          6           0       -5.187483   -0.592698   -2.654349
      4          6           0       -4.471741   -3.386359    1.103554
      5          6           0       -3.724017    0.326980    3.919385
      6          7           0       -4.377238    1.191580   -1.046774
      7          6           0       -4.222291    2.508173   -1.145488
      8          6           0       -4.503304    3.057794   -2.575985
      9          6           0       -5.457308    1.896778   -3.108823
     10          6           0       -4.954975    0.753767   -2.244467
     11          6           0       -6.932931    2.132194   -2.802849
     12          6           0       -3.200121    3.168791   -3.436870
     13          6           0       -3.332780    3.994854   -4.719593
     14          1           0       -2.200976    4.799248   -5.154699
     15          7           0       -4.246303   -1.831660   -0.731045
     16          6           0       -4.752552   -1.757277   -1.985423
     17          6           0       -4.805000   -3.147413   -2.486871
     18          6           0       -4.466379   -4.052882   -1.353930
     19          6           0       -4.406106   -3.115975   -0.261250
     20          6           0       -5.100336   -3.497047   -3.913154
     21          6           0       -4.244303   -5.529824   -1.267573
     22          8           0       -4.189212   -6.145050   -0.148182
     23          6           0       -4.180471   -6.260417   -2.546323
     24          7           0       -4.297878   -1.377292    2.261662
     25          6           0       -4.444464   -2.706728    2.251859
     26          6           0       -4.424730   -3.268495    3.642530
     27          6           0       -3.988531   -2.066365    4.598755
     28          6           0       -3.908508   -0.939422    3.539574
     29          6           0       -5.748109   -3.863971    4.142620
     30          6           0       -2.762259   -2.305985    5.514865
     31          6           0       -1.510923   -2.431583    4.674936
     32          7           0       -3.598528    1.425124    1.747669
     33          6           0       -3.578784    1.468754    3.149233
     34          6           0       -3.439691    2.884937    3.535428
     35          6           0       -3.404622    3.572817    2.324050
     36          6           0       -3.541207    2.647682    1.249918
     37          6           0       -3.420993    3.387838    4.866283
     38          6           0       -3.308287    4.876631    1.687932
     39          8           0       -3.083817    6.020864    2.085218
     40          6           0       -3.669183    4.709720    0.145945
     41          6           0       -2.615852    5.432955   -0.648243
     42          8           0       -1.436306    5.025882   -0.666367
     43          8           0       -3.203402    6.339975   -1.443631
     44          6           0       -2.216221    7.072710   -2.280726
     45          1           0       -5.808037   -0.777139   -3.533460
     46          1           0       -4.551662   -4.446053    1.354751
     47          1           0       -3.572137    0.597727    4.965847
     48          1           0       -5.029042    4.012468   -2.600912
     49          1           0       -5.284248    1.679366   -4.162627
     50          1           0       -7.072332    2.997312   -2.154729
     51          1           0       -7.275405    1.224643   -2.305301
     52          1           0       -7.512420    2.206099   -3.723451
     53          1           0       -2.969328    2.194171   -3.866884
     54          1           0       -2.375508    3.559859   -2.839873
     55          1           0       -4.246234    4.590259   -4.717547
     56          1           0       -3.458964    3.308056   -5.556603
     57          1           0       -5.470691   -2.636018   -4.468141
     58          1           0       -5.937736   -4.194450   -3.903188
     59          1           0       -4.244995   -3.956697   -4.408579
     60          1           0       -5.112393   -6.112290   -3.092334
     61          1           0       -3.927700   -7.289273   -2.292529
     62          1           0       -3.392124   -5.826360   -3.161996
     63          1           0       -3.697623   -4.074968    3.728225
     64          1           0       -4.784111   -1.782795    5.288186
     65          1           0       -5.668721   -4.904841    4.457247
     66          1           0       -6.489120   -3.749861    3.351942
     67          1           0       -6.216469   -3.315373    4.959379
     68          1           0       -2.875552   -3.240487    6.063332
     69          1           0       -2.607538   -1.510322    6.243723
     70          1           0       -1.525154   -3.477909    4.371898
     71          1           0       -0.626906   -2.210621    5.274019
     72          1           0       -1.577494   -1.828996    3.768877
     73          1           0       -2.625395    4.132053    4.899990
     74          1           0       -3.248233    2.590299    5.588564
     75          1           0       -4.424855    3.806101    4.938217
     76          1           0       -4.658092    5.145316    0.006526
     77          1           0       -2.357473    8.136048   -2.086836
     78          1           0       -2.356117    6.721899   -3.303353
     79          1           0       -1.167594    6.951130   -2.006974
     80         12           0        3.928696   -1.209171   -0.385329
     81          6           0        4.224854    2.213798    0.651339
     82          6           0        2.834577   -0.045698   -3.399267
     83          6           0        3.229854   -4.201766   -1.174902
     84          6           0        3.936724   -2.086295    2.987544
     85          7           0        3.613627    0.840669   -1.154205
     86          6           0        3.818581    2.064538   -0.691091
     87          6           0        3.651884    3.188662   -1.748504
     88          6           0        2.680553    2.417245   -2.768454
     89          6           0        3.086989    0.979250   -2.452767
     90          6           0        1.206726    2.580917   -2.436207
     91          6           0        5.011426    3.574188   -2.430437
     92          6           0        4.977898    4.869361   -3.244767
     93          1           0        6.167992    5.715540   -3.255908
     94          7           0        3.619572   -2.028770   -2.166132
     95          6           0        3.197282   -1.405848   -3.286365
     96          6           0        3.109414   -2.450259   -4.318675
     97          6           0        3.355828   -3.768795   -3.674129
     98          6           0        3.391511   -3.377739   -2.279173
     99          6           0        2.894610   -2.141841   -5.772000
    100          6           0        3.518105   -5.154504   -4.221574
    101          8           0        3.487031   -6.186471   -3.462046
    102          6           0        3.620906   -5.274038   -5.683296
    103          7           0        3.414073   -2.880550    0.738938
    104          6           0        3.213061   -4.073430    0.151959
    105          6           0        3.127304   -5.178501    1.177559
    106          6           0        3.555745   -4.510317    2.565919
    107          6           0        3.736915   -3.049491    2.098445
    108          6           0        1.757037   -5.837993    1.331889
    109          6           0        4.717572   -5.186970    3.343724
    110          6           0        6.011537   -5.030236    2.577920
    111          7           0        4.240075   -0.179993    1.488678
    112          6           0        4.173387   -0.732410    2.786546
    113          6           0        4.342023    0.380949    3.742793
    114          6           0        4.473153    1.516128    2.928745
    115          6           0        4.371757    1.139754    1.562157
    116          6           0        4.311286    0.270815    5.161610
    117          6           0        4.663657    2.948686    2.915053
    118          8           0        4.898872    3.801943    3.769661
    119          6           0        4.384862    3.481506    1.443744
    120          6           0        5.507753    4.407731    1.064611
    121          8           0        6.666388    3.975552    0.932801
    122          8           0        4.994794    5.599910    0.709704
    123          6           0        6.069121    6.549401    0.314583
    124          1           0        2.267684    0.204700   -4.296392
    125          1           0        3.096794   -5.263635   -1.394427
    126          1           0        4.048922   -2.290768    4.054445
    127          1           0        3.169604    4.087596   -1.383674
    128          1           0        2.916744    2.662382   -3.800678
    129          1           0        1.059928    3.093349   -1.497061
    130          1           0        0.803100    1.578056   -2.387137
    131          1           0        0.686763    3.074986   -3.261961
    132          1           0        5.227324    2.854637   -3.230671
    133          1           0        5.800727    3.623338   -1.705715
    134          1           0        4.083315    5.467127   -3.031791
    135          1           0        4.882647    4.611902   -4.302429
    136          1           0        2.582940   -1.100578   -5.920456
    137          1           0        2.032716   -2.732793   -6.100302
    138          1           0        3.757041   -2.401485   -6.389639
    139          1           0        2.731386   -4.850660   -6.143698
    140          1           0        3.821431   -6.329598   -5.876798
    141          1           0        4.469502   -4.670833   -6.024834
    142          1           0        3.819859   -5.977743    0.943708
    143          1           0        2.727597   -4.508207    3.289809
    144          1           0        1.778863   -6.932477    1.171615
    145          1           0        1.071327   -5.366076    0.640770
    146          1           0        1.269653   -5.671241    2.290978
    147          1           0        4.538183   -6.261181    3.433446
    148          1           0        4.849710   -4.797583    4.347663
    149          1           0        5.970450   -5.849317    1.853686
    150          1           0        6.865809   -5.134609    3.243780
    151          1           0        6.023174   -4.090936    2.012914
    152          1           0        5.122613    0.879111    5.538753
    153          1           0        4.407289   -0.764451    5.482200
    154          1           0        3.315829    0.673500    5.366972
    155          1           0        3.420640    3.991104    1.457094
    156          1           0        5.952958    7.440937    0.938565
    157          1           0        5.963168    6.682329   -0.778513
    158          1           0        7.092293    6.268601    0.535322
 ---------------------------------------------------------------------

 SCF Done:  E(RCAM-B3LYP) =  -4069.81307967     A.U. after   19 cycles

 Excitation energies and oscillator strengths:

 Excited State   1:      Singlet-A      1.6402 eV  755.90 nm  f=0.0278  <S**2>=0.000
     309 -> 315       -0.11142
     310 -> 316        0.12100
     311 -> 313       -0.46232
     312 -> 314        0.50969
 This state for optimization and/or second-order correction.
 Total Energy, E(TD-HF/TD-DFT) =  -4069.75280281
 Copying the excited state density for this state as the 1-particle RhoCI density.

 Excited State   2:      Singlet-A      1.7061 eV  726.72 nm  f=0.6493  <S**2>=0.000
     309 -> 315        0.13578
     310 -> 316        0.12060
     311 -> 313        0.50647
     312 -> 314        0.45938

 Excited State   3:      Singlet-A      2.1765 eV  569.64 nm  f=0.0269  <S**2>=0.000
     309 -> 313       -0.29347
     310 -> 314        0.57607
     311 -> 315        0.11910
     312 -> 316       -0.23482

 Excited State   4:      Singlet-A      2.1987 eV  563.89 nm  f=0.1448  <S**2>=0.000
     309 -> 313        0.56921
     310 -> 314        0.28755
     311 -> 315       -0.25301
     312 -> 316       -0.12911

 Excited State   5:      Singlet-A      2.2166 eV  559.36 nm  f=0.0000  <S**2>=0.000
     312 -> 313        0.70693

 The electronic state is 1-A.
 Alpha  occ. eigenvalues --  -46.87945 -46.87344 -19.26680 -19.25904 -19.19503
 Alpha  occ. eigenvalues --  -19.18883 -19.18750 -19.18520 -19.18324 -19.17685
 Alpha  occ. eigenvalues --  -14.42618 -14.42140 -14.41599 -14.41045 -14.39542
 Alpha  occ. eigenvalues --  -14.39051 -14.38732 -14.38281 -10.39507 -10.38667
 Alpha  occ. eigenvalues --  -10.35512 -10.35206 -10.34557 -10.33845 -10.32076
 Alpha  occ. eigenvalues --  -10.31587 -10.31359 -10.31102 -10.30917 -10.30724
 Alpha  occ. eigenvalues --  -10.30650 -10.30640 -10.30339 -10.30098 -10.30061
 Alpha  occ. eigenvalues --  -10.30040 -10.29870 -10.29759 -10.29581 -10.29381
 Alpha  occ. eigenvalues --  -10.29160 -10.29119 -10.29034 -10.28998 -10.28522
 Alpha  occ. eigenvalues --  -10.28356 -10.28309 -10.28168 -10.28073 -10.27920
 Alpha  occ. eigenvalues --  -10.27888 -10.27708 -10.27703 -10.27632 -10.27610
 Alpha  occ. eigenvalues --  -10.27583 -10.27581 -10.27551 -10.27398 -10.27337
 Alpha  occ. eigenvalues --  -10.27325 -10.27265 -10.27199 -10.27126 -10.27123
 Alpha  occ. eigenvalues --  -10.27085 -10.26570 -10.26435 -10.26412 -10.26326
 Alpha  occ. eigenvalues --  -10.26314 -10.26287 -10.26156 -10.25933 -10.25891
 Alpha  occ. eigenvalues --  -10.25648 -10.25629 -10.25548 -10.25052 -10.25049
 Alpha  occ. eigenvalues --  -10.24967 -10.24933 -10.24858 -10.24561 -10.24534
 Alpha  occ. eigenvalues --  -10.24377  -3.16687  -3.16095  -1.91568  -1.91156
 Alpha  occ. eigenvalues --   -1.90997  -1.90977  -1.90565  -1.90403  -1.17033
 Alpha  occ. eigenvalues --   -1.16207  -1.08797  -1.08278  -1.07280  -1.07073
 Alpha  occ. eigenvalues --   -1.06779  -1.06533  -1.04755  -1.04133  -1.03911
 Alpha  occ. eigenvalues --   -1.03374  -1.03337  -1.02734  -1.02557  -1.01794
 Alpha  occ. eigenvalues --   -0.92156  -0.91615  -0.89669  -0.89445  -0.89207
 Alpha  occ. eigenvalues --   -0.88631  -0.88434  -0.87987  -0.87929  -0.87855
 Alpha  occ. eigenvalues --   -0.87508  -0.87382  -0.87341  -0.86903  -0.85222
 Alpha  occ. eigenvalues --   -0.84579  -0.84094  -0.83590  -0.83069  -0.82850
 Alpha  occ. eigenvalues --   -0.82740  -0.82257  -0.81833  -0.81231  -0.80785
 Alpha  occ. eigenvalues --   -0.80104  -0.78919  -0.78378  -0.77403  -0.77175
 Alpha  occ. eigenvalues --   -0.76816  -0.76486  -0.76143  -0.75373  -0.75057
 Alpha  occ. eigenvalues --   -0.74463  -0.72918  -0.72384  -0.71847  -0.71174
 Alpha  occ. eigenvalues --   -0.70056  -0.69488  -0.69090  -0.68430  -0.67810
 Alpha  occ. eigenvalues --   -0.67455  -0.67296  -0.66870  -0.65528  -0.65053
 Alpha  occ. eigenvalues --   -0.64847  -0.64827  -0.64431  -0.64423  -0.64277
 Alpha  occ. eigenvalues --   -0.63903  -0.62567  -0.61907  -0.60561  -0.60089
 Alpha  occ. eigenvalues --   -0.60017  -0.59355  -0.59158  -0.58682  -0.58655
 Alpha  occ. eigenvalues --   -0.58088  -0.57836  -0.57466  -0.57164  -0.56925
 Alpha  occ. eigenvalues --   -0.56480  -0.56268  -0.55907  -0.55664  -0.55541
 Alpha  occ. eigenvalues --   -0.55505  -0.55149  -0.54926  -0.54768  -0.54159
 Alpha  occ. eigenvalues --   -0.54146  -0.53471  -0.53425  -0.53407  -0.53174
 Alpha  occ. eigenvalues --   -0.52947  -0.52893  -0.52801  -0.52596  -0.52574
 Alpha  occ. eigenvalues --   -0.52345  -0.52153  -0.52021  -0.51837  -0.51619
 Alpha  occ. eigenvalues --   -0.51381  -0.51274  -0.50859  -0.50663  -0.50288
 Alpha  occ. eigenvalues --   -0.50186  -0.50062  -0.49701  -0.49652  -0.49574
 Alpha  occ. eigenvalues --   -0.49401  -0.49303  -0.49125  -0.48859  -0.48819
 Alpha  occ. eigenvalues --   -0.48628  -0.48575  -0.48541  -0.48164  -0.48096
 Alpha  occ. eigenvalues --   -0.48037  -0.47878  -0.47456  -0.47237  -0.46976
 Alpha  occ. eigenvalues --   -0.46838  -0.46799  -0.46524  -0.46375  -0.46325
 Alpha  occ. eigenvalues --   -0.46129  -0.46025  -0.45980  -0.45764  -0.45449
 Alpha  occ. eigenvalues --   -0.45350  -0.44878  -0.44769  -0.44683  -0.44310
 Alpha  occ. eigenvalues --   -0.44290  -0.44187  -0.44174  -0.44126  -0.43809
 Alpha  occ. eigenvalues --   -0.43726  -0.43655  -0.43622  -0.43580  -0.43203
 Alpha  occ. eigenvalues --   -0.43180  -0.43035  -0.42961  -0.42818  -0.42565
 Alpha  occ. eigenvalues --   -0.42515  -0.42283  -0.42205  -0.41887  -0.41767
 Alpha  occ. eigenvalues --   -0.41646  -0.41318  -0.41295  -0.41099  -0.41073
 Alpha  occ. eigenvalues --   -0.40965  -0.40731  -0.40589  -0.40530  -0.40470
 Alpha  occ. eigenvalues --   -0.40322  -0.40114  -0.39823  -0.39598  -0.39173
 Alpha  occ. eigenvalues --   -0.38644  -0.38066  -0.38028  -0.37484  -0.37477
 Alpha  occ. eigenvalues --   -0.37288  -0.37056  -0.36946  -0.36807  -0.36419
 Alpha  occ. eigenvalues --   -0.36387  -0.35864  -0.34448  -0.34173  -0.33919
 Alpha  occ. eigenvalues --   -0.33469  -0.33351  -0.32857  -0.31423  -0.31198
 Alpha  occ. eigenvalues --   -0.31074  -0.30628  -0.30192  -0.29576  -0.29570
 Alpha  occ. eigenvalues --   -0.29450  -0.29065  -0.28904  -0.24242  -0.23704
 Alpha  occ. eigenvalues --   -0.21275  -0.20796
 Alpha virt. eigenvalues --   -0.08913  -0.08489  -0.01895  -0.01377  -0.00185
 Alpha virt. eigenvalues --    0.00255   0.02051   0.02382   0.02635   0.03641
 Alpha virt. eigenvalues --    0.04435   0.04642   0.05110   0.05584   0.05737

 Mulliken charges:
               1
     1  Mg   0.838769
     2  C   -0.004299
     3  C   -0.095079
     4  C   -0.045378
     5  C   -0.063233
     6  N   -0.256654
     7  C   -0.053574
     8  C   -0.013459
     9  C   -0.086704
    10  C    0.045965
    11  C    0.104755
    12  C    0.048836
    13  C   -0.071484
    14  H    0.032557
    15  N   -0.433364
    16  C    0.168765
    17  C   -0.177084
    18  C   -0.003005
    19  C    0.148991
    20  C    0.110213
    21  C    0.013526
    22  O   -0.249345
    23  C    0.062055
    24  N   -0.340873
    25  C    0.041265
    26  C   -0.028281
    27  C   -0.023866
    28  C    0.074615
    29  C    0.076060
    30  C    0.034991
    31  C   -0.004917
    32  N   -0.310681
    33  C    0.080483
    34  C   -0.168567
    35  C    0.008636
    36  C    0.082837
    37  C    0.127022
    38  C    0.046036
    39  O   -0.187468
    40  C   -0.006270
    41  C    0.215640
    42  O   -0.259328
    43  O   -0.303691
    44  C    0.157512
    45  H   -0.017697
    46  H   -0.016501
    47  H   -0.040854
    48  H    0.001103
    49  H   -0.004796
    50  H    0.025761
    51  H    0.017148
    52  H    0.016796
    53  H    0.010263
    54  H    0.046614
    55  H    0.019743
    56  H    0.018062
    57  H    0.005108
    58  H    0.027327
    59  H    0.039549
    60  H    0.036701
    61  H    0.037030
    62  H    0.032923
    63  H    0.016205
    64  H    0.009922
    65  H    0.023413
    66  H    0.012756
    67  H    0.005088
    68  H    0.006196
    69  H    0.005416
    70  H    0.007357
    71  H    0.017245
    72  H    0.030987
    73  H    0.049426
    74  H    0.009604
    75  H    0.046080
    76  H    0.035811
    77  H    0.044723
    78  H    0.045945
    79  H    0.052052
    80  Mg   0.836395
    81  C   -0.016171
    82  C   -0.088232
    83  C   -0.046443
    84  C   -0.066115
    85  N   -0.255252
    86  C   -0.046669
    87  C   -0.015443
    88  C   -0.092100
    89  C    0.046733
    90  C    0.111395
    91  C    0.062547
    92  C   -0.076796
    93  H    0.032788
    94  N   -0.423380
    95  C    0.162942
    96  C   -0.176200
    97  C   -0.008934
    98  C    0.152018
    99  C    0.100364
   100  C    0.014254
   101  O   -0.253782
   102  C    0.061642
   103  N   -0.350537
   104  C    0.037668
   105  C   -0.019915
   106  C   -0.034566
   107  C    0.089475
   108  C    0.073459
   109  C    0.034870
   110  C   -0.007504
   111  N   -0.324445
   112  C    0.079287
   113  C   -0.163764
   114  C    0.003379
   115  C    0.095855
   116  C    0.131181
   117  C    0.042914
   118  O   -0.187422
   119  C    0.000335
   120  C    0.210343
   121  O   -0.252561
   122  O   -0.303396
   123  C    0.152681
   124  H   -0.021387
   125  H   -0.016334
   126  H   -0.041912
   127  H    0.006164
   128  H   -0.008103
   129  H    0.041960
   130  H    0.008713
   131  H    0.013182
   132  H    0.012383
   133  H    0.036849
   134  H    0.021707
   135  H    0.017860
   136  H    0.007968
   137  H    0.022959
   138  H    0.038961
   139  H    0.036342
   140  H    0.035513
   141  H    0.033940
   142  H    0.013592
   143  H    0.011733
   144  H    0.025188
   145  H    0.013688
   146  H    0.005514
   147  H    0.005817
   148  H    0.002712
   149  H    0.010752
   150  H    0.017210
   151  H    0.030479
   152  H    0.045811
   153  H    0.007336
   154  H    0.046414
   155  H    0.043626
   156  H    0.043903
   157  H    0.048828
   158  H    0.052302
 Sum of Mulliken charges =  -0.00000

 Dipole moment (field-independent basis, Debye):
    X=             -5.4298    Y=             -1.3469    Z=             -6.5817  Tot=              8.6380
 Quadrupole moment (field-independent basis, Debye-Ang):
   XX=           -519.0619   YY=           -544.1904   ZZ=           -455.5292
   XY=             -5.0024   XZ=              0.4999   YZ=            -44.0837

 Normal termination of Gaussian 16 at Fri Sep  3 15:01:18 2021.
