 Gaussian 16, Revision A.03,
 Gaussian 16:  ES64L-G16RevA.03 25-Dec-2016

 -----------------------------------
 #p cam-b3lyp/Def2SVP td=(nstates=5)
 -----------------------------------

 --------------------------------
 TDDFT excited states in gaussian
 --------------------------------
 Symbolic Z-matrix:
 Charge =  0 Multiplicity = 1

                         Standard orientation:
 ---------------------------------------------------------------------
 Center     Atomic      Atomic             Coordinates (Angstroms)
 Number     Number       Type             X           Y           Z
 ---------------------------------------------------------------------
      1         12           0        4.219237    0.741172   -0.262645
      2          6           0        4.609225   -2.512035   -1.703744
      3          6           0        4.901732    2.026908   -3.348766
      4          6           0        4.328764    3.613079    1.077794
      5          6           0        4.692152   -0.744597    2.854165
      6          7           0        4.678871   -0.222437   -2.201934
      7          6           0        4.738760   -1.478232   -2.633861
      8          6           0        4.876855   -1.593361   -4.181455
      9          6           0        5.519029   -0.165701   -4.483779
     10          6           0        4.972976    0.603211   -3.293601
     11          6           0        7.042836   -0.156617   -4.417212
     12          6           0        3.491167   -1.760158   -4.891229
     13          6           0        3.556300   -2.203927   -6.355531
     14          1           0        2.524702   -3.095565   -6.863599
     15          7           0        4.082551    2.538491   -1.071230
     16          6           0        4.386128    2.877706   -2.347185
     17          6           0        4.117674    4.327623   -2.458331
     18          6           0        3.814673    4.840231   -1.093224
     19          6           0        4.092469    3.674610   -0.293514
     20          6           0        4.115779    5.066567   -3.761292
     21          6           0        3.358784    6.172672   -0.588350
     22          8           0        3.379082    6.472422    0.654354
     23          6           0        2.965974    7.162196   -1.607950
     24          7           0        4.690966    1.392019    1.663882
     25          6           0        4.603329    2.684597    1.996369
     26          6           0        4.710710    2.875166    3.480314
     27          6           0        4.646821    1.413285    4.119512
     28          6           0        4.592826    0.585960    2.811503
     29          6           0        5.974852    3.592843    3.973158
     30          6           0        3.560732    1.163245    5.195760
     31          6           0        2.188128    1.226323    4.564035
     32          7           0        4.410510   -1.283950    0.494548
     33          6           0        4.623699   -1.669694    1.825873
     34          6           0        4.793922   -3.134303    1.829297
     35          6           0        4.683723   -3.499289    0.488966
     36          6           0        4.485098   -2.333479   -0.304587
     37          6           0        5.075735   -3.937859    2.969171
     38          6           0        4.712159   -4.600321   -0.460127
     39          8           0        4.754428   -5.827658   -0.363435
     40          6           0        4.786831   -3.992814   -1.930224
     41          6           0        3.759939   -4.704064   -2.768630
     42          8           0        2.540582   -4.558892   -2.546235
     43          8           0        4.359316   -5.248403   -3.838670
     44          6           0        3.391467   -5.944500   -4.727980
     45          1           0        5.332127    2.544004   -4.208600
     46          1           0        4.264580    4.572837    1.594691
     47          1           0        4.758977   -1.286775    3.799168
     48          1           0        5.547966   -2.382760   -4.520399
     49          1           0        5.144365    0.260239   -5.414329
     50          1           0        7.431038   -1.104803   -4.045509
     51          1           0        7.299524    0.653685   -3.734559
     52          1           0        7.471070    0.117221   -5.381787
     53          1           0        3.030308   -0.780145   -5.014694
     54          1           0        2.852692   -2.446931   -4.334437
     55          1           0        4.546822   -2.578918   -6.614678
     56          1           0        3.426584   -1.323696   -6.985266
     57          1           0        4.534719    4.462333   -4.564994
     58          1           0        4.811408    5.898905   -3.656303
     59          1           0        3.125916    5.444780   -4.017139
     60          1           0        3.809621    7.347943   -2.273012
     61          1           0        2.584144    8.023009   -1.060176
     62          1           0        2.175566    6.736654   -2.226916
     63          1           0        3.879104    3.467558    3.859694
     64          1           0        5.579458    1.142408    4.614979
     65          1           0        5.769240    4.486279    4.563244
     66          1           0        6.587838    3.830582    3.104239
     67          1           0        6.655435    2.971957    4.555159
     68          1           0        3.598202    1.939127    5.959664
     69          1           0        3.664074    0.200188    5.695852
     70          1           0        1.973468    2.294339    4.554333
     71          1           0        1.463006    0.687895    5.175186
     72          1           0        2.211044    0.889137    3.527566
     73          1           0        4.435789   -4.816478    2.888747
     74          1           0        4.886606   -3.393371    3.894031
     75          1           0        6.134890   -4.143187    2.814621
     76          1           0        5.800522   -4.166354   -2.289997
     77          1           0        3.742662   -6.969846   -4.844434
     78          1           0        3.303055   -5.334730   -5.627295
     79          1           0        2.395268   -6.113534   -4.317670
     80         12           0       -4.738832    0.098095    0.034267
     81          6           0       -2.977042   -1.309104    2.826202
     82          6           0       -3.993753    3.174235    1.305828
     83          6           0       -6.657735    1.358498   -2.155861
     84          6           0       -6.285410   -2.998382   -0.372651
     85          7           0       -3.622794    0.722480    1.838941
     86          6           0       -2.945476    0.100605    2.792280
     87          6           0       -2.125986    1.040468    3.716751
     88          6           0       -2.974286    2.387207    3.503322
     89          6           0       -3.541994    2.100992    2.114628
     90          6           0       -4.134929    2.527612    4.474171
     91          6           0       -0.643699    1.212345    3.231695
     92          6           0        0.294697    1.863836    4.249888
     93          1           0        1.682244    1.412154    4.306191
     94          7           0       -4.856832    1.955850   -0.653789
     95          6           0       -4.488379    3.085504   -0.013948
     96          6           0       -4.795673    4.189114   -0.936873
     97          6           0       -5.527427    3.632142   -2.106930
     98          6           0       -5.731773    2.267305   -1.664715
     99          6           0       -4.331111    5.597507   -0.704454
    100          6           0       -5.980923    4.232359   -3.403180
    101          8           0       -6.808762    3.627328   -4.172239
    102          6           0       -5.500079    5.589407   -3.701030
    103          7           0       -6.406155   -0.634041   -0.968910
    104          6           0       -7.024045    0.100330   -1.910632
    105          6           0       -8.018939   -0.730967   -2.684935
    106          6           0       -7.765592   -2.241905   -2.226196
    107          6           0       -6.681050   -2.002082   -1.153050
    108          6           0       -9.490380   -0.375153   -2.473670
    109          6           0       -7.480176   -3.279129   -3.346633
    110          6           0       -6.146522   -2.984860   -3.994804
    111          7           0       -4.534763   -1.868781    0.904783
    112          6           0       -5.300973   -3.016992    0.607104
    113          6           0       -4.869218   -4.081388    1.536129
    114          6           0       -3.890201   -3.466961    2.331417
    115          6           0       -3.737905   -2.109361    1.939957
    116          6           0       -5.405425   -5.398440    1.599203
    117          6           0       -2.958500   -3.655158    3.420099
    118          8           0       -2.584193   -4.619455    4.086258
    119          6           0       -2.415764   -2.231412    3.872600
    120          6           0       -0.919468   -2.322581    3.996347
    121          8           0       -0.213450   -2.525195    2.992806
    122          8           0       -0.555681   -1.941356    5.234365
    123          6           0        0.920686   -2.004265    5.402375
    124          1           0       -4.011361    4.176135    1.735666
    125          1           0       -7.268792    1.711930   -2.989625
    126          1           0       -6.649817   -4.019950   -0.500249
    127          1           0       -2.127462    0.762105    4.763795
    128          1           0       -2.328458    3.261075    3.478562
    129          1           0       -4.269500    1.638747    5.072474
    130          1           0       -5.009486    2.708248    3.862974
    131          1           0       -4.006294    3.423386    5.088461
    132          1           0       -0.612493    1.968520    2.436727
    133          1           0       -0.235518    0.272741    2.913624
    134          1           0       -0.142189    1.889544    5.255585
    135          1           0        0.417960    2.916572    3.984244
    136          1           0       -3.959081    5.734740    0.318364
    137          1           0       -5.216846    6.239603   -0.759743
    138          1           0       -3.606161    5.930414   -1.450292
    139          1           0       -5.813203    6.265446   -2.908946
    140          1           0       -5.857117    5.811384   -4.708566
    141          1           0       -4.404409    5.581847   -3.693492
    142          1           0       -7.841802   -0.652856   -3.750589
    143          1           0       -8.637946   -2.660668   -1.703250
    144          1           0      -10.017879   -0.123741   -3.413147
    145          1           0       -9.545364    0.448691   -1.774526
    146          1           0      -10.083717   -1.140389   -1.976115
    147          1           0       -8.232502   -3.201271   -4.135360
    148          1           0       -7.485893   -4.305911   -2.996355
    149          1           0       -6.393148   -2.208699   -4.725442
    150          1           0       -5.752692   -3.874633   -4.481894
    151          1           0       -5.446221   -2.547954   -3.273455
    152          1           0       -4.565080   -6.072163    1.701223
    153          1           0       -5.996482   -5.629813    0.715516
    154          1           0       -6.024327   -5.314286    2.496509
    155          1           0       -2.891017   -1.986664    4.823285
    156          1           0        1.116670   -2.642897    6.269220
    157          1           0        1.259363   -0.952973    5.464399
    158          1           0        1.491527   -2.510911    4.633029
 ---------------------------------------------------------------------

 SCF Done:  E(RCAM-B3LYP) =  -4068.95809597     A.U. after   25 cycles

 Excitation energies and oscillator strengths:

 Excited State   1:      Singlet-A      0.5562 eV 2229.17 nm  f=0.0200  <S**2>=0.000
     312 -> 313        0.70331
 This state for optimization and/or second-order correction.
 Total Energy, E(TD-HF/TD-DFT) =  -4068.93765635
 Copying the excited state density for this state as the 1-particle RhoCI density.

 Excited State   2:      Singlet-A      1.0633 eV 1166.00 nm  f=0.0325  <S**2>=0.000
     312 -> 314        0.65149
     312 -> 318       -0.22581

 Excited State   3:      Singlet-A      1.1344 eV 1092.97 nm  f=0.0206  <S**2>=0.000
     312 -> 314        0.26841
     312 -> 315        0.23999
     312 -> 318        0.55817
     312 -> 320       -0.14651
     312 -> 321       -0.10979

 Excited State   4:      Singlet-A      1.6494 eV  751.70 nm  f=0.0565  <S**2>=0.000
     309 -> 317        0.13706
     310 -> 313       -0.34272
     311 -> 314        0.59641

 Excited State   5:      Singlet-A      1.7164 eV  722.36 nm  f=0.6266  <S**2>=0.000
     308 -> 315        0.15492
     310 -> 313        0.59198
     311 -> 314        0.33980

 The electronic state is 1-A.
 Alpha  occ. eigenvalues --  -46.88504 -46.86439 -19.26370 -19.26266 -19.19382
 Alpha  occ. eigenvalues --  -19.19090 -19.18681 -19.18503 -19.17862 -19.17181
 Alpha  occ. eigenvalues --  -14.43081 -14.42446 -14.40878 -14.40245 -14.40076
 Alpha  occ. eigenvalues --  -14.39219 -14.38201 -14.37466 -10.39194 -10.38599
 Alpha  occ. eigenvalues --  -10.36006 -10.34723 -10.34558 -10.33348 -10.32506
 Alpha  occ. eigenvalues --  -10.32324 -10.32013 -10.31705 -10.31477 -10.31442
 Alpha  occ. eigenvalues --  -10.31241 -10.31215 -10.30971 -10.30824 -10.30265
 Alpha  occ. eigenvalues --  -10.29948 -10.29896 -10.29786 -10.29349 -10.29314
 Alpha  occ. eigenvalues --  -10.29274 -10.29150 -10.29134 -10.29130 -10.28927
 Alpha  occ. eigenvalues --  -10.28813 -10.28684 -10.28548 -10.28403 -10.28383
 Alpha  occ. eigenvalues --  -10.28375 -10.28279 -10.28203 -10.27993 -10.27962
 Alpha  occ. eigenvalues --  -10.27495 -10.27301 -10.27244 -10.27009 -10.26935
 Alpha  occ. eigenvalues --  -10.26878 -10.26844 -10.26687 -10.26645 -10.26567
 Alpha  occ. eigenvalues --  -10.26535 -10.26399 -10.26356 -10.26314 -10.26215
 Alpha  occ. eigenvalues --  -10.26171 -10.25863 -10.25781 -10.25758 -10.25621
 Alpha  occ. eigenvalues --  -10.25428 -10.25320 -10.25011 -10.24877 -10.24658
 Alpha  occ. eigenvalues --  -10.24307 -10.24050 -10.23871 -10.23597 -10.22801
 Alpha  occ. eigenvalues --  -10.14487  -3.17242  -3.15192  -1.92120  -1.91715
 Alpha  occ. eigenvalues --   -1.91551  -1.90077  -1.89657  -1.89503  -1.16723
 Alpha  occ. eigenvalues --   -1.16468  -1.08926  -1.07837  -1.07781  -1.06721
 Alpha  occ. eigenvalues --   -1.06495  -1.06133  -1.05577  -1.05166  -1.04584
 Alpha  occ. eigenvalues --   -1.03941  -1.03123  -1.03092  -1.02336  -1.01943
 Alpha  occ. eigenvalues --   -1.00958  -0.92571  -0.90900  -0.90718  -0.89623
 Alpha  occ. eigenvalues --   -0.89487  -0.88550  -0.88422  -0.88355  -0.87847
 Alpha  occ. eigenvalues --   -0.87360  -0.87067  -0.86695  -0.86158  -0.85807
 Alpha  occ. eigenvalues --   -0.85494  -0.84609  -0.83512  -0.83115  -0.83100
 Alpha  occ. eigenvalues --   -0.82879  -0.82142  -0.81954  -0.81481  -0.81069
 Alpha  occ. eigenvalues --   -0.80229  -0.79366  -0.78992  -0.77600  -0.77562
 Alpha  occ. eigenvalues --   -0.77207  -0.76325  -0.76284  -0.75508  -0.75297
 Alpha  occ. eigenvalues --   -0.74055  -0.73330  -0.72936  -0.72413  -0.71399
 Alpha  occ. eigenvalues --   -0.70416  -0.69544  -0.68917  -0.68363  -0.68198
 Alpha  occ. eigenvalues --   -0.67534  -0.67292  -0.66594  -0.65643  -0.65392
 Alpha  occ. eigenvalues --   -0.65168  -0.64704  -0.64363  -0.63697  -0.63231
 Alpha  occ. eigenvalues --   -0.63117  -0.62786  -0.62003  -0.61656  -0.60690
 Alpha  occ. eigenvalues --   -0.60297  -0.59864  -0.59428  -0.59363  -0.58866
 Alpha  occ. eigenvalues --   -0.58491  -0.58135  -0.57827  -0.57557  -0.57305
 Alpha  occ. eigenvalues --   -0.57207  -0.56780  -0.56404  -0.56286  -0.56060
 Alpha  occ. eigenvalues --   -0.55988  -0.55400  -0.55189  -0.54967  -0.54618
 Alpha  occ. eigenvalues --   -0.54309  -0.54287  -0.54003  -0.53797  -0.53681
 Alpha  occ. eigenvalues --   -0.53391  -0.53174  -0.53006  -0.52388  -0.52356
 Alpha  occ. eigenvalues --   -0.52306  -0.52025  -0.51986  -0.51935  -0.51628
 Alpha  occ. eigenvalues --   -0.51604  -0.51102  -0.51012  -0.50970  -0.50426
 Alpha  occ. eigenvalues --   -0.50374  -0.50319  -0.49992  -0.49655  -0.49631
 Alpha  occ. eigenvalues --   -0.49522  -0.49411  -0.49078  -0.48976  -0.48964
 Alpha  occ. eigenvalues --   -0.48877  -0.48691  -0.48362  -0.48158  -0.48020
 Alpha  occ. eigenvalues --   -0.48002  -0.47869  -0.47727  -0.47504  -0.47286
 Alpha  occ. eigenvalues --   -0.47182  -0.46951  -0.46845  -0.46792  -0.46462
 Alpha  occ. eigenvalues --   -0.46236  -0.46217  -0.45902  -0.45508  -0.45259
 Alpha  occ. eigenvalues --   -0.45200  -0.45010  -0.44903  -0.44803  -0.44642
 Alpha  occ. eigenvalues --   -0.44516  -0.44465  -0.44464  -0.44176  -0.44001
 Alpha  occ. eigenvalues --   -0.43917  -0.43626  -0.43537  -0.43443  -0.43342
 Alpha  occ. eigenvalues --   -0.43243  -0.42984  -0.42896  -0.42773  -0.42700
 Alpha  occ. eigenvalues --   -0.42287  -0.42154  -0.42053  -0.42018  -0.41730
 Alpha  occ. eigenvalues --   -0.41675  -0.41357  -0.41307  -0.41211  -0.41024
 Alpha  occ. eigenvalues --   -0.40867  -0.40522  -0.40406  -0.40133  -0.39813
 Alpha  occ. eigenvalues --   -0.39687  -0.39596  -0.38646  -0.38530  -0.38293
 Alpha  occ. eigenvalues --   -0.37970  -0.37902  -0.37638  -0.37470  -0.37052
 Alpha  occ. eigenvalues --   -0.36558  -0.36377  -0.36284  -0.36010  -0.35494
 Alpha  occ. eigenvalues --   -0.35045  -0.34990  -0.34089  -0.33789  -0.33317
 Alpha  occ. eigenvalues --   -0.32923  -0.32053  -0.31954  -0.31774  -0.30425
 Alpha  occ. eigenvalues --   -0.30359  -0.30040  -0.29827  -0.29773  -0.29078
 Alpha  occ. eigenvalues --   -0.28301  -0.28181  -0.24834  -0.22875  -0.21976
 Alpha  occ. eigenvalues --   -0.19926  -0.16568
 Alpha virt. eigenvalues --   -0.09466  -0.07698  -0.02732  -0.00607  -0.00547
 Alpha virt. eigenvalues --   -0.00092   0.01109   0.01739   0.03094   0.03212
 Alpha virt. eigenvalues --    0.04064   0.04392   0.04941   0.05723   0.05797

 Mulliken charges:
               1
     1  Mg   0.846395
     2  C    0.000617
     3  C   -0.090885
     4  C   -0.045566
     5  C   -0.064088
     6  N   -0.256233
     7  C   -0.050607
     8  C   -0.014447
     9  C   -0.087580
    10  C    0.047142
    11  C    0.104434
    12  C    0.052986
    13  C   -0.072949
    14  H    0.039396
    15  N   -0.433445
    16  C    0.168994
    17  C   -0.175379
    18  C   -0.003456
    19  C    0.150897
    20  C    0.109718
    21  C    0.013943
    22  O   -0.250181
    23  C    0.061838
    24  N   -0.335473
    25  C    0.037355
    26  C   -0.039232
    27  C   -0.039963
    28  C    0.048737
    29  C    0.075383
    30  C    0.252964
    31  C    1.359474
    32  N   -0.312172
    33  C    0.083715
    34  C   -0.160851
    35  C    0.010730
    36  C    0.088692
    37  C    0.125645
    38  C    0.051002
    39  O   -0.183745
    40  C   -0.007479
    41  C    0.212853
    42  O   -0.251393
    43  O   -0.305785
    44  C    0.157002
    45  H   -0.015230
    46  H   -0.017440
    47  H   -0.047548
    48  H    0.002414
    49  H   -0.002076
    50  H    0.026283
    51  H    0.015720
    52  H    0.018356
    53  H    0.012140
    54  H    0.046958
    55  H    0.017715
    56  H    0.018463
    57  H    0.007337
    58  H    0.027886
    59  H    0.041755
    60  H    0.038147
    61  H    0.036617
    62  H    0.032670
    63  H    0.016512
    64  H    0.020161
    65  H    0.027167
    66  H    0.019858
    67  H    0.007477
    68  H    0.023730
    69  H    0.000266
    70  H    0.289311
    71  H    0.204559
    72  H    0.259905
    73  H    0.055943
    74  H    0.002608
    75  H    0.047064
    76  H    0.036044
    77  H    0.043526
    78  H    0.046130
    79  H    0.056124
    80  Mg   0.832216
    81  C   -0.019890
    82  C   -0.088638
    83  C   -0.048023
    84  C   -0.068048
    85  N   -0.259879
    86  C   -0.042998
    87  C    0.003343
    88  C   -0.081316
    89  C    0.049351
    90  C    0.117980
    91  C    0.134499
    92  C   -0.328374
    93  H   -1.789310
    94  N   -0.422586
    95  C    0.162101
    96  C   -0.176790
    97  C   -0.010656
    98  C    0.151469
    99  C    0.100202
   100  C    0.012984
   101  O   -0.256335
   102  C    0.062722
   103  N   -0.350454
   104  C    0.036672
   105  C   -0.018938
   106  C   -0.034378
   107  C    0.089123
   108  C    0.074713
   109  C    0.035496
   110  C   -0.007118
   111  N   -0.324055
   112  C    0.079532
   113  C   -0.163926
   114  C    0.001372
   115  C    0.097837
   116  C    0.131509
   117  C    0.042268
   118  O   -0.192257
   119  C    0.001170
   120  C    0.216673
   121  O   -0.247962
   122  O   -0.304145
   123  C    0.191926
   124  H   -0.021168
   125  H   -0.019062
   126  H   -0.043650
   127  H   -0.016707
   128  H   -0.006058
   129  H    0.016523
   130  H    0.006773
   131  H    0.011035
   132  H   -0.011098
   133  H   -0.019785
   134  H   -0.054915
   135  H   -0.063455
   136  H    0.010293
   137  H    0.023208
   138  H    0.034448
   139  H    0.037687
   140  H    0.032829
   141  H    0.030701
   142  H    0.011888
   143  H    0.010444
   144  H    0.022450
   145  H    0.011367
   146  H    0.003726
   147  H    0.003670
   148  H    0.002452
   149  H    0.009091
   150  H    0.015693
   151  H    0.032266
   152  H    0.045203
   153  H    0.007011
   154  H    0.044765
   155  H    0.033793
   156  H    0.044368
   157  H   -0.023318
   158  H    0.052900
 Sum of Mulliken charges =  -0.00000

 Dipole moment (field-independent basis, Debye):
    X=              7.3812    Y=              6.0226    Z=             -1.7232  Tot=              9.6811
 Quadrupole moment (field-independent basis, Debye-Ang):
   XX=           -489.4350   YY=           -534.7304   ZZ=           -464.2063
   XY=             25.0246   XZ=             -4.2824   YZ=             17.1656

 Normal termination of Gaussian 16 at Thu Sep  9 20:19:22 2021.
