 Gaussian 16, Revision A.03,
 Gaussian 16:  ES64L-G16RevA.03 25-Dec-2016

 -----------------------------------
 #p cam-b3lyp/Def2SVP td=(nstates=5)
 -----------------------------------

 --------------------------------
 TDDFT excited states in gaussian
 --------------------------------
 Symbolic Z-matrix:
 Charge =  0 Multiplicity = 1

                         Standard orientation:
 ---------------------------------------------------------------------
 Center     Atomic      Atomic             Coordinates (Angstroms)
 Number     Number       Type             X           Y           Z
 ---------------------------------------------------------------------
      1         12           0        5.279942   -0.603721    0.703673
      2          6           0        5.778200    2.075820   -1.616675
      3          6           0        5.805817    1.660052    3.202043
      4          6           0        5.295270   -3.027427    2.748676
      5          6           0        5.918014   -2.801779   -1.924456
      6          7           0        5.724555    1.564657    0.670494
      7          6           0        5.830210    2.485465   -0.282459
      8          6           0        5.925882    3.938837    0.270651
      9          6           0        6.490485    3.617413    1.726641
     10          6           0        5.945707    2.209783    1.893128
     11          6           0        8.013499    3.565557    1.791769
     12          6           0        4.528402    4.641632    0.340375
     13          6           0        4.569271    6.157175    0.556740
     14          1           0        3.565670    6.984941   -0.095132
     15          7           0        5.033927   -0.627814    2.663711
     16          6           0        5.281777    0.389279    3.523582
     17          6           0        4.942032   -0.122307    4.868771
     18          6           0        4.657376   -1.578771    4.743167
     19          6           0        5.014248   -1.811348    3.366966
     20          6           0        4.865233    0.748573    6.085086
     21          6           0        4.154984   -2.601215    5.712879
     22          8           0        4.199375   -3.854443    5.463836
     23          6           0        3.684807   -2.095997    7.015466
     24          7           0        5.779555   -2.621343    0.510740
     25          6           0        5.641405   -3.467656    1.537215
     26          6           0        5.785308   -4.893054    1.092837
     27          6           0        5.810052   -4.858114   -0.503384
     28          6           0        5.754858   -3.323880   -0.706729
     29          6           0        7.028809   -5.631910    1.606457
     30          6           0        4.770583   -5.737928   -1.242201
     31          6           0        3.377740   -5.202571   -0.996272
     32          7           0        5.589606   -0.436693   -1.438114
     33          6           0        5.861599   -1.480240   -2.334609
     34          6           0        6.100647   -0.865554   -3.653353
     35          6           0        5.966565    0.502958   -3.427426
     36          6           0        5.688919    0.730511   -2.049231
     37          6           0        6.454943   -1.559038   -4.844146
     38          6           0        6.017610    1.827488   -4.024813
     39          8           0        6.120601    2.256674   -5.174893
     40          6           0        6.018306    2.905913   -2.853137
     41          6           0        5.000741    3.957441   -3.202650
     42          8           0        3.783322    3.684729   -3.232399
     43          8           0        5.591878    5.162011   -3.213165
     44          6           0        4.630983    6.253814   -3.524293
     45          1           0        6.184710    2.225851    4.055421
     46          1           0        5.201887   -3.900752    3.397538
     47          1           0        6.039355   -3.430248   -2.808626
     48          1           0        6.622682    4.583962   -0.264800
     49          1           0        6.067713    4.279198    2.482304
     50          1           0        8.457188    3.630601    0.798376
     51          1           0        8.252622    2.607381    2.253518
     52          1           0        8.398471    4.328728    2.468632
     53          1           0        4.018311    4.337431    1.254338
     54          1           0        3.940423    4.420444   -0.551075
     55          1           0        5.567912    6.558093    0.380985
     56          1           0        4.378917    6.356882    1.611293
     57          1           0        5.287237    1.735298    5.898451
     58          1           0        5.523785    0.308670    6.833753
     59          1           0        3.851249    0.813446    6.480002
     60          1           0        4.497901   -1.564069    7.509915
     61          1           0        3.279893   -2.958260    7.544045
     62          1           0        2.896648   -1.361850    6.845815
     63          1           0        4.938790   -5.493243    1.423906
     64          1           0        6.769219   -5.185982   -0.904850
     65          1           0        6.799599   -6.544855    2.156637
     66          1           0        7.602884   -4.938817    2.220747
     67          1           0        7.755472   -5.893005    0.837556
     68          1           0        4.794956   -6.757096   -0.857950
     69          1           0        4.934515   -5.785393   -2.318827
     70          1           0        3.112814   -5.645008   -0.036639
     71          1           0        2.697938   -5.536205   -1.780981
     72          1           0        3.384606   -4.120310   -0.865319
     73          1           0        5.854923   -1.121487   -5.641951
     74          1           0        6.268930   -2.628656   -4.749704
     75          1           0        7.517337   -1.323849   -4.906294
     76          1           0        7.027493    3.313511   -2.802863
     77          1           0        5.026335    6.793832   -4.384706
     78          1           0        4.486311    6.812217   -2.599274
     79          1           0        3.656951    5.944697   -3.905146
     80         12           0       -5.199038   -0.680165   -0.722002
     81          6           0       -6.145962    1.807662    1.684887
     82          6           0       -5.400651    1.757626   -3.099219
     83          6           0       -4.809241   -2.932366   -2.922701
     84          6           0       -6.174807   -3.093634    1.595061
     85          7           0       -5.715736    1.466984   -0.599390
     86          6           0       -5.997886    2.315790    0.377475
     87          6           0       -6.049648    3.804545   -0.058984
     88          6           0       -6.371987    3.587268   -1.617107
     89          6           0       -5.762828    2.198874   -1.801439
     90          6           0       -7.859086    3.500113   -1.917569
     91          6           0       -4.676805    4.535891    0.147033
     92          6           0       -4.737212    6.060807    0.034145
     93          1           0       -3.869413    6.857540    0.897053
     94          7           0       -4.641951   -0.537049   -2.621409
     95          6           0       -4.778012    0.534225   -3.430804
     96          6           0       -4.232190    0.125492   -4.734331
     97          6           0       -3.913729   -1.327010   -4.674928
     98          6           0       -4.474239   -1.667114   -3.382547
     99          6           0       -3.985081    1.095235   -5.853245
    100          6           0       -3.230595   -2.258777   -5.629562
    101          8           0       -3.273924   -3.530573   -5.476352
    102          6           0       -2.588553   -1.643199   -6.800176
    103          7           0       -5.650086   -2.709356   -0.758078
    104          6           0       -5.327960   -3.470402   -1.818721
    105          6           0       -5.497165   -4.938511   -1.508202
    106          6           0       -5.769734   -5.016107    0.065732
    107          6           0       -5.800864   -3.506780    0.391882
    108          6           0       -6.624389   -5.650889   -2.255372
    109          6           0       -4.832000   -5.932974    0.898016
    110          6           0       -3.431947   -5.362858    0.911828
    111          7           0       -5.838980   -0.686227    1.341613
    112          6           0       -6.224289   -1.805290    2.111892
    113          6           0       -6.687273   -1.295606    3.418907
    114          6           0       -6.559848    0.097310    3.309190
    115          6           0       -6.072282    0.433331    2.017346
    116          6           0       -7.192392   -2.086947    4.488833
    117          6           0       -6.736983    1.360458    3.988730
    118          8           0       -7.039588    1.696345    5.133001
    119          6           0       -6.596580    2.531544    2.923250
    120          6           0       -5.678259    3.574940    3.498161
    121          8           0       -4.480255    3.315798    3.708499
    122          8           0       -6.308780    4.763550    3.500995
    123          6           0       -5.434297    5.832816    4.052138
    124          1           0       -5.654412    2.388703   -3.951408
    125          1           0       -4.588910   -3.755957   -3.605808
    126          1           0       -6.402622   -3.788503    2.406185
    127          1           0       -6.836097    4.387074    0.405699
    128          1           0       -5.852498    4.316464   -2.233358
    129          1           0       -8.451949    3.480362   -1.015210
    130          1           0       -7.992742    2.584205   -2.478203
    131          1           0       -8.156100    4.310664   -2.589233
    132          1           0       -4.019914    4.310449   -0.702922
    133          1           0       -4.235210    4.260194    1.084905
    134          1           0       -5.766931    6.436493    0.072469
    135          1           0       -4.383323    6.349574   -0.958531
    136          1           0       -4.470343    2.060586   -5.663434
    137          1           0       -4.499324    0.701805   -6.736787
    138          1           0       -2.923898    1.210518   -6.084074
    139          1           0       -3.331170   -1.089790   -7.370016
    140          1           0       -2.078327   -2.458817   -7.316255
    141          1           0       -1.851088   -0.912058   -6.450608
    142          1           0       -4.592375   -5.488689   -1.735700
    143          1           0       -6.774207   -5.406103    0.286559
    144          1           0       -6.277465   -6.524798   -2.838454
    145          1           0       -7.113231   -4.933056   -2.900579
    146          1           0       -7.445999   -5.997010   -1.630583
    147          1           0       -4.760366   -6.920679    0.436003
    148          1           0       -5.166094   -6.078866    1.919821
    149          1           0       -3.009162   -5.723896   -0.030507
    150          1           0       -2.872949   -5.740525    1.765600
    151          1           0       -3.452441   -4.267811    0.865811
    152          1           0       -6.745401   -1.704613    5.396857
    153          1           0       -6.964255   -3.141115    4.345788
    154          1           0       -8.262181   -1.882051    4.394799
    155          1           0       -7.596315    2.924903    2.735164
    156          1           0       -5.981061    6.298819    4.877708
    157          1           0       -5.173859    6.478451    3.192453
    158          1           0       -4.521168    5.526910    4.549214
 ---------------------------------------------------------------------

 SCF Done:  E(RCAM-B3LYP) =  -4069.81230355     A.U. after   19 cycles

 Excitation energies and oscillator strengths:

 Excited State   1:      Singlet-A      1.6576 eV  747.96 nm  f=0.0104  <S**2>=0.000
     309 -> 315        0.11366
     310 -> 316        0.12589
     311 -> 313       -0.45936
     312 -> 314        0.51101
 This state for optimization and/or second-order correction.
 Total Energy, E(TD-HF/TD-DFT) =  -4069.75138683
 Copying the excited state density for this state as the 1-particle RhoCI density.

 Excited State   2:      Singlet-A      1.6968 eV  730.70 nm  f=0.7134  <S**2>=0.000
     309 -> 315       -0.13388
     310 -> 316        0.11981
     311 -> 313        0.50916
     312 -> 314        0.45781

 Excited State   3:      Singlet-A      2.1856 eV  567.29 nm  f=0.0216  <S**2>=0.000
     309 -> 313        0.28447
     310 -> 314        0.57712
     311 -> 315        0.11963
     312 -> 316       -0.24404

 Excited State   4:      Singlet-A      2.1952 eV  564.80 nm  f=0.1613  <S**2>=0.000
     309 -> 313        0.57412
     310 -> 314       -0.28197
     311 -> 315        0.25151
     312 -> 316        0.12404

 Excited State   5:      Singlet-A      2.5831 eV  479.98 nm  f=0.0000  <S**2>=0.000
     312 -> 313        0.70709

 The electronic state is 1-A.
 Alpha  occ. eigenvalues --  -46.87667 -46.87506 -19.26320 -19.26298 -19.19119
 Alpha  occ. eigenvalues --  -19.19026 -19.18651 -19.18516 -19.18101 -19.17943
 Alpha  occ. eigenvalues --  -14.42345 -14.42326 -14.41322 -14.41212 -14.39268
 Alpha  occ. eigenvalues --  -14.39189 -14.38468 -14.38453 -10.39077 -10.39043
 Alpha  occ. eigenvalues --  -10.35279 -10.35186 -10.34324 -10.34124 -10.31762
 Alpha  occ. eigenvalues --  -10.31730 -10.31296 -10.31172 -10.30864 -10.30784
 Alpha  occ. eigenvalues --  -10.30453 -10.30385 -10.30252 -10.30215 -10.30063
 Alpha  occ. eigenvalues --  -10.29978 -10.29805 -10.29765 -10.29504 -10.29266
 Alpha  occ. eigenvalues --  -10.29242 -10.29115 -10.28651 -10.28590 -10.28563
 Alpha  occ. eigenvalues --  -10.28475 -10.28250 -10.28243 -10.28012 -10.28007
 Alpha  occ. eigenvalues --  -10.27847 -10.27673 -10.27600 -10.27512 -10.27446
 Alpha  occ. eigenvalues --  -10.27386 -10.27364 -10.27341 -10.27324 -10.27294
 Alpha  occ. eigenvalues --  -10.27291 -10.27288 -10.27254 -10.27201 -10.27099
 Alpha  occ. eigenvalues --  -10.26954 -10.26610 -10.26562 -10.26189 -10.26141
 Alpha  occ. eigenvalues --  -10.26131 -10.26029 -10.26008 -10.25909 -10.25888
 Alpha  occ. eigenvalues --  -10.25785 -10.25759 -10.25745 -10.25324 -10.25292
 Alpha  occ. eigenvalues --  -10.24728 -10.24722 -10.24664 -10.24587 -10.24546
 Alpha  occ. eigenvalues --  -10.24504  -3.16410  -3.16255  -1.91291  -1.91137
 Alpha  occ. eigenvalues --   -1.90878  -1.90726  -1.90720  -1.90563  -1.16644
 Alpha  occ. eigenvalues --   -1.16610  -1.08569  -1.08560  -1.07050  -1.06902
 Alpha  occ. eigenvalues --   -1.06768  -1.06647  -1.04460  -1.04345  -1.03634
 Alpha  occ. eigenvalues --   -1.03511  -1.03108  -1.02889  -1.02287  -1.01962
 Alpha  occ. eigenvalues --   -0.91871  -0.91855  -0.89388  -0.89355  -0.89085
 Alpha  occ. eigenvalues --   -0.89019  -0.88158  -0.88086  -0.87763  -0.87660
 Alpha  occ. eigenvalues --   -0.87552  -0.87537  -0.87114  -0.86913  -0.84875
 Alpha  occ. eigenvalues --   -0.84864  -0.83811  -0.83749  -0.82801  -0.82736
 Alpha  occ. eigenvalues --   -0.82535  -0.82495  -0.81525  -0.81503  -0.80494
 Alpha  occ. eigenvalues --   -0.80314  -0.78656  -0.78458  -0.77098  -0.77000
 Alpha  occ. eigenvalues --   -0.76847  -0.76787  -0.75835  -0.75717  -0.74784
 Alpha  occ. eigenvalues --   -0.74678  -0.72655  -0.72554  -0.71564  -0.71450
 Alpha  occ. eigenvalues --   -0.69765  -0.69623  -0.68762  -0.68688  -0.67526
 Alpha  occ. eigenvalues --   -0.67460  -0.67102  -0.67044  -0.65187  -0.65144
 Alpha  occ. eigenvalues --   -0.64756  -0.64642  -0.64531  -0.64518  -0.64143
 Alpha  occ. eigenvalues --   -0.64071  -0.62247  -0.62192  -0.60295  -0.60160
 Alpha  occ. eigenvalues --   -0.59695  -0.59657  -0.58876  -0.58858  -0.58396
 Alpha  occ. eigenvalues --   -0.58295  -0.57525  -0.57460  -0.57192  -0.57092
 Alpha  occ. eigenvalues --   -0.56199  -0.56062  -0.55935  -0.55794  -0.55391
 Alpha  occ. eigenvalues --   -0.55302  -0.55244  -0.55134  -0.54445  -0.54387
 Alpha  occ. eigenvalues --   -0.53793  -0.53780  -0.53176  -0.53103  -0.53083
 Alpha  occ. eigenvalues --   -0.52999  -0.52829  -0.52779  -0.52603  -0.52459
 Alpha  occ. eigenvalues --   -0.52295  -0.52267  -0.51822  -0.51770  -0.51506
 Alpha  occ. eigenvalues --   -0.51503  -0.51098  -0.51080  -0.50385  -0.50247
 Alpha  occ. eigenvalues --   -0.49891  -0.49814  -0.49777  -0.49718  -0.49395
 Alpha  occ. eigenvalues --   -0.49323  -0.49108  -0.49056  -0.49002  -0.48983
 Alpha  occ. eigenvalues --   -0.48513  -0.48444  -0.48360  -0.48303  -0.48260
 Alpha  occ. eigenvalues --   -0.48155  -0.47576  -0.47447  -0.47173  -0.46960
 Alpha  occ. eigenvalues --   -0.46679  -0.46575  -0.46455  -0.46417  -0.46243
 Alpha  occ. eigenvalues --   -0.46126  -0.46064  -0.45966  -0.45753  -0.45724
 Alpha  occ. eigenvalues --   -0.45079  -0.45078  -0.44496  -0.44399  -0.44369
 Alpha  occ. eigenvalues --   -0.44336  -0.44028  -0.43999  -0.43980  -0.43938
 Alpha  occ. eigenvalues --   -0.43900  -0.43763  -0.43466  -0.43429  -0.43271
 Alpha  occ. eigenvalues --   -0.43257  -0.42921  -0.42853  -0.42777  -0.42674
 Alpha  occ. eigenvalues --   -0.42526  -0.42405  -0.41892  -0.41833  -0.41601
 Alpha  occ. eigenvalues --   -0.41543  -0.41428  -0.41326  -0.41031  -0.40857
 Alpha  occ. eigenvalues --   -0.40755  -0.40667  -0.40580  -0.40521  -0.40449
 Alpha  occ. eigenvalues --   -0.40365  -0.40128  -0.40078  -0.39293  -0.39288
 Alpha  occ. eigenvalues --   -0.38344  -0.38221  -0.37653  -0.37532  -0.37194
 Alpha  occ. eigenvalues --   -0.37157  -0.37130  -0.37059  -0.36710  -0.36679
 Alpha  occ. eigenvalues --   -0.36105  -0.36100  -0.34168  -0.34112  -0.33801
 Alpha  occ. eigenvalues --   -0.33754  -0.33070  -0.33030  -0.31184  -0.31081
 Alpha  occ. eigenvalues --   -0.30916  -0.30826  -0.29965  -0.29852  -0.29316
 Alpha  occ. eigenvalues --   -0.29204  -0.29159  -0.29061  -0.23959  -0.23890
 Alpha  occ. eigenvalues --   -0.21002  -0.20963
 Alpha virt. eigenvalues --   -0.08647  -0.08635  -0.01619  -0.01530   0.00081
 Alpha virt. eigenvalues --    0.00147   0.02300   0.02337   0.03240   0.03458
 Alpha virt. eigenvalues --    0.04827   0.04864   0.05112   0.05223   0.06251

 Mulliken charges:
               1
     1  Mg   0.839442
     2  C   -0.003200
     3  C   -0.093468
     4  C   -0.045801
     5  C   -0.063764
     6  N   -0.256816
     7  C   -0.052585
     8  C   -0.014143
     9  C   -0.087147
    10  C    0.046624
    11  C    0.104825
    12  C    0.053243
    13  C   -0.071386
    14  H    0.034666
    15  N   -0.433257
    16  C    0.169064
    17  C   -0.176278
    18  C   -0.003450
    19  C    0.149023
    20  C    0.110016
    21  C    0.012874
    22  O   -0.249907
    23  C    0.061949
    24  N   -0.341207
    25  C    0.041477
    26  C   -0.028176
    27  C   -0.023883
    28  C    0.074760
    29  C    0.076275
    30  C    0.035134
    31  C   -0.004707
    32  N   -0.310250
    33  C    0.080094
    34  C   -0.170187
    35  C    0.007735
    36  C    0.082732
    37  C    0.127516
    38  C    0.045333
    39  O   -0.189904
    40  C   -0.005135
    41  C    0.212724
    42  O   -0.258039
    43  O   -0.304487
    44  C    0.158235
    45  H   -0.017531
    46  H   -0.016842
    47  H   -0.041615
    48  H    0.000405
    49  H   -0.003700
    50  H    0.025208
    51  H    0.016517
    52  H    0.016558
    53  H    0.012671
    54  H    0.043516
    55  H    0.017546
    56  H    0.018576
    57  H    0.005853
    58  H    0.026583
    59  H    0.041812
    60  H    0.037024
    61  H    0.035690
    62  H    0.033705
    63  H    0.016610
    64  H    0.009127
    65  H    0.023051
    66  H    0.012434
    67  H    0.004580
    68  H    0.005985
    69  H    0.004796
    70  H    0.008351
    71  H    0.019638
    72  H    0.029038
    73  H    0.046484
    74  H    0.009356
    75  H    0.045678
    76  H    0.034959
    77  H    0.042476
    78  H    0.046656
    79  H    0.052244
    80  Mg   0.838430
    81  C   -0.016995
    82  C   -0.086739
    83  C   -0.045556
    84  C   -0.064899
    85  N   -0.254599
    86  C   -0.050045
    87  C   -0.015235
    88  C   -0.090714
    89  C    0.046096
    90  C    0.114403
    91  C    0.062177
    92  C   -0.077394
    93  H    0.033263
    94  N   -0.423674
    95  C    0.163845
    96  C   -0.173357
    97  C   -0.007072
    98  C    0.152366
    99  C    0.099054
   100  C    0.016172
   101  O   -0.253976
   102  C    0.060364
   103  N   -0.350062
   104  C    0.037713
   105  C   -0.019780
   106  C   -0.034639
   107  C    0.088679
   108  C    0.073810
   109  C    0.034828
   110  C   -0.007673
   111  N   -0.323834
   112  C    0.077979
   113  C   -0.163675
   114  C    0.001774
   115  C    0.095846
   116  C    0.131645
   117  C    0.041740
   118  O   -0.189203
   119  C    0.001068
   120  C    0.211176
   121  O   -0.251665
   122  O   -0.305440
   123  C    0.152472
   124  H   -0.019515
   125  H   -0.015788
   126  H   -0.040882
   127  H   -0.001241
   128  H   -0.003853
   129  H    0.022136
   130  H    0.014437
   131  H    0.016122
   132  H    0.015793
   133  H    0.037123
   134  H    0.020342
   135  H    0.020211
   136  H    0.008710
   137  H    0.025662
   138  H    0.043660
   139  H    0.037906
   140  H    0.036061
   141  H    0.037530
   142  H    0.014194
   143  H    0.012000
   144  H    0.024810
   145  H    0.011611
   146  H    0.005422
   147  H    0.005747
   148  H    0.003484
   149  H    0.010495
   150  H    0.018543
   151  H    0.030368
   152  H    0.045175
   153  H    0.008383
   154  H    0.046484
   155  H    0.034708
   156  H    0.043394
   157  H    0.049587
   158  H    0.052503
 Sum of Mulliken charges =  -0.00000

 Dipole moment (field-independent basis, Debye):
    X=              0.7190    Y=              3.0825    Z=              0.0745  Tot=              3.1662
 Quadrupole moment (field-independent basis, Debye-Ang):
   XX=           -494.8236   YY=           -461.2213   ZZ=           -533.7940
   XY=              2.0990   XZ=             48.4068   YZ=              3.8283

 Normal termination of Gaussian 16 at Fri Sep 10 13:02:28 2021.
