 Gaussian 16, Revision A.03,
 Gaussian 16:  ES64L-G16RevA.03 25-Dec-2016

 -----------------------------------
 #p cam-b3lyp/Def2SVP td=(nstates=5)
 -----------------------------------

 --------------------------------
 TDDFT excited states in gaussian
 --------------------------------
 Symbolic Z-matrix:
 Charge =  0 Multiplicity = 1

                         Standard orientation:
 ---------------------------------------------------------------------
 Center     Atomic      Atomic             Coordinates (Angstroms)
 Number     Number       Type             X           Y           Z
 ---------------------------------------------------------------------
      1         12           0        4.471870   -0.564545    1.033139
      2          6           0        5.120897    2.295654   -1.018748
      3          6           0        4.685845    1.509945    3.733837
      4          6           0        4.353674   -3.138007    2.882448
      5          6           0        5.426665   -2.539785   -1.674712
      6          7           0        4.856776    1.608542    1.206881
      7          6           0        5.029895    2.602100    0.340831
      8          6           0        5.029996    4.010106    1.007834
      9          6           0        5.457360    3.588870    2.484965
     10          6           0        4.938422    2.161776    2.490312
     11          6           0        6.967426    3.563208    2.698375
     12          6           0        3.613333    4.676784    0.989460
     13          6           0        3.590315    6.171630    1.321515
     14          1           0        2.632973    7.026592    0.636034
     15          7           0        4.034956   -0.744821    2.951330
     16          6           0        4.168454    0.207730    3.905328
     17          6           0        3.712434   -0.412951    5.167660
     18          6           0        3.482360   -1.860882    4.905632
     19          6           0        3.979280   -1.979247    3.558621
     20          6           0        3.492002    0.359729    6.431829
     21          6           0        2.915780   -2.965135    5.740942
     22          8           0        3.019490   -4.194243    5.404622
     23          6           0        2.305770   -2.571628    7.023940
     24          7           0        5.044269   -2.550656    0.740979
     25          6           0        4.829508   -3.476293    1.682285
     26          6           0        5.056243   -4.859919    1.149267
     27          6           0        5.236945   -4.701416   -0.429332
     28          6           0        5.159144   -3.157511   -0.521926
     29          6           0        6.263345   -5.610696    1.728275
     30          6           0        4.300231   -5.542609   -1.332316
     31          6           0        2.875525   -5.056337   -1.187920
     32          7           0        4.985985   -0.226467   -1.048311
     33          6           0        5.373947   -1.191963   -1.988512
     34          6           0        5.724312   -0.472604   -3.226993
     35          6           0        5.530433    0.871375   -2.913981
     36          6           0        5.112268    0.986194   -1.557424
     37          6           0        6.213315   -1.064766   -4.424764
     38          6           0        5.602951    2.238817   -3.402549
     39          8           0        5.806563    2.757479   -4.501196
     40          6           0        5.458194    3.223405   -2.159385
     41          6           0        4.450952    4.277800   -2.529553
     42          8           0        3.250473    3.983431   -2.701490
     43          8           0        5.006337    5.491392   -2.390684
     44          6           0        4.050564    6.584127   -2.714076
     45          1           0        4.962959    2.015815    4.660792
     46          1           0        4.221357   -4.060518    3.451573
     47          1           0        5.651945   -3.095548   -2.586759
     48          1           0        5.757787    4.708698    0.594658
     49          1           0        4.943944    4.181614    3.241788
     50          1           0        7.504717    3.713746    1.762117
     51          1           0        7.186655    2.577334    3.108843
     52          1           0        7.262435    4.279565    3.465565
     53          1           0        3.024492    4.292628    1.822378
     54          1           0        3.122340    4.513101    0.029533
     55          1           0        4.589799    6.605194    1.277214
     56          1           0        3.291610    6.285445    2.363638
     57          1           0        3.902562    1.366312    6.362722
     58          1           0        4.085734   -0.123113    7.207751
     59          1           0        2.442663    0.373247    6.726852
     60          1           0        3.051070   -2.062971    7.635777
     61          1           0        1.875082   -3.480184    7.443325
     62          1           0        1.517907   -1.842802    6.831494
     63          1           0        4.198375   -5.501001    1.348016
     64          1           0        6.239753   -4.977702   -0.756008
     65          1           0        6.006731   -6.567856    2.182916
     66          1           0        6.754581   -4.955510    2.447100
     67          1           0        7.069155   -5.796810    1.018734
     68          1           0        4.315168   -6.587679   -1.024824
     69          1           0        4.570568   -5.503503   -2.387608
     70          1           0        2.529936   -5.576813   -0.295449
     71          1           0        2.285832   -5.342216   -2.059554
     72          1           0        2.839203   -3.987493   -0.976404
     73          1           0        5.682708   -0.579283   -5.243746
     74          1           0        6.048896   -2.142052   -4.429666
     75          1           0        7.269673   -0.803868   -4.362347
     76          1           0        6.445742    3.646401   -1.977874
     77          1           0        4.513404    7.196877   -3.487737
     78          1           0        3.800016    7.066421   -1.769077
     79          1           0        3.127762    6.285524   -3.212685
     80         12           0       -4.266419   -0.716575   -1.064827
     81          6           0       -6.033072    1.574787    1.058298
     82          6           0       -3.682936    1.909490   -3.161947
     83          6           0       -3.098271   -2.784662   -3.168601
     84          6           0       -5.934568   -3.302189    0.571505
     85          7           0       -4.835042    1.418180   -0.956466
     86          6           0       -5.453076    2.186816   -0.072393
     87          6           0       -5.379869    3.706741   -0.379067
     88          6           0       -5.140889    3.620874   -1.964748
     89          6           0       -4.478860    2.246462   -2.038091
     90          6           0       -6.431193    3.572877   -2.766102
     91          6           0       -4.176656    4.405560    0.346154
     92          6           0       -4.223854    5.935104    0.341954
     93          1           0       -3.722396    6.650148    1.512309
     94          7           0       -3.091401   -0.423767   -2.637134
     95          6           0       -2.960649    0.711439   -3.355108
     96          6           0       -1.991031    0.405602   -4.418331
     97          6           0       -1.684620   -1.049880   -4.369258
     98          6           0       -2.649727   -1.489272   -3.381547
     99          6           0       -1.392004    1.461289   -5.301584
    100          6           0       -0.696345   -1.906856   -5.100761
    101          8           0       -0.765295   -3.186458   -5.074390
    102          6           0        0.297980   -1.203690   -5.924390
    103          7           0       -4.638106   -2.731579   -1.416918
    104          6           0       -3.955384   -3.406284   -2.358498
    105          6           0       -4.192918   -4.893191   -2.244221
    106          6           0       -4.989958   -5.096787   -0.872779
    107          6           0       -5.160765   -3.619009   -0.457577
    108          6           0       -4.979384   -5.531151   -3.389151
    109          6           0       -4.379231   -6.087674    0.155732
    110          6           0       -3.081095   -5.534058    0.697704
    111          7           0       -5.578470   -0.885457    0.643410
    112          6           0       -6.184094   -2.060077    1.140968
    113          6           0       -7.079124   -1.654703    2.244146
    114          6           0       -6.948589   -0.258771    2.297187
    115          6           0       -6.052041    0.177204    1.284457
    116          6           0       -7.906839   -2.526119    3.006806
    117          6           0       -7.373535    0.946128    2.972705
    118          8           0       -8.058582    1.190086    3.965146
    119          6           0       -6.896961    2.199131    2.118724
    120          6           0       -6.253525    3.183092    3.056988
    121          8           0       -5.196777    2.896112    3.646500
    122          8           0       -6.869174    4.373465    2.937218
    123          6           0       -6.259191    5.385577    3.840202
    124          1           0       -3.639396    2.610635   -3.995846
    125          1           0       -2.640052   -3.551622   -3.797315
    126          1           0       -6.414657   -4.058922    1.195638
    127          1           0       -6.289411    4.256783   -0.169372
    128          1           0       -4.454928    4.393061   -2.303202
    129          1           0       -7.298362    3.484994   -2.128578
    130          1           0       -6.345623    2.707284   -3.409890
    131          1           0       -6.493955    4.438515   -3.431729
    132          1           0       -3.262752    4.244181   -0.239912
    133          1           0       -4.080326    4.049770    1.353509
    134          1           0       -5.210679    6.316252    0.052407
    135          1           0       -3.555015    6.300772   -0.440954
    136          1           0       -1.931484    2.412454   -5.214240
    137          1           0       -1.562337    1.146469   -6.336835
    138          1           0       -0.318752    1.584903   -5.141821
    139          1           0       -0.213121   -0.598375   -6.669263
    140          1           0        0.970499   -1.979164   -6.296188
    141          1           0        0.855411   -0.510732   -5.284310
    142          1           0       -3.254731   -5.431549   -2.188686
    143          1           0       -6.001238   -5.493907   -1.044322
    144          1           0       -4.435864   -6.357685   -3.884652
    145          1           0       -5.229498   -4.758244   -4.103703
    146          1           0       -5.959201   -5.919385   -3.116316
    147          1           0       -4.133626   -7.034873   -0.330726
    148          1           0       -5.042301   -6.313534    0.984172
    149          1           0       -2.352408   -5.820767   -0.066435
    150          1           0       -2.843606   -5.985715    1.658762
    151          1           0       -3.105592   -4.438777    0.735364
    152          1           0       -7.807839   -2.223719    4.040854
    153          1           0       -7.623063   -3.567170    2.867317
    154          1           0       -8.882324   -2.303956    2.565969
    155          1           0       -7.777912    2.616133    1.629227
    156          1           0       -7.065988    5.787650    4.460761
    157          1           0       -5.730780    6.096920    3.177973
    158          1           0       -5.567759    5.031256    4.595729
 ---------------------------------------------------------------------

 SCF Done:  E(RCAM-B3LYP) =  -4069.81317515     A.U. after   18 cycles

 Excitation energies and oscillator strengths:

 Excited State   1:      Singlet-A      1.6461 eV  753.21 nm  f=0.0425  <S**2>=0.000
     309 -> 315        0.11556
     310 -> 316       -0.12031
     311 -> 313       -0.47513
     312 -> 314        0.49731
 This state for optimization and/or second-order correction.
 Total Energy, E(TD-HF/TD-DFT) =  -4069.75268297
 Copying the excited state density for this state as the 1-particle RhoCI density.

 Excited State   2:      Singlet-A      1.7052 eV  727.07 nm  f=0.6676  <S**2>=0.000
     309 -> 315       -0.13187
     310 -> 316       -0.12511
     311 -> 313        0.49463
     312 -> 314        0.47276

 Excited State   3:      Singlet-A      2.1855 eV  567.30 nm  f=0.0060  <S**2>=0.000
     309 -> 313        0.38507
     310 -> 314        0.51628
     311 -> 315        0.16166
     312 -> 316        0.21746

 Excited State   4:      Singlet-A      2.1972 eV  564.28 nm  f=0.1699  <S**2>=0.000
     309 -> 313        0.51259
     310 -> 314       -0.38136
     311 -> 315        0.22606
     312 -> 316       -0.16814

 Excited State   5:      Singlet-A      2.4189 eV  512.56 nm  f=0.0000  <S**2>=0.000
     312 -> 313        0.70700

 The electronic state is 1-A.
 Alpha  occ. eigenvalues --  -46.87754 -46.87420 -19.26492 -19.26281 -19.19246
 Alpha  occ. eigenvalues --  -19.19078 -19.18718 -19.18404 -19.18246 -19.17856
 Alpha  occ. eigenvalues --  -14.42415 -14.42259 -14.41393 -14.41124 -14.39354
 Alpha  occ. eigenvalues --  -14.39096 -14.38565 -14.38365 -10.39283 -10.38999
 Alpha  occ. eigenvalues --  -10.35344 -10.35067 -10.34469 -10.34041 -10.31921
 Alpha  occ. eigenvalues --  -10.31735 -10.31397 -10.31087 -10.30878 -10.30763
 Alpha  occ. eigenvalues --  -10.30552 -10.30475 -10.30171 -10.30117 -10.30111
 Alpha  occ. eigenvalues --  -10.29880 -10.29877 -10.29698 -10.29596 -10.29193
 Alpha  occ. eigenvalues --  -10.29153 -10.29130 -10.28761 -10.28607 -10.28543
 Alpha  occ. eigenvalues --  -10.28520 -10.28344 -10.28148 -10.28111 -10.27926
 Alpha  occ. eigenvalues --  -10.27775 -10.27739 -10.27686 -10.27534 -10.27408
 Alpha  occ. eigenvalues --  -10.27390 -10.27360 -10.27352 -10.27343 -10.27318
 Alpha  occ. eigenvalues --  -10.27254 -10.27243 -10.27200 -10.27170 -10.26883
 Alpha  occ. eigenvalues --  -10.26873 -10.26743 -10.26517 -10.26237 -10.26229
 Alpha  occ. eigenvalues --  -10.25951 -10.25950 -10.25947 -10.25925 -10.25872
 Alpha  occ. eigenvalues --  -10.25834 -10.25692 -10.25665 -10.25348 -10.25248
 Alpha  occ. eigenvalues --  -10.24836 -10.24742 -10.24628 -10.24527 -10.24465
 Alpha  occ. eigenvalues --  -10.24347  -3.16496  -3.16171  -1.91378  -1.91054
 Alpha  occ. eigenvalues --   -1.90964  -1.90807  -1.90642  -1.90478  -1.16841
 Alpha  occ. eigenvalues --   -1.16570  -1.08723  -1.08480  -1.07115  -1.06860
 Alpha  occ. eigenvalues --   -1.06860  -1.06660  -1.04553  -1.04255  -1.03711
 Alpha  occ. eigenvalues --   -1.03423  -1.03195  -1.02799  -1.02373  -1.01871
 Alpha  occ. eigenvalues --   -0.91981  -0.91769  -0.89424  -0.89275  -0.89185
 Alpha  occ. eigenvalues --   -0.88946  -0.88187  -0.88015  -0.87869  -0.87638
 Alpha  occ. eigenvalues --   -0.87570  -0.87445  -0.87190  -0.86740  -0.84974
 Alpha  occ. eigenvalues --   -0.84788  -0.83832  -0.83682  -0.82847  -0.82625
 Alpha  occ. eigenvalues --   -0.82618  -0.82366  -0.81651  -0.81435  -0.80593
 Alpha  occ. eigenvalues --   -0.80227  -0.78739  -0.78316  -0.77170  -0.76940
 Alpha  occ. eigenvalues --   -0.76902  -0.76721  -0.75937  -0.75626  -0.74830
 Alpha  occ. eigenvalues --   -0.74601  -0.72739  -0.72458  -0.71648  -0.71369
 Alpha  occ. eigenvalues --   -0.69745  -0.69553  -0.68856  -0.68604  -0.67620
 Alpha  occ. eigenvalues --   -0.67372  -0.67202  -0.66953  -0.65292  -0.65069
 Alpha  occ. eigenvalues --   -0.64859  -0.64598  -0.64561  -0.64454  -0.64179
 Alpha  occ. eigenvalues --   -0.63995  -0.62374  -0.62128  -0.60363  -0.60028
 Alpha  occ. eigenvalues --   -0.59795  -0.59574  -0.58964  -0.58774  -0.58489
 Alpha  occ. eigenvalues --   -0.58207  -0.57672  -0.57391  -0.57259  -0.56995
 Alpha  occ. eigenvalues --   -0.56308  -0.56068  -0.55963  -0.55718  -0.55482
 Alpha  occ. eigenvalues --   -0.55315  -0.55194  -0.55060  -0.54520  -0.54325
 Alpha  occ. eigenvalues --   -0.53899  -0.53708  -0.53256  -0.53201  -0.52998
 Alpha  occ. eigenvalues --   -0.52942  -0.52897  -0.52699  -0.52680  -0.52289
 Alpha  occ. eigenvalues --   -0.52257  -0.52197  -0.51937  -0.51687  -0.51607
 Alpha  occ. eigenvalues --   -0.51405  -0.51186  -0.50998  -0.50439  -0.50072
 Alpha  occ. eigenvalues --   -0.49923  -0.49837  -0.49677  -0.49616  -0.49491
 Alpha  occ. eigenvalues --   -0.49216  -0.49212  -0.49106  -0.48938  -0.48905
 Alpha  occ. eigenvalues --   -0.48634  -0.48440  -0.48368  -0.48362  -0.48192
 Alpha  occ. eigenvalues --   -0.48025  -0.47653  -0.47337  -0.47250  -0.46832
 Alpha  occ. eigenvalues --   -0.46749  -0.46558  -0.46492  -0.46334  -0.46332
 Alpha  occ. eigenvalues --   -0.46141  -0.46019  -0.45883  -0.45876  -0.45655
 Alpha  occ. eigenvalues --   -0.45116  -0.45005  -0.44613  -0.44438  -0.44323
 Alpha  occ. eigenvalues --   -0.44255  -0.44136  -0.44027  -0.43979  -0.43919
 Alpha  occ. eigenvalues --   -0.43850  -0.43623  -0.43549  -0.43403  -0.43348
 Alpha  occ. eigenvalues --   -0.43179  -0.43009  -0.42838  -0.42790  -0.42690
 Alpha  occ. eigenvalues --   -0.42531  -0.42313  -0.41929  -0.41764  -0.41691
 Alpha  occ. eigenvalues --   -0.41513  -0.41461  -0.41254  -0.41118  -0.40831
 Alpha  occ. eigenvalues --   -0.40777  -0.40739  -0.40508  -0.40470  -0.40419
 Alpha  occ. eigenvalues --   -0.40297  -0.40236  -0.40003  -0.39258  -0.39221
 Alpha  occ. eigenvalues --   -0.38381  -0.38156  -0.37764  -0.37475  -0.37265
 Alpha  occ. eigenvalues --   -0.37240  -0.37052  -0.36973  -0.36842  -0.36663
 Alpha  occ. eigenvalues --   -0.36185  -0.36031  -0.34261  -0.34028  -0.33954
 Alpha  occ. eigenvalues --   -0.33751  -0.33161  -0.32938  -0.31252  -0.31004
 Alpha  occ. eigenvalues --   -0.30975  -0.30738  -0.30111  -0.29771  -0.29416
 Alpha  occ. eigenvalues --   -0.29305  -0.29051  -0.28953  -0.24047  -0.23802
 Alpha  occ. eigenvalues --   -0.21088  -0.20866
 Alpha virt. eigenvalues --   -0.08737  -0.08529  -0.01697  -0.01442  -0.00008
 Alpha virt. eigenvalues --    0.00264   0.02187   0.02421   0.02862   0.03767
 Alpha virt. eigenvalues --    0.04735   0.04920   0.04937   0.05272   0.06131

 Mulliken charges:
               1
     1  Mg   0.839315
     2  C   -0.003782
     3  C   -0.093486
     4  C   -0.045549
     5  C   -0.062823
     6  N   -0.256957
     7  C   -0.052654
     8  C   -0.014219
     9  C   -0.087165
    10  C    0.046669
    11  C    0.104764
    12  C    0.053268
    13  C   -0.071330
    14  H    0.033908
    15  N   -0.433371
    16  C    0.169217
    17  C   -0.176053
    18  C   -0.003234
    19  C    0.149064
    20  C    0.109911
    21  C    0.013018
    22  O   -0.249554
    23  C    0.061843
    24  N   -0.341348
    25  C    0.041832
    26  C   -0.028159
    27  C   -0.023959
    28  C    0.074965
    29  C    0.076247
    30  C    0.034886
    31  C   -0.005827
    32  N   -0.309823
    33  C    0.079648
    34  C   -0.171796
    35  C    0.006580
    36  C    0.081879
    37  C    0.127793
    38  C    0.043606
    39  O   -0.190668
    40  C   -0.004558
    41  C    0.212911
    42  O   -0.260353
    43  O   -0.303912
    44  C    0.158425
    45  H   -0.017327
    46  H   -0.016476
    47  H   -0.040940
    48  H    0.000398
    49  H   -0.003561
    50  H    0.025245
    51  H    0.016716
    52  H    0.016781
    53  H    0.012829
    54  H    0.042517
    55  H    0.017877
    56  H    0.018988
    57  H    0.005949
    58  H    0.026818
    59  H    0.042339
    60  H    0.037087
    61  H    0.035943
    62  H    0.034010
    63  H    0.017000
    64  H    0.009020
    65  H    0.023183
    66  H    0.012210
    67  H    0.004737
    68  H    0.005650
    69  H    0.005537
    70  H    0.006988
    71  H    0.025423
    72  H    0.028290
    73  H    0.044811
    74  H    0.010388
    75  H    0.046025
    76  H    0.035338
    77  H    0.042932
    78  H    0.047072
    79  H    0.051034
    80  Mg   0.837163
    81  C   -0.017151
    82  C   -0.084921
    83  C   -0.045979
    84  C   -0.064994
    85  N   -0.254538
    86  C   -0.050627
    87  C   -0.015137
    88  C   -0.090754
    89  C    0.045630
    90  C    0.114401
    91  C    0.061869
    92  C   -0.077101
    93  H    0.032098
    94  N   -0.423938
    95  C    0.163769
    96  C   -0.171499
    97  C   -0.007400
    98  C    0.152036
    99  C    0.097864
   100  C    0.015763
   101  O   -0.255954
   102  C    0.059435
   103  N   -0.350084
   104  C    0.038033
   105  C   -0.019717
   106  C   -0.034439
   107  C    0.088387
   108  C    0.073941
   109  C    0.034885
   110  C   -0.007498
   111  N   -0.323720
   112  C    0.077467
   113  C   -0.164093
   114  C    0.001656
   115  C    0.095379
   116  C    0.131728
   117  C    0.041419
   118  O   -0.189675
   119  C    0.001154
   120  C    0.211219
   121  O   -0.252173
   122  O   -0.305351
   123  C    0.152519
   124  H   -0.019013
   125  H   -0.016365
   126  H   -0.041245
   127  H   -0.001450
   128  H   -0.003389
   129  H    0.021987
   130  H    0.014536
   131  H    0.016070
   132  H    0.016361
   133  H    0.036496
   134  H    0.020454
   135  H    0.020243
   136  H    0.008709
   137  H    0.024609
   138  H    0.052510
   139  H    0.038602
   140  H    0.033493
   141  H    0.042627
   142  H    0.013626
   143  H    0.011793
   144  H    0.024341
   145  H    0.011715
   146  H    0.005367
   147  H    0.005353
   148  H    0.003336
   149  H    0.010237
   150  H    0.018772
   151  H    0.030279
   152  H    0.044855
   153  H    0.008095
   154  H    0.046236
   155  H    0.034582
   156  H    0.043413
   157  H    0.049414
   158  H    0.052285
 Sum of Mulliken charges =  -0.00000

 Dipole moment (field-independent basis, Debye):
    X=              1.9416    Y=              3.0878    Z=              0.3989  Tot=              3.6692
 Quadrupole moment (field-independent basis, Debye-Ang):
   XX=           -520.3324   YY=           -462.6010   ZZ=           -522.5100
   XY=              2.9007   XZ=             47.1619   YZ=             12.8553

 Normal termination of Gaussian 16 at Thu Sep  9 16:15:06 2021.
