 Gaussian 16, Revision A.03,
 Gaussian 16:  ES64L-G16RevA.03 25-Dec-2016

 -----------------------------------
 #p cam-b3lyp/Def2SVP td=(nstates=5)
 -----------------------------------

 --------------------------------
 TDDFT excited states in gaussian
 --------------------------------
 Symbolic Z-matrix:
 Charge =  0 Multiplicity = 1

                         Standard orientation:
 ---------------------------------------------------------------------
 Center     Atomic      Atomic             Coordinates (Angstroms)
 Number     Number       Type             X           Y           Z
 ---------------------------------------------------------------------
      1         12           0        5.424983    0.431452    1.087856
      2          6           0        5.979617   -2.512206   -0.871602
      3          6           0        6.811061    2.214796   -1.469787
      4          6           0        5.363318    2.979094    2.975272
      5          6           0        5.150984   -1.650436    3.869281
      6          7           0        6.251444   -0.183812   -0.871496
      7          6           0        6.350263   -1.335984   -1.527168
      8          6           0        6.814207   -1.168031   -3.004978
      9          6           0        7.565993    0.231964   -2.875240
     10          6           0        6.808744    0.805428   -1.690488
     11          6           0        9.038503    0.100309   -2.499898
     12          6           0        5.608645   -1.080844   -4.000342
     13          6           0        5.969604   -1.244038   -5.479676
     14          1           0        5.035419   -1.933868   -6.356478
     15          7           0        5.541819    2.354124    0.649070
     16          6           0        6.127673    2.901429   -0.442955
     17          6           0        5.950795    4.363583   -0.310663
     18          6           0        5.382101    4.632834    1.039220
     19          6           0        5.431417    3.318052    1.625985
     20          6           0        6.261306    5.332743   -1.409782
     21          6           0        4.884456    5.879482    1.699790
     22          8           0        4.648612    5.936428    2.955062
     23          6           0        4.762999    7.073144    0.843366
     24          7           0        5.496675    0.664896    3.161017
     25          6           0        5.393801    1.874160    3.723229
     26          6           0        5.186237    1.771422    5.205221
     27          6           0        4.924417    0.225774    5.508828
     28          6           0        5.119287   -0.332200    4.077409
     29          6           0        6.343238    2.274390    6.079511
     30          6           0        3.622072   -0.130856    6.268520
     31          6           0        2.422098    0.165409    5.397092
     32          7           0        5.362905   -1.708987    1.442415
     33          6           0        5.267254   -2.355671    2.683111
     34          6           0        5.370942   -3.803611    2.424683
     35          6           0        5.537416   -3.898403    1.044413
     36          6           0        5.564011   -2.591247    0.479677
     37          6           0        5.365981   -4.828706    3.411390
     38          6           0        5.723703   -4.798865   -0.081785
     39          8           0        5.692420   -6.021519   -0.228868
     40          6           0        6.139456   -3.933180   -1.352047
     41          6           0        5.288762   -4.384542   -2.507859
     42          8           0        4.057361   -4.182086   -2.513286
     43          8           0        6.081544   -4.765441   -3.521246
     44          6           0        5.300074   -5.197324   -4.710757
     45          1           0        7.438285    2.846926   -2.101406
     46          1           0        5.229509    3.825934    3.651582
     47          1           0        4.989364   -2.364946    4.678483
     48          1           0        7.508836   -1.932761   -3.352977
     49          1           0        7.419300    0.855869   -3.756686
     50          1           0        9.297064   -0.930194   -2.256731
     51          1           0        9.175641    0.742676   -1.629811
     52          1           0        9.675995    0.514388   -3.281511
     53          1           0        5.226958   -0.059967   -4.014029
     54          1           0        4.836710   -1.804299   -3.735659
     55          1           0        6.976036   -1.645194   -5.602466
     56          1           0        6.016041   -0.253013   -5.931245
     57          1           0        6.818055    4.858109   -2.216812
     58          1           0        6.952263    6.068872   -0.999415
     59          1           0        5.366822    5.834230   -1.779567
     60          1           0        5.737371    7.309596    0.415302
     61          1           0        4.308494    7.844023    1.464672
     62          1           0        4.107652    6.840031    0.003647
     63          1           0        4.318024    2.349240    5.519478
     64          1           0        5.715866   -0.211129    6.118252
     65          1           0        6.052875    3.054400    6.783769
     66          1           0        7.138789    2.619574    5.419786
     67          1           0        6.855397    1.499863    6.649790
     68          1           0        3.526372    0.480904    7.164922
     69          1           0        3.574407   -1.176227    6.573774
     70          1           0        2.259729    1.230234    5.560238
     71          1           0        1.560147   -0.415888    5.726251
     72          1           0        2.654004    0.029266    4.340602
     73          1           0        4.722094   -5.619432    3.026512
     74          1           0        5.004748   -4.454704    4.369115
     75          1           0        6.423926   -5.089374    3.437079
     76          1           0        7.198688   -4.120181   -1.525771
     77          1           0        5.624664   -6.208047   -4.958374
     78          1           0        5.433617   -4.423494   -5.466904
     79          1           0        4.232582   -5.356514   -4.554371
     80         12           0       -4.977442    0.511722   -0.865742
     81          6           0       -7.471876   -1.643449    0.552763
     82          6           0       -7.380172    2.926029   -1.046319
     83          6           0       -2.933131    2.282349   -2.524984
     84          6           0       -3.135326   -2.348455   -1.621845
     85          7           0       -7.112792    0.520194   -0.289125
     86          6           0       -7.935756   -0.336202    0.297107
     87          6           0       -9.308752    0.264902    0.700973
     88          6           0       -9.357227    1.479909   -0.347963
     89          6           0       -7.857823    1.685503   -0.553320
     90          6           0       -9.974248    1.098015   -1.683174
     91          6           0       -9.321846    0.783592    2.181787
     92          6           0      -10.711188    1.098654    2.740561
     93          1           0      -10.971979    0.827005    4.151472
     94          7           0       -4.967110    2.463240   -1.226322
     95          6           0       -6.030215    3.294487   -1.236551
     96          6           0       -5.498325    4.623756   -1.574642
     97          6           0       -4.059251    4.478016   -1.924731
     98          6           0       -3.933117    3.034348   -1.925749
     99          6           0       -6.315862    5.878305   -1.468945
    100          6           0       -2.978909    5.472949   -2.223338
    101          8           0       -1.859182    5.117545   -2.735929
    102          6           0       -3.305328    6.886493   -1.984964
    103          7           0       -3.381649    0.031159   -2.108663
    104          6           0       -2.623607    0.993051   -2.663678
    105          6           0       -1.377094    0.412876   -3.288176
    106          6           0       -1.336126   -1.116971   -2.823987
    107          6           0       -2.671536   -1.182686   -2.050843
    108          6           0       -1.302164    0.483895   -4.813202
    109          6           0       -0.044329   -1.601589   -2.110487
    110          6           0        0.086497   -0.925589   -0.764649
    111          7           0       -5.137224   -1.599789   -0.436726
    112          6           0       -4.271096   -2.626592   -0.872146
    113          6           0       -4.854818   -3.907642   -0.424259
    114          6           0       -6.041267   -3.535930    0.225858
    115          6           0       -6.196921   -2.124558    0.168352
    116          6           0       -4.316098   -5.200742   -0.676822
    117          6           0       -7.202776   -4.017442    0.938412
    118          8           0       -7.569061   -5.112463    1.363271
    119          6           0       -8.244480   -2.824340    1.071592
    120          6           0       -8.719027   -2.779119    2.498223
    121          8           0       -7.931240   -2.495153    3.417668
    122          8           0      -10.061695   -2.863776    2.518876
    123          6           0      -10.580612   -2.812064    3.911672
    124          1           0       -8.108258    3.675669   -1.357478
    125          1           0       -2.142781    2.854797   -3.016039
    126          1           0       -2.572019   -3.277439   -1.733007
    127          1           0      -10.155622   -0.393081    0.547208
    128          1           0       -9.806539    2.365492    0.093890
    129          1           0      -10.171255    0.038210   -1.747543
    130          1           0       -9.255353    1.395568   -2.435296
    131          1           0      -10.870463    1.696744   -1.869300
    132          1           0       -8.874669    1.785451    2.214223
    133          1           0       -8.818918    0.093986    2.831502
    134          1           0      -11.510866    0.683632    2.115092
    135          1           0      -10.867388    2.179109    2.693324
    136          1           0       -7.382699    5.654097   -1.346549
    137          1           0       -6.253943    6.383001   -2.439159
    138          1           0       -5.949880    6.555543   -0.694299
    139          1           0       -4.169458    7.163587   -2.584093
    140          1           0       -2.380071    7.435406   -2.170648
    141          1           0       -3.598386    7.005782   -0.935910
    142          1           0       -0.490697    0.915407   -2.920909
    143          1           0       -1.432821   -1.804380   -3.677195
    144          1           0       -0.403435    1.013480   -5.181858
    145          1           0       -2.201602    0.962477   -5.177228
    146          1           0       -1.330085   -0.478030   -5.322244
    147          1           0        0.837728   -1.315386   -2.688613
    148          1           0       -0.004302   -2.677005   -1.973081
    149          1           0        0.542093    0.037068   -1.015273
    150          1           0        0.728295   -1.506217   -0.105092
    151          1           0       -0.898640   -0.720762   -0.329682
    152          1           0       -4.397237   -5.757730    0.247122
    153          1           0       -3.284388   -5.142072   -1.017280
    154          1           0       -4.990300   -5.541998   -1.466928
    155          1           0       -9.060029   -3.022204    0.374951
    156          1           0      -11.192969   -3.707230    4.057918
    157          1           0      -11.088293   -1.833674    4.005194
    158          1           0       -9.863319   -2.912483    4.717813
 ---------------------------------------------------------------------

 SCF Done:  E(RCAM-B3LYP) =  -4069.81288998     A.U. after   19 cycles

 Excitation energies and oscillator strengths:

 Excited State   1:      Singlet-A      1.6544 eV  749.43 nm  f=0.0060  <S**2>=0.000
     309 -> 315       -0.11118
     310 -> 316        0.12686
     311 -> 313       -0.45088
     312 -> 314        0.51866
 This state for optimization and/or second-order correction.
 Total Energy, E(TD-HF/TD-DFT) =  -4069.75209284
 Copying the excited state density for this state as the 1-particle RhoCI density.

 Excited State   2:      Singlet-A      1.6964 eV  730.86 nm  f=0.7126  <S**2>=0.000
     309 -> 315        0.13600
     310 -> 316        0.11720
     311 -> 313        0.51678
     312 -> 314        0.44923

 Excited State   3:      Singlet-A      2.1833 eV  567.88 nm  f=0.0823  <S**2>=0.000
     309 -> 313        0.14018
     310 -> 314        0.62792
     312 -> 316       -0.26451

 Excited State   4:      Singlet-A      2.1953 eV  564.78 nm  f=0.1137  <S**2>=0.000
     309 -> 313        0.62505
     310 -> 314       -0.13827
     311 -> 315       -0.27310

 Excited State   5:      Singlet-A      2.5173 eV  492.53 nm  f=0.0000  <S**2>=0.000
     312 -> 313        0.70674

 The electronic state is 1-A.
 Alpha  occ. eigenvalues --  -46.87765 -46.87449 -19.26418 -19.26215 -19.19187
 Alpha  occ. eigenvalues --  -19.19016 -19.18718 -19.18593 -19.18173 -19.17873
 Alpha  occ. eigenvalues --  -14.42428 -14.42297 -14.41406 -14.41122 -14.39358
 Alpha  occ. eigenvalues --  -14.39151 -14.38564 -14.38387 -10.39227 -10.38942
 Alpha  occ. eigenvalues --  -10.35347 -10.35276 -10.34400 -10.34050 -10.31817
 Alpha  occ. eigenvalues --  -10.31639 -10.31398 -10.31103 -10.30891 -10.30851
 Alpha  occ. eigenvalues --  -10.30545 -10.30468 -10.30182 -10.30141 -10.30135
 Alpha  occ. eigenvalues --  -10.29882 -10.29881 -10.29646 -10.29586 -10.29234
 Alpha  occ. eigenvalues --  -10.29195 -10.29195 -10.28786 -10.28636 -10.28566
 Alpha  occ. eigenvalues --  -10.28539 -10.28339 -10.28220 -10.28128 -10.27980
 Alpha  occ. eigenvalues --  -10.27802 -10.27750 -10.27693 -10.27528 -10.27469
 Alpha  occ. eigenvalues --  -10.27411 -10.27390 -10.27373 -10.27364 -10.27321
 Alpha  occ. eigenvalues --  -10.27287 -10.27273 -10.27198 -10.27094 -10.27073
 Alpha  occ. eigenvalues --  -10.26881 -10.26815 -10.26556 -10.26342 -10.26253
 Alpha  occ. eigenvalues --  -10.26233 -10.26056 -10.25965 -10.25881 -10.25789
 Alpha  occ. eigenvalues --  -10.25658 -10.25560 -10.25417 -10.25365 -10.25187
 Alpha  occ. eigenvalues --  -10.24803 -10.24745 -10.24676 -10.24531 -10.24480
 Alpha  occ. eigenvalues --  -10.24189  -3.16506  -3.16199  -1.91388  -1.91081
 Alpha  occ. eigenvalues --   -1.90975  -1.90816  -1.90669  -1.90507  -1.16769
 Alpha  occ. eigenvalues --   -1.16506  -1.08644  -1.08482  -1.07117  -1.06851
 Alpha  occ. eigenvalues --   -1.06800  -1.06795  -1.04562  -1.04299  -1.03720
 Alpha  occ. eigenvalues --   -1.03450  -1.03195  -1.02812  -1.02375  -1.01895
 Alpha  occ. eigenvalues --   -0.91966  -0.91790  -0.89455  -0.89208  -0.89184
 Alpha  occ. eigenvalues --   -0.88973  -0.88221  -0.87885  -0.87832  -0.87650
 Alpha  occ. eigenvalues --   -0.87567  -0.87474  -0.87191  -0.86955  -0.84989
 Alpha  occ. eigenvalues --   -0.84824  -0.83870  -0.83535  -0.82868  -0.82750
 Alpha  occ. eigenvalues --   -0.82633  -0.82459  -0.81617  -0.81406  -0.80584
 Alpha  occ. eigenvalues --   -0.80254  -0.78733  -0.78442  -0.77183  -0.76942
 Alpha  occ. eigenvalues --   -0.76939  -0.76669  -0.75928  -0.75655  -0.74849
 Alpha  occ. eigenvalues --   -0.74551  -0.72734  -0.72471  -0.71648  -0.71378
 Alpha  occ. eigenvalues --   -0.69815  -0.69338  -0.68865  -0.68639  -0.67614
 Alpha  occ. eigenvalues --   -0.67404  -0.67223  -0.67048  -0.65302  -0.65092
 Alpha  occ. eigenvalues --   -0.64847  -0.64608  -0.64547  -0.64443  -0.64211
 Alpha  occ. eigenvalues --   -0.63864  -0.62341  -0.62073  -0.60370  -0.60141
 Alpha  occ. eigenvalues --   -0.59804  -0.59617  -0.58962  -0.58771  -0.58482
 Alpha  occ. eigenvalues --   -0.58204  -0.57627  -0.57374  -0.57266  -0.56989
 Alpha  occ. eigenvalues --   -0.56283  -0.56036  -0.55995  -0.55716  -0.55473
 Alpha  occ. eigenvalues --   -0.55318  -0.55292  -0.54986  -0.54528  -0.54207
 Alpha  occ. eigenvalues --   -0.53918  -0.53748  -0.53255  -0.53199  -0.53032
 Alpha  occ. eigenvalues --   -0.52948  -0.52934  -0.52708  -0.52687  -0.52531
 Alpha  occ. eigenvalues --   -0.52341  -0.51908  -0.51880  -0.51630  -0.51615
 Alpha  occ. eigenvalues --   -0.51504  -0.51179  -0.50956  -0.50457  -0.50319
 Alpha  occ. eigenvalues --   -0.49958  -0.49858  -0.49806  -0.49562  -0.49490
 Alpha  occ. eigenvalues --   -0.49327  -0.49195  -0.49097  -0.49032  -0.48914
 Alpha  occ. eigenvalues --   -0.48606  -0.48428  -0.48384  -0.48374  -0.48199
 Alpha  occ. eigenvalues --   -0.48126  -0.47660  -0.47393  -0.47251  -0.46929
 Alpha  occ. eigenvalues --   -0.46763  -0.46569  -0.46474  -0.46368  -0.46325
 Alpha  occ. eigenvalues --   -0.46138  -0.46035  -0.45854  -0.45834  -0.45616
 Alpha  occ. eigenvalues --   -0.45142  -0.44961  -0.44578  -0.44460  -0.44351
 Alpha  occ. eigenvalues --   -0.44255  -0.44109  -0.44064  -0.43984  -0.43958
 Alpha  occ. eigenvalues --   -0.43792  -0.43777  -0.43513  -0.43368  -0.43336
 Alpha  occ. eigenvalues --   -0.43187  -0.43002  -0.42780  -0.42758  -0.42688
 Alpha  occ. eigenvalues --   -0.42584  -0.42253  -0.41969  -0.41688  -0.41651
 Alpha  occ. eigenvalues --   -0.41533  -0.41460  -0.41223  -0.41119  -0.40856
 Alpha  occ. eigenvalues --   -0.40794  -0.40756  -0.40590  -0.40512  -0.40479
 Alpha  occ. eigenvalues --   -0.40276  -0.40119  -0.40084  -0.39341  -0.39003
 Alpha  occ. eigenvalues --   -0.38418  -0.38051  -0.37787  -0.37485  -0.37270
 Alpha  occ. eigenvalues --   -0.37268  -0.37028  -0.36955  -0.36799  -0.36588
 Alpha  occ. eigenvalues --   -0.36198  -0.35956  -0.34260  -0.34036  -0.33903
 Alpha  occ. eigenvalues --   -0.33705  -0.33162  -0.32961  -0.31254  -0.31152
 Alpha  occ. eigenvalues --   -0.31007  -0.30767  -0.30039  -0.29776  -0.29396
 Alpha  occ. eigenvalues --   -0.29286  -0.29143  -0.29009  -0.24053  -0.23823
 Alpha  occ. eigenvalues --   -0.21089  -0.20903
 Alpha virt. eigenvalues --   -0.08731  -0.08591  -0.01706  -0.01471  -0.00003
 Alpha virt. eigenvalues --    0.00130   0.02219   0.02404   0.02896   0.03494
 Alpha virt. eigenvalues --    0.04718   0.04918   0.04958   0.05317   0.06105

 Mulliken charges:
               1
     1  Mg   0.836352
     2  C   -0.004163
     3  C   -0.093827
     4  C   -0.045303
     5  C   -0.063357
     6  N   -0.256764
     7  C   -0.053732
     8  C   -0.013549
     9  C   -0.086985
    10  C    0.046022
    11  C    0.104760
    12  C    0.052637
    13  C   -0.071698
    14  H    0.034819
    15  N   -0.433484
    16  C    0.168910
    17  C   -0.176064
    18  C   -0.003051
    19  C    0.149201
    20  C    0.109811
    21  C    0.013403
    22  O   -0.249651
    23  C    0.061518
    24  N   -0.341001
    25  C    0.041464
    26  C   -0.028259
    27  C   -0.023953
    28  C    0.074661
    29  C    0.076172
    30  C    0.035004
    31  C   -0.004759
    32  N   -0.310428
    33  C    0.079829
    34  C   -0.169977
    35  C    0.007967
    36  C    0.081523
    37  C    0.127441
    38  C    0.045060
    39  O   -0.188917
    40  C   -0.005225
    41  C    0.213603
    42  O   -0.260464
    43  O   -0.304059
    44  C    0.157811
    45  H   -0.017450
    46  H   -0.016517
    47  H   -0.041155
    48  H    0.000919
    49  H   -0.003808
    50  H    0.025465
    51  H    0.016775
    52  H    0.016802
    53  H    0.011210
    54  H    0.041939
    55  H    0.018548
    56  H    0.018800
    57  H    0.005673
    58  H    0.026616
    59  H    0.042244
    60  H    0.036817
    61  H    0.035384
    62  H    0.034618
    63  H    0.016999
    64  H    0.009403
    65  H    0.023305
    66  H    0.012359
    67  H    0.004812
    68  H    0.006455
    69  H    0.005038
    70  H    0.008851
    71  H    0.019634
    72  H    0.028728
    73  H    0.047284
    74  H    0.009719
    75  H    0.045951
    76  H    0.035448
    77  H    0.043607
    78  H    0.046636
    79  H    0.052247
    80  Mg   0.837565
    81  C   -0.017352
    82  C   -0.088277
    83  C   -0.045691
    84  C   -0.064799
    85  N   -0.254599
    86  C   -0.049855
    87  C   -0.015068
    88  C   -0.090426
    89  C    0.045586
    90  C    0.114550
    91  C    0.062604
    92  C   -0.077638
    93  H    0.034421
    94  N   -0.423277
    95  C    0.162639
    96  C   -0.175141
    97  C   -0.008431
    98  C    0.152087
    99  C    0.099517
   100  C    0.015327
   101  O   -0.255067
   102  C    0.061538
   103  N   -0.350231
   104  C    0.037617
   105  C   -0.019244
   106  C   -0.037060
   107  C    0.088930
   108  C    0.074717
   109  C    0.036280
   110  C   -0.013812
   111  N   -0.324259
   112  C    0.078896
   113  C   -0.162269
   114  C    0.001994
   115  C    0.096514
   116  C    0.130814
   117  C    0.042453
   118  O   -0.188004
   119  C    0.000914
   120  C    0.211207
   121  O   -0.251152
   122  O   -0.305659
   123  C    0.152158
   124  H   -0.020418
   125  H   -0.016808
   126  H   -0.037008
   127  H   -0.000941
   128  H   -0.004749
   129  H    0.022248
   130  H    0.014330
   131  H    0.015721
   132  H    0.013926
   133  H    0.037609
   134  H    0.020617
   135  H    0.019389
   136  H    0.008454
   137  H    0.025256
   138  H    0.039264
   139  H    0.038038
   140  H    0.034444
   141  H    0.034357
   142  H    0.013368
   143  H    0.013166
   144  H    0.022704
   145  H    0.010413
   146  H    0.005756
   147  H    0.010863
   148  H    0.013692
   149  H    0.007099
   150  H    0.027284
   151  H    0.026706
   152  H    0.046171
   153  H    0.011902
   154  H    0.046439
   155  H    0.034657
   156  H    0.043678
   157  H    0.049299
   158  H    0.053401
 Sum of Mulliken charges =  -0.00000

 Dipole moment (field-independent basis, Debye):
    X=              0.5695    Y=              6.7651    Z=             -3.4738  Tot=              7.6262
 Quadrupole moment (field-independent basis, Debye-Ang):
   XX=           -443.5419   YY=           -540.5782   ZZ=           -483.2104
   XY=            -25.8305   XZ=            -11.6288   YZ=             -1.8804

 Normal termination of Gaussian 16 at Fri Sep 10 10:39:57 2021.
