 Gaussian 16, Revision A.03,
 Gaussian 16:  ES64L-G16RevA.03 25-Dec-2016

 -----------------------------------
 #p cam-b3lyp/Def2SVP td=(nstates=5)
 -----------------------------------

 --------------------------------
 TDDFT excited states in gaussian
 --------------------------------
 Symbolic Z-matrix:
 Charge =  0 Multiplicity = 1

                         Standard orientation:
 ---------------------------------------------------------------------
 Center     Atomic      Atomic             Coordinates (Angstroms)
 Number     Number       Type             X           Y           Z
 ---------------------------------------------------------------------
      1         12           0       -5.255559   -0.650040   -0.504662
      2          6           0       -5.694169    1.921805    1.945940
      3          6           0       -5.910631    1.709167   -2.881233
      4          6           0       -5.322254   -2.985359   -2.649063
      5          6           0       -5.759004   -2.965947    2.050486
      6          7           0       -5.726200    1.508336   -0.361293
      7          6           0       -5.805146    2.386529    0.633552
      8          6           0       -5.941630    3.860383    0.147240
      9          6           0       -6.560290    3.592462   -1.297571
     10          6           0       -6.004685    2.201149   -1.545516
     11          6           0       -8.083902    3.521315   -1.304308
     12          6           0       -4.557209    4.585685    0.052135
     13          6           0       -4.626165    6.108248   -0.097528
     14          1           0       -3.607790    6.922268    0.548716
     15          7           0       -5.088444   -0.587922   -2.472164
     16          6           0       -5.383747    0.460810   -3.277299
     17          6           0       -5.091967    0.011361   -4.655538
     18          6           0       -4.783855   -1.444821   -4.603642
     19          6           0       -5.081971   -1.740351   -3.225539
     20          6           0       -5.075404    0.933759   -5.835647
     21          6           0       -4.307901   -2.418088   -5.635316
     22          8           0       -4.326170   -3.681212   -5.438444
     23          6           0       -3.897107   -1.851648   -6.932788
     24          7           0       -5.721117   -2.681034   -0.378361
     25          6           0       -5.613621   -3.481235   -1.444713
     26          6           0       -5.721237   -4.926034   -1.056236
     27          6           0       -5.682079   -4.958771    0.539742
     28          6           0       -5.638383   -3.433833    0.806058
     29          6           0       -6.974865   -5.660540   -1.551139
     30          6           0       -4.602501   -5.853778    1.198447
     31          6           0       -3.227670   -5.288388    0.920473
     32          7           0       -5.480770   -0.577948    1.652913
     33          6           0       -5.703031   -1.662191    2.514127
     34          6           0       -5.896590   -1.107170    3.866368
     35          6           0       -5.789255    0.271449    3.693933
     36          6           0       -5.570311    0.560896    2.316771
     37          6           0       -6.193702   -1.855297    5.039596
     38          6           0       -5.833138    1.568742    4.348886
     39          8           0       -5.895184    1.947530    5.519425
     40          6           0       -5.894859    2.695473    3.225278
     41          6           0       -4.877582    3.745980    3.578678
     42          8           0       -3.656562    3.489941    3.548376
     43          8           0       -5.483190    4.940336    3.664087
     44          6           0       -4.524594    6.031874    3.983137
     45          1           0       -6.330820    2.304879   -3.693950
     46          1           0       -5.243922   -3.829111   -3.337819
     47          1           0       -5.836558   -3.632819    2.911137
     48          1           0       -6.624489    4.472190    0.737002
     49          1           0       -6.176822    4.291573   -2.040483
     50          1           0       -8.487994    3.537987   -0.292205
     51          1           0       -8.329151    2.580087   -1.796686
     52          1           0       -8.505579    4.306675   -1.932142
     53          1           0       -4.080511    4.327709   -0.893523
     54          1           0       -3.930999    4.335668    0.909268
     55          1           0       -5.621963    6.486877    0.134713
     56          1           0       -4.481037    6.354969   -1.149320
     57          1           0       -5.502142    1.905516   -5.590437
     58          1           0       -5.757906    0.516299   -6.575666
     59          1           0       -4.079072    1.029919   -6.267397
     60          1           0       -4.736211   -1.311199   -7.371388
     61          1           0       -3.502817   -2.684902   -7.513369
     62          1           0       -3.112216   -1.113951   -6.763385
     63          1           0       -4.881134   -5.499395   -1.445993
     64          1           0       -6.620012   -5.317146    0.964624
     65          1           0       -6.756343   -6.546062   -2.148468
     66          1           0       -7.582056   -4.950568   -2.111987
     67          1           0       -7.666548   -5.964324   -0.765832
     68          1           0       -4.629289   -6.856090    0.772302
     69          1           0       -4.722291   -5.948955    2.277726
     70          1           0       -2.995988   -5.686093   -0.066942
     71          1           0       -2.512580   -5.644907    1.662599
     72          1           0       -3.253663   -4.201781    0.836225
     73          1           0       -5.567669   -1.443108    5.830894
     74          1           0       -5.997966   -2.917173    4.892256
     75          1           0       -7.255652   -1.638368    5.153879
     76          1           0       -6.910389    3.090148    3.232578
     77          1           0       -4.891833    6.529355    4.880847
     78          1           0       -4.424479    6.630812    3.077789
     79          1           0       -3.532128    5.721137    4.311455
     80         12           0        5.272944   -0.634539    0.500564
     81          6           0        5.631603    1.965913   -1.946487
     82          6           0        5.999613    1.704499    2.874485
     83          6           0        5.408304   -2.982477    2.630417
     84          6           0        5.706112   -2.933843   -2.082314
     85          7           0        5.736589    1.523484    0.358348
     86          6           0        5.783549    2.416603   -0.618624
     87          6           0        5.925813    3.886418   -0.140124
     88          6           0        6.596856    3.609113    1.292253
     89          6           0        6.053290    2.205103    1.549112
     90          6           0        8.113699    3.532141    1.241451
     91          6           0        4.538379    4.604735    0.004946
     92          6           0        4.614930    6.124341    0.168365
     93          1           0        3.568697    6.943145   -0.437799
     94          7           0        5.163931   -0.579484    2.481389
     95          6           0        5.475700    0.458958    3.284954
     96          6           0        5.244383   -0.012199    4.659244
     97          6           0        4.928458   -1.465633    4.609901
     98          6           0        5.180581   -1.742821    3.210016
     99          6           0        5.254403    0.906027    5.846756
    100          6           0        4.486500   -2.446805    5.653054
    101          8           0        4.500391   -3.710278    5.437953
    102          6           0        4.125726   -1.890581    6.965288
    103          7           0        5.731018   -2.656349    0.343103
    104          6           0        5.663839   -3.465905    1.414559
    105          6           0        5.765351   -4.916992    1.009058
    106          6           0        5.671415   -4.924543   -0.587406
    107          6           0        5.619216   -3.402602   -0.845025
    108          6           0        7.037248   -5.642732    1.447200
    109          6           0        4.573161   -5.819982   -1.223549
    110          6           0        3.203999   -5.271190   -0.892457
    111          7           0        5.424375   -0.544546   -1.652808
    112          6           0        5.629356   -1.624410   -2.539345
    113          6           0        5.778696   -1.053524   -3.893680
    114          6           0        5.672363    0.331486   -3.696341
    115          6           0        5.491163    0.605716   -2.313784
    116          6           0        6.030113   -1.791639   -5.084513
    117          6           0        5.682831    1.624495   -4.341873
    118          8           0        5.714150    2.012505   -5.509002
    119          6           0        5.783460    2.747727   -3.221765
    120          6           0        4.752552    3.800135   -3.525381
    121          8           0        3.539572    3.531794   -3.468162
    122          8           0        5.359458    4.997294   -3.619420
    123          6           0        4.376517    6.075219   -3.908769
    124          1           0        6.438069    2.303183    3.673370
    125          1           0        5.354269   -3.837170    3.308691
    126          1           0        5.746196   -3.590631   -2.953917
    127          1           0        6.582163    4.499791   -0.745727
    128          1           0        6.228092    4.303894    2.042353
    129          1           0        8.484757    3.559172    0.227683
    130          1           0        8.376785    2.595733    1.715774
    131          1           0        8.552064    4.318320    1.862813
    132          1           0        4.094314    4.333963    0.971504
    133          1           0        3.895596    4.361795   -0.818731
    134          1           0        5.606643    6.516946   -0.087177
    135          1           0        4.495750    6.365912    1.227349
    136          1           0        5.678339    1.885742    5.594117
    137          1           0        5.959028    0.483873    6.571441
    138          1           0        4.273469    0.995365    6.318407
    139          1           0        4.975979   -1.350232    7.374614
    140          1           0        3.751267   -2.734743    7.547564
    141          1           0        3.324045   -1.156779    6.825798
    142          1           0        4.939416   -5.489936    1.412398
    143          1           0        6.600889   -5.289620   -1.048529
    144          1           0        6.837379   -6.545454    2.054846
    145          1           0        7.656797   -4.945145    1.994987
    146          1           0        7.696152   -5.949875    0.636817
    147          1           0        4.614225   -6.827124   -0.801487
    148          1           0        4.665666   -5.917912   -2.300047
    149          1           0        3.009677   -5.677725    0.104566
    150          1           0        2.466688   -5.621305   -1.612055
    151          1           0        3.228687   -4.178845   -0.803985
    152          1           0        5.385423   -1.378526   -5.848837
    153          1           0        5.846280   -2.854222   -4.939935
    154          1           0        7.091982   -1.574574   -5.228006
    155          1           0        6.797626    3.148064   -3.249463
    156          1           0        4.717678    6.583622   -4.815868
    157          1           0        4.316024    6.680306   -2.984664
    158          1           0        3.375595    5.776488   -4.197488
 ---------------------------------------------------------------------

 SCF Done:  E(RCAM-B3LYP) =  -4069.81220589     A.U. after   19 cycles

 Excitation energies and oscillator strengths:

 Excited State   1:      Singlet-A      1.6581 eV  747.76 nm  f=0.0057  <S**2>=0.000
     309 -> 316        0.12683
     310 -> 315        0.11253
     311 -> 313        0.51482
     312 -> 314        0.45507
 This state for optimization and/or second-order correction.
 Total Energy, E(TD-HF/TD-DFT) =  -4069.75127291
 Copying the excited state density for this state as the 1-particle RhoCI density.

 Excited State   2:      Singlet-A      1.6965 eV  730.84 nm  f=0.7177  <S**2>=0.000
     309 -> 316       -0.11857
     310 -> 315        0.13468
     311 -> 313       -0.45353
     312 -> 314        0.51300

 Excited State   3:      Singlet-A      2.1849 eV  567.45 nm  f=0.0243  <S**2>=0.000
     309 -> 313        0.58364
     310 -> 314       -0.27111
     311 -> 316       -0.24637
     312 -> 315        0.11371

 Excited State   4:      Singlet-A      2.1951 eV  564.82 nm  f=0.1584  <S**2>=0.000
     309 -> 313        0.26859
     310 -> 314        0.58049
     311 -> 316       -0.11824
     312 -> 315       -0.25420

 Excited State   5:      Singlet-A      2.5747 eV  481.54 nm  f=0.0000  <S**2>=0.000
     312 -> 313        0.70710

 The electronic state is 1-A.
 Alpha  occ. eigenvalues --  -46.87606 -46.87522 -19.26341 -19.26223 -19.19139
 Alpha  occ. eigenvalues --  -19.18944 -19.18596 -19.18547 -19.18034 -19.17969
 Alpha  occ. eigenvalues --  -14.42362 -14.42264 -14.41266 -14.41229 -14.39208
 Alpha  occ. eigenvalues --  -14.39206 -14.38471 -14.38406 -10.39062 -10.38998
 Alpha  occ. eigenvalues --  -10.35225 -10.35220 -10.34256 -10.34149 -10.31786
 Alpha  occ. eigenvalues --  -10.31656 -10.31234 -10.31190 -10.30885 -10.30720
 Alpha  occ. eigenvalues --  -10.30391 -10.30327 -10.30269 -10.30235 -10.30012
 Alpha  occ. eigenvalues --  -10.29997 -10.29779 -10.29754 -10.29444 -10.29289
 Alpha  occ. eigenvalues --  -10.29266 -10.29055 -10.28603 -10.28583 -10.28565
 Alpha  occ. eigenvalues --  -10.28403 -10.28272 -10.28179 -10.28022 -10.27949
 Alpha  occ. eigenvalues --  -10.27871 -10.27610 -10.27539 -10.27532 -10.27397
 Alpha  occ. eigenvalues --  -10.27385 -10.27359 -10.27332 -10.27321 -10.27290
 Alpha  occ. eigenvalues --  -10.27265 -10.27259 -10.27229 -10.27220 -10.27031
 Alpha  occ. eigenvalues --  -10.26976 -10.26565 -10.26528 -10.26189 -10.26131
 Alpha  occ. eigenvalues --  -10.26086 -10.26015 -10.26014 -10.25926 -10.25835
 Alpha  occ. eigenvalues --  -10.25803 -10.25764 -10.25704 -10.25303 -10.25293
 Alpha  occ. eigenvalues --  -10.24751 -10.24659 -10.24608 -10.24592 -10.24564
 Alpha  occ. eigenvalues --  -10.24503  -3.16348  -3.16271  -1.91229  -1.91153
 Alpha  occ. eigenvalues --   -1.90816  -1.90742  -1.90658  -1.90579  -1.16631
 Alpha  occ. eigenvalues --   -1.16567  -1.08586  -1.08501  -1.06997  -1.06923
 Alpha  occ. eigenvalues --   -1.06798  -1.06566  -1.04397  -1.04362  -1.03577
 Alpha  occ. eigenvalues --   -1.03529  -1.03048  -1.02907  -1.02228  -1.01981
 Alpha  occ. eigenvalues --   -0.91875  -0.91808  -0.89370  -0.89345  -0.89033
 Alpha  occ. eigenvalues --   -0.89020  -0.88116  -0.88100  -0.87703  -0.87680
 Alpha  occ. eigenvalues --   -0.87554  -0.87491  -0.87052  -0.86950  -0.84879
 Alpha  occ. eigenvalues --   -0.84811  -0.83774  -0.83763  -0.82767  -0.82748
 Alpha  occ. eigenvalues --   -0.82522  -0.82473  -0.81523  -0.81460  -0.80433
 Alpha  occ. eigenvalues --   -0.80336  -0.78595  -0.78488  -0.77044  -0.77019
 Alpha  occ. eigenvalues --   -0.76803  -0.76788  -0.75774  -0.75739  -0.74739
 Alpha  occ. eigenvalues --   -0.74695  -0.72598  -0.72574  -0.71507  -0.71468
 Alpha  occ. eigenvalues --   -0.69735  -0.69634  -0.68706  -0.68700  -0.67480
 Alpha  occ. eigenvalues --   -0.67466  -0.67063  -0.67035  -0.65160  -0.65122
 Alpha  occ. eigenvalues --   -0.64696  -0.64660  -0.64549  -0.64462  -0.64098
 Alpha  occ. eigenvalues --   -0.64086  -0.62212  -0.62182  -0.60238  -0.60189
 Alpha  occ. eigenvalues --   -0.59674  -0.59631  -0.58876  -0.58819  -0.58338
 Alpha  occ. eigenvalues --   -0.58315  -0.57481  -0.57457  -0.57139  -0.57113
 Alpha  occ. eigenvalues --   -0.56138  -0.56086  -0.55867  -0.55815  -0.55331
 Alpha  occ. eigenvalues --   -0.55330  -0.55196  -0.55151  -0.54404  -0.54393
 Alpha  occ. eigenvalues --   -0.53795  -0.53727  -0.53121  -0.53103  -0.53038
 Alpha  occ. eigenvalues --   -0.53024  -0.52799  -0.52766  -0.52541  -0.52497
 Alpha  occ. eigenvalues --   -0.52278  -0.52268  -0.51790  -0.51764  -0.51528
 Alpha  occ. eigenvalues --   -0.51436  -0.51100  -0.51041  -0.50326  -0.50289
 Alpha  occ. eigenvalues --   -0.49850  -0.49840  -0.49738  -0.49718  -0.49350
 Alpha  occ. eigenvalues --   -0.49334  -0.49084  -0.49045  -0.49002  -0.48940
 Alpha  occ. eigenvalues --   -0.48465  -0.48451  -0.48310  -0.48277  -0.48246
 Alpha  occ. eigenvalues --   -0.48187  -0.47518  -0.47471  -0.47115  -0.46987
 Alpha  occ. eigenvalues --   -0.46626  -0.46592  -0.46434  -0.46390  -0.46185
 Alpha  occ. eigenvalues --   -0.46148  -0.46010  -0.45985  -0.45742  -0.45692
 Alpha  occ. eigenvalues --   -0.45095  -0.45036  -0.44435  -0.44419  -0.44354
 Alpha  occ. eigenvalues --   -0.44313  -0.44021  -0.43972  -0.43957  -0.43927
 Alpha  occ. eigenvalues --   -0.43839  -0.43796  -0.43486  -0.43367  -0.43275
 Alpha  occ. eigenvalues --   -0.43214  -0.42875  -0.42864  -0.42797  -0.42603
 Alpha  occ. eigenvalues --   -0.42491  -0.42422  -0.41846  -0.41846  -0.41564
 Alpha  occ. eigenvalues --   -0.41542  -0.41367  -0.41341  -0.40975  -0.40875
 Alpha  occ. eigenvalues --   -0.40700  -0.40609  -0.40594  -0.40547  -0.40407
 Alpha  occ. eigenvalues --   -0.40378  -0.40092  -0.40056  -0.39299  -0.39267
 Alpha  occ. eigenvalues --   -0.38301  -0.38233  -0.37586  -0.37542  -0.37146
 Alpha  occ. eigenvalues --   -0.37145  -0.37091  -0.37076  -0.36729  -0.36611
 Alpha  occ. eigenvalues --   -0.36116  -0.36049  -0.34130  -0.34108  -0.33820
 Alpha  occ. eigenvalues --   -0.33675  -0.33049  -0.33010  -0.31130  -0.31110
 Alpha  occ. eigenvalues --   -0.30857  -0.30846  -0.29898  -0.29878  -0.29253
 Alpha  occ. eigenvalues --   -0.29184  -0.29141  -0.29085  -0.23907  -0.23899
 Alpha  occ. eigenvalues --   -0.20983  -0.20942
 Alpha virt. eigenvalues --   -0.08657  -0.08586  -0.01562  -0.01548   0.00120
 Alpha virt. eigenvalues --    0.00142   0.02315   0.02361   0.03297   0.03482
 Alpha virt. eigenvalues --    0.04849   0.04889   0.05189   0.05203   0.06272

 Mulliken charges:
               1
     1  Mg   0.839831
     2  C   -0.002995
     3  C   -0.093149
     4  C   -0.045942
     5  C   -0.063964
     6  N   -0.256800
     7  C   -0.052489
     8  C   -0.014211
     9  C   -0.087207
    10  C    0.046761
    11  C    0.104858
    12  C    0.053173
    13  C   -0.071302
    14  H    0.034637
    15  N   -0.433249
    16  C    0.169277
    17  C   -0.176022
    18  C   -0.003399
    19  C    0.149093
    20  C    0.109999
    21  C    0.012900
    22  O   -0.250222
    23  C    0.061836
    24  N   -0.341195
    25  C    0.041440
    26  C   -0.028120
    27  C   -0.023814
    28  C    0.074663
    29  C    0.076313
    30  C    0.035196
    31  C   -0.004539
    32  N   -0.310259
    33  C    0.080093
    34  C   -0.170156
    35  C    0.007821
    36  C    0.082782
    37  C    0.127476
    38  C    0.045519
    39  O   -0.189855
    40  C   -0.005226
    41  C    0.212679
    42  O   -0.257562
    43  O   -0.304618
    44  C    0.158215
    45  H   -0.017610
    46  H   -0.017061
    47  H   -0.041852
    48  H    0.000289
    49  H   -0.003646
    50  H    0.025143
    51  H    0.016429
    52  H    0.016437
    53  H    0.013210
    54  H    0.043799
    55  H    0.017306
    56  H    0.018508
    57  H    0.005832
    58  H    0.026355
    59  H    0.042299
    60  H    0.036938
    61  H    0.035420
    62  H    0.034212
    63  H    0.016365
    64  H    0.009060
    65  H    0.022888
    66  H    0.012485
    67  H    0.004491
    68  H    0.005810
    69  H    0.004676
    70  H    0.008234
    71  H    0.018807
    72  H    0.029368
    73  H    0.046692
    74  H    0.009108
    75  H    0.045544
    76  H    0.034816
    77  H    0.042305
    78  H    0.046558
    79  H    0.052518
    80  Mg   0.838963
    81  C   -0.016918
    82  C   -0.086977
    83  C   -0.045508
    84  C   -0.064847
    85  N   -0.254626
    86  C   -0.049839
    87  C   -0.015294
    88  C   -0.090711
    89  C    0.046224
    90  C    0.114412
    91  C    0.062228
    92  C   -0.077423
    93  H    0.033470
    94  N   -0.423630
    95  C    0.163896
    96  C   -0.173697
    97  C   -0.007137
    98  C    0.152494
    99  C    0.099238
   100  C    0.016220
   101  O   -0.253659
   102  C    0.060564
   103  N   -0.350085
   104  C    0.037686
   105  C   -0.019793
   106  C   -0.034659
   107  C    0.088722
   108  C    0.073772
   109  C    0.034792
   110  C   -0.007751
   111  N   -0.323892
   112  C    0.078131
   113  C   -0.163592
   114  C    0.001673
   115  C    0.096000
   116  C    0.131661
   117  C    0.041735
   118  O   -0.189332
   119  C    0.001037
   120  C    0.211051
   121  O   -0.251534
   122  O   -0.305422
   123  C    0.152546
   124  H   -0.019626
   125  H   -0.015718
   126  H   -0.040753
   127  H   -0.001274
   128  H   -0.003928
   129  H    0.022140
   130  H    0.014410
   131  H    0.016105
   132  H    0.015882
   133  H    0.037359
   134  H    0.020233
   135  H    0.020186
   136  H    0.008734
   137  H    0.025751
   138  H    0.042358
   139  H    0.037872
   140  H    0.036282
   141  H    0.036437
   142  H    0.014287
   143  H    0.012039
   144  H    0.024880
   145  H    0.011574
   146  H    0.005444
   147  H    0.005764
   148  H    0.003637
   149  H    0.010430
   150  H    0.018678
   151  H    0.030434
   152  H    0.045072
   153  H    0.008571
   154  H    0.046505
   155  H    0.034714
   156  H    0.043273
   157  H    0.049718
   158  H    0.052342
 Sum of Mulliken charges =  -0.00000

 Dipole moment (field-independent basis, Debye):
    X=              0.0842    Y=              3.1143    Z=             -0.2152  Tot=              3.1228
 Quadrupole moment (field-independent basis, Debye-Ang):
   XX=           -482.8229   YY=           -461.3045   ZZ=           -538.0478
   XY=              0.7944   XZ=             42.7221   YZ=              0.5683

 Normal termination of Gaussian 16 at Fri Sep 10 13:27:05 2021.
