 Gaussian 16, Revision A.03,
 Gaussian 16:  ES64L-G16RevA.03 25-Dec-2016

 -----------------------------------
 #p cam-b3lyp/Def2SVP td=(nstates=5)
 -----------------------------------

 --------------------------------
 TDDFT excited states in gaussian
 --------------------------------
 Symbolic Z-matrix:
 Charge =  0 Multiplicity = 1

                         Standard orientation:
 ---------------------------------------------------------------------
 Center     Atomic      Atomic             Coordinates (Angstroms)
 Number     Number       Type             X           Y           Z
 ---------------------------------------------------------------------
      1         12           0        6.449961   -1.054474    0.103876
      2          6           0        7.166826    2.260250   -1.041077
      3          6           0        7.546325   -0.068546    3.181050
      4          6           0        6.255089   -4.083125    1.023614
      5          6           0        6.497325   -2.058567   -3.233071
      6          7           0        7.231116    0.877507    0.850798
      7          6           0        7.399466    2.086835    0.325104
      8          6           0        7.774099    3.171783    1.378628
      9          6           0        8.404409    2.228132    2.498552
     10          6           0        7.658040    0.944029    2.182429
     11          6           0        9.899338    1.984257    2.319068
     12          6           0        6.518453    3.937970    1.915323
     13          6           0        6.819874    5.221639    2.694228
     14          1           0        5.908793    6.348935    2.565841
     15          7           0        6.374573   -1.841286    1.914427
     16          6           0        6.855717   -1.293431    3.056197
     17          6           0        6.556742   -2.263676    4.131334
     18          6           0        6.032947   -3.503126    3.492980
     19          6           0        6.227031   -3.197768    2.098539
     20          6           0        6.726257   -1.956322    5.587544
     21          6           0        5.459688   -4.767083    4.051477
     22          8           0        5.281223   -5.808969    3.332313
     23          6           0        5.191407   -4.782507    5.500901
     24          7           0        6.601714   -2.863873   -0.926018
     25          6           0        6.419718   -4.031668   -0.299826
     26          6           0        6.294582   -5.162000   -1.277901
     27          6           0        6.185756   -4.487672   -2.721227
     28          6           0        6.359227   -3.006587   -2.303418
     29          6           0        7.443760   -6.179543   -1.275352
     30          6           0        4.958702   -4.871253   -3.585880
     31          6           0        3.696148   -4.328819   -2.954358
     32          7           0        6.595000   -0.071552   -1.825858
     33          6           0        6.617597   -0.686801   -3.085870
     34          6           0        6.836348    0.377612   -4.082485
     35          6           0        6.943054    1.543531   -3.326780
     36          6           0        6.826242    1.223939   -1.943845
     37          6           0        6.970288    0.189909   -5.486502
     38          6           0        7.153193    2.981686   -3.364321
     39          8           0        7.223148    3.824748   -4.259779
     40          6           0        7.428227    3.486812   -1.879386
     41          6           0        6.565490    4.696540   -1.643695
     42          8           0        5.322206    4.597282   -1.601753
     43          8           0        7.338519    5.728066   -1.270971
     44          6           0        6.541283    6.952491   -0.992847
     45          1           0        8.083569    0.057608    4.123066
     46          1           0        6.079969   -5.127775    1.289094
     47          1           0        6.439254   -2.285150   -4.299251
     48          1           0        8.515908    3.895890    1.041266
     49          1           0        8.160245    2.570657    3.503930
     50          1           0       10.259670    2.395285    1.376127
     51          1           0       10.021329    0.901020    2.333536
     52          1           0       10.458788    2.360262    3.176047
     53          1           0        6.047669    3.349396    2.702726
     54          1           0        5.827432    4.163430    1.102314
     55          1           0        7.850680    5.544853    2.546313
     56          1           0        6.756310    4.997853    3.759160
     57          1           0        7.282823   -1.032404    5.739711
     58          1           0        7.368512   -2.732054    6.004028
     59          1           0        5.773922   -1.943611    6.117853
     60          1           0        6.118979   -4.590578    6.040644
     61          1           0        4.701276   -5.733614    5.705885
     62          1           0        4.519107   -3.959278    5.744326
     63          1           0        5.394981   -5.745925   -1.087701
     64          1           0        7.041552   -4.730332   -3.351627
     65          1           0        7.120166   -7.205056   -1.095584
     66          1           0        8.172504   -5.863018   -0.529674
     67          1           0        8.049680   -6.187006   -2.181013
     68          1           0        4.853041   -5.954484   -3.634794
     69          1           0        5.018720   -4.497389   -4.608071
     70          1           0        3.448289   -5.088782   -2.214186
     71          1           0        2.906130   -4.238310   -3.700608
     72          1           0        3.887401   -3.400118   -2.416377
     73          1           0        6.380939    0.976820   -5.957040
     74          1           0        6.624495   -0.798394   -5.788639
     75          1           0        8.047147    0.309615   -5.604408
     76          1           0        8.490119    3.723520   -1.820430
     77          1           0        6.941622    7.746318   -1.623561
     78          1           0        6.568756    7.101569    0.086702
     79          1           0        5.500978    6.934901   -1.319641
     80         12           0       -6.618451    1.038460    0.316684
     81          6           0       -6.981259   -2.448600   -0.450041
     82          6           0       -5.709980    1.506329   -2.937601
     83          6           0       -5.856518    4.026824    1.062724
     84          6           0       -6.435311    0.137839    3.678391
     85          7           0       -6.410580   -0.367304   -1.378270
     86          6           0       -6.634775   -1.659098   -1.566312
     87          6           0       -6.557240   -2.116397   -3.047676
     88          6           0       -5.610037   -0.948190   -3.610703
     89          6           0       -5.951654    0.149438   -2.605131
     90          6           0       -4.128450   -1.263416   -3.488739
     91          6           0       -7.960180   -2.107110   -3.750306
     92          6           0       -8.009799   -2.832284   -5.096933
     93          1           0       -9.227228   -3.555603   -5.453512
     94          7           0       -6.367055    2.627898   -0.844807
     95          6           0       -6.020285    2.636012   -2.149010
     96          6           0       -5.946303    4.053147   -2.536839
     97          6           0       -6.116519    4.883695   -1.313749
     98          6           0       -6.098789    3.855689   -0.292474
     99          6           0       -5.811866    4.500403   -3.963475
    100          6           0       -6.257436    6.360086   -1.097867
    101          8           0       -6.154920    6.882949    0.067869
    102          6           0       -6.425864    7.185676   -2.302653
    103          7           0       -5.993971    1.934670    2.085627
    104          6           0       -5.780698    3.260622    2.151079
    105          6           0       -5.608380    3.715499    3.580684
    106          6           0       -5.992485    2.452075    4.482791
    107          6           0       -6.245512    1.413018    3.368455
    108          6           0       -4.210610    4.204696    3.959233
    109          6           0       -7.092048    2.664110    5.559212
    110          6           0       -8.425740    2.913373    4.892485
    111          7           0       -6.874792   -0.779235    1.456134
    112          6           0       -6.727332   -0.939271    2.851381
    113          6           0       -6.887934   -2.378387    3.143922
    114          6           0       -7.096461   -2.963523    1.885887
    115          6           0       -7.047731   -1.962679    0.878203
    116          6           0       -6.785669   -2.982602    4.428674
    117          6           0       -7.336138   -4.201745    1.180167
    118          8           0       -7.559188   -5.364069    1.516301
    119          6           0       -7.146325   -3.941228   -0.376272
    120          6           0       -8.316985   -4.553074   -1.095793
    121          8           0       -9.465189   -4.105054   -0.929923
    122          8           0       -7.862535   -5.418180   -2.020688
    123          6           0       -8.986270   -6.042678   -2.768384
    124          1           0       -5.195489    1.727563   -3.873147
    125          1           0       -5.697972    5.057987    1.386833
    126          1           0       -6.489340   -0.209845    4.712251
    127          1           0       -6.089006   -3.081228   -3.201332
    128          1           0       -5.903532   -0.650850   -4.614097
    129          1           0       -3.954488   -2.173288   -2.933754
    130          1           0       -3.688992   -0.417725   -2.976184
    131          1           0       -3.665716   -1.289061   -4.479471
    132          1           0       -8.189430   -1.085173   -4.078671
    133          1           0       -8.715146   -2.502526   -3.098913
    134          1           0       -7.126969   -3.462754   -5.258353
    135          1           0       -7.956508   -2.087215   -5.894459
    136          1           0       -5.543331    3.665968   -4.623031
    137          1           0       -4.947006    5.171138   -4.008157
    138          1           0       -6.693482    5.036165   -4.321800
    139          1           0       -5.574325    7.039072   -2.962846
    140          1           0       -6.599306    8.200553   -1.939569
    141          1           0       -7.309889    6.834596   -2.846579
    142          1           0       -6.283667    4.530300    3.811322
    143          1           0       -5.131237    2.088133    5.062134
    144          1           0       -4.202736    5.235946    4.359900
    145          1           0       -3.575210    4.130905    3.086674
    146          1           0       -3.683898    3.583613    4.681751
    147          1           0       -6.872055    3.553186    6.155284
    148          1           0       -7.189247    1.831002    6.247312
    149          1           0       -8.391414    3.982838    4.664113
    150          1           0       -9.243148    2.680939    5.572099
    151          1           0       -8.496396    2.375057    3.940186
    152          1           0       -7.598302   -3.692822    4.504290
    153          1           0       -6.830864   -2.239593    5.222188
    154          1           0       -5.795836   -3.440238    4.350738
    155          1           0       -6.200504   -4.396957   -0.671755
    156          1           0       -8.870880   -7.126679   -2.671916
    157          1           0       -8.937298   -5.619787   -3.789416
    158          1           0       -9.987554   -5.901069   -2.378712
 ---------------------------------------------------------------------

 SCF Done:  E(RCAM-B3LYP) =  -4069.81184724     A.U. after   19 cycles

 Excitation energies and oscillator strengths:

 Excited State   1:      Singlet-A      1.6672 eV  743.67 nm  f=0.0649  <S**2>=0.000
     309 -> 315        0.10871
     310 -> 316        0.13302
     311 -> 313        0.43273
     312 -> 314        0.53294
 This state for optimization and/or second-order correction.
 Total Energy, E(TD-HF/TD-DFT) =  -4069.75057904
 Copying the excited state density for this state as the 1-particle RhoCI density.

 Excited State   2:      Singlet-A      1.6880 eV  734.49 nm  f=0.6745  <S**2>=0.000
     309 -> 315        0.13790
     310 -> 316       -0.11148
     311 -> 313        0.53191
     312 -> 314       -0.43199

 Excited State   3:      Singlet-A      2.1859 eV  567.21 nm  f=0.0544  <S**2>=0.000
     309 -> 313        0.18114
     310 -> 314        0.61682
     312 -> 316       -0.26156

 Excited State   4:      Singlet-A      2.1934 eV  565.25 nm  f=0.1374  <S**2>=0.000
     309 -> 313        0.61472
     310 -> 314       -0.17967
     311 -> 315       -0.26750

 Excited State   5:      Singlet-A      2.6488 eV  468.07 nm  f=0.0000  <S**2>=0.000
     312 -> 313        0.70710

 The electronic state is 1-A.
 Alpha  occ. eigenvalues --  -46.87855 -46.87551 -19.26341 -19.26269 -19.19083
 Alpha  occ. eigenvalues --  -19.19077 -19.18847 -19.18597 -19.18236 -19.17950
 Alpha  occ. eigenvalues --  -14.42506 -14.42385 -14.41508 -14.41255 -14.39458
 Alpha  occ. eigenvalues --  -14.39240 -14.38648 -14.38493 -10.39142 -10.39005
 Alpha  occ. eigenvalues --  -10.35479 -10.35273 -10.34456 -10.34128 -10.31730
 Alpha  occ. eigenvalues --  -10.31686 -10.31465 -10.31198 -10.30959 -10.30905
 Alpha  occ. eigenvalues --  -10.30633 -10.30567 -10.30294 -10.30262 -10.30253
 Alpha  occ. eigenvalues --  -10.30036 -10.29982 -10.29800 -10.29689 -10.29321
 Alpha  occ. eigenvalues --  -10.29309 -10.29293 -10.28795 -10.28607 -10.28571
 Alpha  occ. eigenvalues --  -10.28565 -10.28421 -10.28291 -10.28164 -10.28017
 Alpha  occ. eigenvalues --  -10.27890 -10.27853 -10.27783 -10.27638 -10.27565
 Alpha  occ. eigenvalues --  -10.27549 -10.27523 -10.27505 -10.27460 -10.27447
 Alpha  occ. eigenvalues --  -10.27375 -10.27352 -10.27311 -10.27300 -10.27218
 Alpha  occ. eigenvalues --  -10.26951 -10.26747 -10.26594 -10.26426 -10.26284
 Alpha  occ. eigenvalues --  -10.26278 -10.26267 -10.26086 -10.26082 -10.25932
 Alpha  occ. eigenvalues --  -10.25877 -10.25835 -10.25772 -10.25481 -10.25326
 Alpha  occ. eigenvalues --  -10.24895 -10.24843 -10.24785 -10.24764 -10.24678
 Alpha  occ. eigenvalues --  -10.24585  -3.16598  -3.16301  -1.91479  -1.91183
 Alpha  occ. eigenvalues --   -1.91066  -1.90908  -1.90772  -1.90609  -1.16691
 Alpha  occ. eigenvalues --   -1.16562  -1.08696  -1.08560  -1.07246  -1.06861
 Alpha  occ. eigenvalues --   -1.06849  -1.06705  -1.04636  -1.04383  -1.03818
 Alpha  occ. eigenvalues --   -1.03555  -1.03292  -1.02933  -1.02470  -1.02004
 Alpha  occ. eigenvalues --   -0.92031  -0.91881  -0.89585  -0.89405  -0.89236
 Alpha  occ. eigenvalues --   -0.89036  -0.88348  -0.88136  -0.87939  -0.87728
 Alpha  occ. eigenvalues --   -0.87695  -0.87575  -0.87320  -0.86995  -0.85031
 Alpha  occ. eigenvalues --   -0.84890  -0.84002  -0.83798  -0.83008  -0.82818
 Alpha  occ. eigenvalues --   -0.82696  -0.82542  -0.81643  -0.81503  -0.80650
 Alpha  occ. eigenvalues --   -0.80341  -0.78851  -0.78519  -0.77277  -0.77039
 Alpha  occ. eigenvalues --   -0.76988  -0.76803  -0.75977  -0.75729  -0.74955
 Alpha  occ. eigenvalues --   -0.74714  -0.72835  -0.72595  -0.71726  -0.71476
 Alpha  occ. eigenvalues --   -0.69978  -0.69684  -0.68923  -0.68719  -0.67695
 Alpha  occ. eigenvalues --   -0.67497  -0.67263  -0.67092  -0.65339  -0.65166
 Alpha  occ. eigenvalues --   -0.64912  -0.64677  -0.64670  -0.64554  -0.64331
 Alpha  occ. eigenvalues --   -0.64116  -0.62356  -0.62188  -0.60492  -0.60227
 Alpha  occ. eigenvalues --   -0.59856  -0.59684  -0.59045  -0.58891  -0.58562
 Alpha  occ. eigenvalues --   -0.58324  -0.57646  -0.57458  -0.57366  -0.57139
 Alpha  occ. eigenvalues --   -0.56368  -0.56098  -0.56032  -0.55792  -0.55569
 Alpha  occ. eigenvalues --   -0.55402  -0.55344  -0.55164  -0.54586  -0.54406
 Alpha  occ. eigenvalues --   -0.53943  -0.53800  -0.53354  -0.53269  -0.53126
 Alpha  occ. eigenvalues --   -0.53034  -0.52972  -0.52802  -0.52797  -0.52541
 Alpha  occ. eigenvalues --   -0.52513  -0.52332  -0.51991  -0.51796  -0.51663
 Alpha  occ. eigenvalues --   -0.51547  -0.51258  -0.51105  -0.50610  -0.50349
 Alpha  occ. eigenvalues --   -0.50092  -0.49962  -0.49867  -0.49771  -0.49561
 Alpha  occ. eigenvalues --   -0.49374  -0.49271  -0.49148  -0.49091  -0.48997
 Alpha  occ. eigenvalues --   -0.48650  -0.48517  -0.48489  -0.48455  -0.48290
 Alpha  occ. eigenvalues --   -0.48223  -0.47746  -0.47486  -0.47348  -0.47007
 Alpha  occ. eigenvalues --   -0.46857  -0.46611  -0.46603  -0.46445  -0.46418
 Alpha  occ. eigenvalues --   -0.46224  -0.46167  -0.45994  -0.45886  -0.45731
 Alpha  occ. eigenvalues --   -0.45259  -0.45118  -0.44640  -0.44554  -0.44418
 Alpha  occ. eigenvalues --   -0.44368  -0.44204  -0.44138  -0.44070  -0.44021
 Alpha  occ. eigenvalues --   -0.43982  -0.43826  -0.43555  -0.43465  -0.43438
 Alpha  occ. eigenvalues --   -0.43282  -0.43085  -0.42840  -0.42805  -0.42758
 Alpha  occ. eigenvalues --   -0.42721  -0.42463  -0.42074  -0.41877  -0.41762
 Alpha  occ. eigenvalues --   -0.41583  -0.41568  -0.41358  -0.41194  -0.40923
 Alpha  occ. eigenvalues --   -0.40882  -0.40859  -0.40632  -0.40616  -0.40590
 Alpha  occ. eigenvalues --   -0.40406  -0.40275  -0.40122  -0.39515  -0.39354
 Alpha  occ. eigenvalues --   -0.38527  -0.38264  -0.37795  -0.37553  -0.37380
 Alpha  occ. eigenvalues --   -0.37314  -0.37173  -0.37090  -0.36774  -0.36688
 Alpha  occ. eigenvalues --   -0.36252  -0.36126  -0.34345  -0.34148  -0.33833
 Alpha  occ. eigenvalues --   -0.33773  -0.33245  -0.33069  -0.31378  -0.31158
 Alpha  occ. eigenvalues --   -0.31091  -0.30865  -0.30096  -0.29856  -0.29503
 Alpha  occ. eigenvalues --   -0.29384  -0.29212  -0.29104  -0.24138  -0.23928
 Alpha  occ. eigenvalues --   -0.21186  -0.21008
 Alpha virt. eigenvalues --   -0.08831  -0.08680  -0.01805  -0.01576  -0.00105
 Alpha virt. eigenvalues --    0.00089   0.02137   0.02308   0.03054   0.03323
 Alpha virt. eigenvalues --    0.04666   0.04839   0.05036   0.05253   0.06137

 Mulliken charges:
               1
     1  Mg   0.838626
     2  C   -0.002962
     3  C   -0.094077
     4  C   -0.045802
     5  C   -0.064148
     6  N   -0.256807
     7  C   -0.052484
     8  C   -0.014028
     9  C   -0.086995
    10  C    0.046397
    11  C    0.104770
    12  C    0.053450
    13  C   -0.071982
    14  H    0.036478
    15  N   -0.433222
    16  C    0.168529
    17  C   -0.177026
    18  C   -0.003806
    19  C    0.148777
    20  C    0.110154
    21  C    0.012487
    22  O   -0.249195
    23  C    0.062394
    24  N   -0.341121
    25  C    0.041283
    26  C   -0.028312
    27  C   -0.023883
    28  C    0.074707
    29  C    0.076088
    30  C    0.035181
    31  C   -0.004450
    32  N   -0.310349
    33  C    0.080171
    34  C   -0.170232
    35  C    0.008227
    36  C    0.082744
    37  C    0.127448
    38  C    0.045830
    39  O   -0.188801
    40  C   -0.005191
    41  C    0.212815
    42  O   -0.257350
    43  O   -0.304735
    44  C    0.157697
    45  H   -0.017406
    46  H   -0.016537
    47  H   -0.041835
    48  H    0.000976
    49  H   -0.003908
    50  H    0.025498
    51  H    0.016476
    52  H    0.016823
    53  H    0.011182
    54  H    0.044070
    55  H    0.017900
    56  H    0.018017
    57  H    0.005940
    58  H    0.027078
    59  H    0.039695
    60  H    0.037357
    61  H    0.036214
    62  H    0.031486
    63  H    0.016788
    64  H    0.009487
    65  H    0.023521
    66  H    0.012667
    67  H    0.004761
    68  H    0.006606
    69  H    0.004293
    70  H    0.009380
    71  H    0.017016
    72  H    0.028906
    73  H    0.046923
    74  H    0.008763
    75  H    0.046139
    76  H    0.035243
    77  H    0.042932
    78  H    0.046657
    79  H    0.053601
    80  Mg   0.838004
    81  C   -0.016825
    82  C   -0.087349
    83  C   -0.045196
    84  C   -0.065053
    85  N   -0.254569
    86  C   -0.049825
    87  C   -0.015124
    88  C   -0.090509
    89  C    0.045664
    90  C    0.114138
    91  C    0.062541
    92  C   -0.077758
    93  H    0.034518
    94  N   -0.423670
    95  C    0.162940
    96  C   -0.173689
    97  C   -0.007599
    98  C    0.152374
    99  C    0.098949
   100  C    0.015850
   101  O   -0.253387
   102  C    0.061112
   103  N   -0.350010
   104  C    0.037701
   105  C   -0.019873
   106  C   -0.034593
   107  C    0.088798
   108  C    0.073651
   109  C    0.034844
   110  C   -0.007601
   111  N   -0.324003
   112  C    0.078292
   113  C   -0.163428
   114  C    0.002203
   115  C    0.096055
   116  C    0.131504
   117  C    0.042253
   118  O   -0.188251
   119  C    0.000951
   120  C    0.211204
   121  O   -0.251146
   122  O   -0.305595
   123  C    0.152100
   124  H   -0.018675
   125  H   -0.015631
   126  H   -0.041044
   127  H   -0.000820
   128  H   -0.004318
   129  H    0.022262
   130  H    0.015566
   131  H    0.016492
   132  H    0.013908
   133  H    0.037508
   134  H    0.020687
   135  H    0.019668
   136  H    0.009159
   137  H    0.027559
   138  H    0.039570
   139  H    0.039081
   140  H    0.036157
   141  H    0.033653
   142  H    0.014176
   143  H    0.011847
   144  H    0.024707
   145  H    0.012668
   146  H    0.004961
   147  H    0.005795
   148  H    0.003288
   149  H    0.010863
   150  H    0.017633
   151  H    0.030370
   152  H    0.045730
   153  H    0.008045
   154  H    0.046796
   155  H    0.035102
   156  H    0.043721
   157  H    0.049474
   158  H    0.053446
 Sum of Mulliken charges =  -0.00000

 Dipole moment (field-independent basis, Debye):
    X=              4.3510    Y=              1.3211    Z=              0.6820  Tot=              4.5980
 Quadrupole moment (field-independent basis, Debye-Ang):
   XX=           -521.7614   YY=           -542.5081   ZZ=           -454.9500
   XY=            -20.0622   XZ=             57.5963   YZ=             38.0641

 Normal termination of Gaussian 16 at Sat Sep  4 07:43:59 2021.
