 Gaussian 16, Revision A.03,
 Gaussian 16:  ES64L-G16RevA.03 25-Dec-2016

 -----------------------------------
 #p cam-b3lyp/Def2SVP td=(nstates=5)
 -----------------------------------

 --------------------------------
 TDDFT excited states in gaussian
 --------------------------------
 Symbolic Z-matrix:
 Charge =  0 Multiplicity = 1

                         Standard orientation:
 ---------------------------------------------------------------------
 Center     Atomic      Atomic             Coordinates (Angstroms)
 Number     Number       Type             X           Y           Z
 ---------------------------------------------------------------------
      1         12           0       -4.320135   -0.912363    0.241964
      2          6           0       -4.604433    1.909460    2.425699
      3          6           0       -5.430794    1.109547   -2.272272
      4          6           0       -4.511536   -3.488160   -1.597943
      5          6           0       -4.335376   -2.927681    3.085188
      6          7           0       -4.908340    1.221489    0.205420
      7          6           0       -4.914845    2.207504    1.096993
      8          6           0       -5.209344    3.603838    0.471778
      9          6           0       -5.991318    3.134266   -0.835899
     10          6           0       -5.382778    1.752700   -0.999841
     11          6           0       -7.494991    2.986985   -0.626674
     12          6           0       -3.899374    4.380607    0.107994
     13          6           0       -4.086581    5.868935   -0.200532
     14          1           0       -3.048422    6.804243    0.205388
     15          7           0       -4.414047   -1.078145   -1.724390
     16          6           0       -4.879231   -0.149448   -2.594109
     17          6           0       -4.739915   -0.745667   -3.940139
     18          6           0       -4.333110   -2.167968   -3.767912
     19          6           0       -4.429992   -2.310763   -2.337667
     20          6           0       -4.936915    0.028384   -5.207335
     21          6           0       -3.932367   -3.232882   -4.739250
     22          8           0       -3.842303   -4.462654   -4.401428
     23          6           0       -3.731261   -2.806192   -6.135865
     24          7           0       -4.631553   -2.934259    0.657403
     25          6           0       -4.611176   -3.850086   -0.317190
     26          6           0       -4.572778   -5.241496    0.241776
     27          6           0       -4.324891   -5.080810    1.811007
     28          6           0       -4.346843   -3.534681    1.896286
     29          6           0       -5.829267   -6.091554    0.008007
     30          6           0       -3.112796   -5.835539    2.412361
     31          6           0       -1.825575   -5.239715    1.887810
     32          7           0       -4.267828   -0.593631    2.388291
     33          6           0       -4.305122   -1.576614    3.387805
     34          6           0       -4.357534   -0.873935    4.683012
     35          6           0       -4.363861    0.477722    4.344149
     36          6           0       -4.344791    0.610653    2.926313
     37          6           0       -4.450398   -1.489993    5.962185
     38          6           0       -4.407168    1.840324    4.849420
     39          8           0       -4.341504    2.353047    5.967587
     40          6           0       -4.687655    2.819849    3.625620
     41          6           0       -3.704030    3.954508    3.716946
     42          8           0       -2.483146    3.757852    3.549214
     43          8           0       -4.370244    5.118820    3.749800
     44          6           0       -3.451817    6.287123    3.810723
     45          1           0       -5.990897    1.581922   -3.081647
     46          1           0       -4.468191   -4.403387   -2.192012
     47          1           0       -4.256866   -3.489676    4.017631
     48          1           0       -5.848476    4.247096    1.076883
     49          1           0       -5.753995    3.757578   -1.697805
     50          1           0       -7.764614    3.104627    0.422795
     51          1           0       -7.739949    1.982506   -0.972376
     52          1           0       -8.044988    3.669479   -1.275120
     53          1           0       -3.533516    4.035281   -0.858938
     54          1           0       -3.152282    4.266594    0.894239
     55          1           0       -5.066456    6.222560    0.121497
     56          1           0       -4.095548    5.994800   -1.283250
     57          1           0       -5.390872    1.000036   -5.016651
     58          1           0       -5.680860   -0.508211   -5.795824
     59          1           0       -4.013438    0.121661   -5.779019
     60          1           0       -4.653696   -2.364672   -6.513651
     61          1           0       -3.361963   -3.682305   -6.667745
     62          1           0       -2.980965   -2.015323   -6.158885
     63          1           0       -3.754642   -5.814836   -0.192230
     64          1           0       -5.174330   -5.431996    2.397347
     65          1           0       -5.632627   -7.030260   -0.510519
     66          1           0       -6.549191   -5.485032   -0.540746
     67          1           0       -6.391890   -6.333163    0.909394
     68          1           0       -3.129024   -6.881765    2.108889
     69          1           0       -3.085105   -5.806586    3.501694
     70          1           0       -1.698414   -5.740802    0.928866
     71          1           0       -0.998498   -5.468679    2.560662
     72          1           0       -1.933281   -4.173682    1.686664
     73          1           0       -3.755327   -0.955294    6.609442
     74          1           0       -4.206406   -2.550790    5.909450
     75          1           0       -5.500449   -1.314129    6.195257
     76          1           0       -5.717277    3.161454    3.727138
     77          1           0       -3.731258    6.869642    4.688686
     78          1           0       -3.509359    6.777528    2.838819
     79          1           0       -2.406972    6.067804    4.033291
     80         12           0        4.645907   -0.349445   -0.136185
     81          6           0        3.303456    1.905957   -2.583654
     82          6           0        6.481159    2.268811    1.051751
     83          6           0        6.178687   -2.402108    1.735870
     84          6           0        3.613268   -2.970420   -2.187975
     85          7           0        4.787240    1.765619   -0.767691
     86          6           0        4.183952    2.523459   -1.671050
     87          6           0        4.483100    4.041058   -1.540741
     88          6           0        5.890865    3.943698   -0.774178
     89          6           0        5.702698    2.592127   -0.088238
     90          6           0        7.081476    3.841240   -1.712944
     91          6           0        3.408922    4.789957   -0.676278
     92          6           0        3.464787    6.316793   -0.762320
     93          1           0        2.210807    7.063250   -0.709354
     94          7           0        5.732031   -0.035935    1.494945
     95          6           0        6.389331    1.094057    1.830131
     96          6           0        7.052515    0.808602    3.111871
     97          6           0        6.868137   -0.634725    3.424197
     98          6           0        6.256945   -1.094776    2.193391
     99          6           0        7.704294    1.873208    3.945663
    100          6           0        7.200152   -1.466179    4.626128
    101          8           0        7.168755   -2.746969    4.588413
    102          6           0        7.653334   -0.739464    5.821123
    103          7           0        5.055925   -2.380298   -0.308955
    104          6           0        5.693525   -3.042752    0.672140
    105          6           0        5.631868   -4.535435    0.451912
    106          6           0        4.608305   -4.749255   -0.758120
    107          6           0        4.310613   -3.273187   -1.101600
    108          6           0        6.960550   -5.214374    0.120244
    109          6           0        3.410550   -5.705583   -0.506106
    110          6           0        2.473021   -5.100802    0.514021
    111          7           0        3.481417   -0.542136   -1.945852
    112          6           0        3.191729   -1.730646   -2.651268
    113          6           0        2.467987   -1.342647   -3.879302
    114          6           0        2.406536    0.057521   -3.814010
    115          6           0        3.064457    0.511479   -2.639045
    116          6           0        2.011583   -2.232497   -4.892210
    117          6           0        1.943984    1.255383   -4.477220
    118          8           0        1.249247    1.487935   -5.465648
    119          6           0        2.614464    2.513314   -3.774041
    120          6           0        1.536806    3.530517   -3.516242
    121          8           0        0.616829    3.287536   -2.715470
    122          8           0        1.886460    4.697367   -4.087703
    123          6           0        0.853983    5.741104   -3.850127
    124          1           0        7.266900    2.960579    1.356640
    125          1           0        6.596200   -3.160591    2.402088
    126          1           0        3.171740   -3.735413   -2.830252
    127          1           0        4.607784    4.561977   -2.482479
    128          1           0        5.994211    4.734796   -0.036047
    129          1           0        6.774524    3.731464   -2.742450
    130          1           0        7.637428    2.971134   -1.389071
    131          1           0        7.748975    4.695814   -1.569860
    132          1           0        3.645757    4.652888    0.386675
    133          1           0        2.420690    4.450302   -0.918446
    134          1           0        4.081182    6.660034   -1.602078
    135          1           0        3.982328    6.695515    0.122411
    136          1           0        7.827746    2.806220    3.382068
    137          1           0        8.728163    1.539811    4.146676
    138          1           0        7.192441    2.035746    4.896582
    139          1           0        8.541509   -0.161485    5.577110
    140          1           0        7.756288   -1.495861    6.601595
    141          1           0        6.878423   -0.019761    6.107746
    142          1           0        5.248341   -5.040382    1.330002
    143          1           0        5.103785   -5.183132   -1.639081
    144          1           0        7.222445   -6.027791    0.822987
    145          1           0        7.735507   -4.459529    0.106491
    146          1           0        7.027719   -5.632724   -0.882597
    147          1           0        3.762292   -6.649744   -0.083050
    148          1           0        2.851532   -5.943819   -1.404850
    149          1           0        2.937282   -5.371723    1.466997
    150          1           0        1.478115   -5.531975    0.422968
    151          1           0        2.471638   -4.006633    0.447305
    152          1           0        1.012789   -1.913985   -5.159518
    153          1           0        2.021930   -3.264805   -4.548690
    154          1           0        2.762631   -2.049630   -5.665356
    155          1           0        3.383729    2.893554   -4.447260
    156          1           0        0.553974    6.122825   -4.830929
    157          1           0        1.313856    6.461922   -3.148207
    158          1           0       -0.099574    5.420294   -3.447313
 ---------------------------------------------------------------------

 SCF Done:  E(RCAM-B3LYP) =  -4069.81268610     A.U. after   19 cycles

 Excitation energies and oscillator strengths:

 Excited State   1:      Singlet-A      1.6471 eV  752.76 nm  f=0.0699  <S**2>=0.000
     309 -> 315        0.12441
     310 -> 316        0.11015
     311 -> 313        0.51361
     312 -> 314        0.45743
 This state for optimization and/or second-order correction.
 Total Energy, E(TD-HF/TD-DFT) =  -4069.75215768
 Copying the excited state density for this state as the 1-particle RhoCI density.

 Excited State   2:      Singlet-A      1.7039 eV  727.67 nm  f=0.6485  <S**2>=0.000
     309 -> 315       -0.12021
     310 -> 316        0.13509
     311 -> 313       -0.45504
     312 -> 314        0.51098

 Excited State   3:      Singlet-A      2.1806 eV  568.58 nm  f=0.0139  <S**2>=0.000
     309 -> 313        0.55730
     310 -> 314       -0.32535
     311 -> 315       -0.23164
     312 -> 316        0.13376

 Excited State   4:      Singlet-A      2.1959 eV  564.61 nm  f=0.1599  <S**2>=0.000
     309 -> 313        0.32129
     310 -> 314        0.55243
     311 -> 315       -0.14153
     312 -> 316       -0.24222

 Excited State   5:      Singlet-A      2.3609 eV  525.15 nm  f=0.0000  <S**2>=0.000
     312 -> 313        0.70676

 The electronic state is 1-A.
 Alpha  occ. eigenvalues --  -46.87545 -46.87324 -19.26457 -19.25991 -19.19239
 Alpha  occ. eigenvalues --  -19.18687 -19.18597 -19.18398 -19.18085 -19.17787
 Alpha  occ. eigenvalues --  -14.42384 -14.41980 -14.41256 -14.41017 -14.39238
 Alpha  occ. eigenvalues --  -14.38923 -14.38504 -14.38138 -10.39156 -10.38744
 Alpha  occ. eigenvalues --  -10.35271 -10.35025 -10.34259 -10.34009 -10.31936
 Alpha  occ. eigenvalues --  -10.31458 -10.31223 -10.30957 -10.30916 -10.30426
 Alpha  occ. eigenvalues --  -10.30304 -10.30275 -10.30116 -10.30085 -10.30016
 Alpha  occ. eigenvalues --  -10.29806 -10.29775 -10.29541 -10.29320 -10.29310
 Alpha  occ. eigenvalues --  -10.29197 -10.28785 -10.28622 -10.28573 -10.28316
 Alpha  occ. eigenvalues --  -10.28279 -10.28170 -10.28049 -10.27922 -10.27900
 Alpha  occ. eigenvalues --  -10.27668 -10.27563 -10.27402 -10.27394 -10.27367
 Alpha  occ. eigenvalues --  -10.27343 -10.27330 -10.27277 -10.27259 -10.27193
 Alpha  occ. eigenvalues --  -10.27158 -10.27122 -10.27058 -10.26963 -10.26863
 Alpha  occ. eigenvalues --  -10.26781 -10.26549 -10.26265 -10.26130 -10.26000
 Alpha  occ. eigenvalues --  -10.25960 -10.25952 -10.25916 -10.25853 -10.25821
 Alpha  occ. eigenvalues --  -10.25811 -10.25595 -10.25497 -10.25315 -10.25175
 Alpha  occ. eigenvalues --  -10.24804 -10.24595 -10.24580 -10.24497 -10.24397
 Alpha  occ. eigenvalues --  -10.24372  -3.16294  -3.16064  -1.91175  -1.90945
 Alpha  occ. eigenvalues --   -1.90765  -1.90602  -1.90533  -1.90375  -1.16743
 Alpha  occ. eigenvalues --   -1.16331  -1.08707  -1.08256  -1.07024  -1.06847
 Alpha  occ. eigenvalues --   -1.06806  -1.06313  -1.04391  -1.04115  -1.03558
 Alpha  occ. eigenvalues --   -1.03324  -1.02938  -1.02784  -1.02014  -1.01969
 Alpha  occ. eigenvalues --   -0.91925  -0.91548  -0.89392  -0.89164  -0.89054
 Alpha  occ. eigenvalues --   -0.88732  -0.88116  -0.87938  -0.87724  -0.87580
 Alpha  occ. eigenvalues --   -0.87457  -0.87215  -0.87003  -0.86779  -0.84904
 Alpha  occ. eigenvalues --   -0.84541  -0.83783  -0.83627  -0.82815  -0.82567
 Alpha  occ. eigenvalues --   -0.82532  -0.82223  -0.81594  -0.81225  -0.80388
 Alpha  occ. eigenvalues --   -0.80187  -0.78535  -0.78326  -0.77050  -0.76846
 Alpha  occ. eigenvalues --   -0.76822  -0.76552  -0.75792  -0.75529  -0.74726
 Alpha  occ. eigenvalues --   -0.74553  -0.72610  -0.72354  -0.71504  -0.71272
 Alpha  occ. eigenvalues --   -0.69654  -0.69595  -0.68740  -0.68445  -0.67524
 Alpha  occ. eigenvalues --   -0.67220  -0.67089  -0.66756  -0.65195  -0.64849
 Alpha  occ. eigenvalues --   -0.64706  -0.64588  -0.64455  -0.64236  -0.64109
 Alpha  occ. eigenvalues --   -0.63895  -0.62286  -0.61955  -0.60231  -0.59995
 Alpha  occ. eigenvalues --   -0.59703  -0.59352  -0.58914  -0.58579  -0.58363
 Alpha  occ. eigenvalues --   -0.58097  -0.57561  -0.57209  -0.57154  -0.56925
 Alpha  occ. eigenvalues --   -0.56138  -0.55888  -0.55887  -0.55626  -0.55393
 Alpha  occ. eigenvalues --   -0.55193  -0.55093  -0.55013  -0.54451  -0.54202
 Alpha  occ. eigenvalues --   -0.53817  -0.53443  -0.53143  -0.53082  -0.52895
 Alpha  occ. eigenvalues --   -0.52842  -0.52781  -0.52552  -0.52527  -0.52290
 Alpha  occ. eigenvalues --   -0.52279  -0.52142  -0.51843  -0.51563  -0.51538
 Alpha  occ. eigenvalues --   -0.51155  -0.51154  -0.50813  -0.50344  -0.50066
 Alpha  occ. eigenvalues --   -0.49877  -0.49769  -0.49661  -0.49463  -0.49397
 Alpha  occ. eigenvalues --   -0.49141  -0.49088  -0.49056  -0.48796  -0.48691
 Alpha  occ. eigenvalues --   -0.48525  -0.48328  -0.48237  -0.48224  -0.48114
 Alpha  occ. eigenvalues --   -0.48014  -0.47517  -0.47284  -0.47031  -0.46872
 Alpha  occ. eigenvalues --   -0.46622  -0.46465  -0.46404  -0.46194  -0.46127
 Alpha  occ. eigenvalues --   -0.46023  -0.45940  -0.45801  -0.45793  -0.45466
 Alpha  occ. eigenvalues --   -0.45124  -0.44857  -0.44479  -0.44383  -0.44209
 Alpha  occ. eigenvalues --   -0.44087  -0.44086  -0.43990  -0.43854  -0.43762
 Alpha  occ. eigenvalues --   -0.43697  -0.43591  -0.43563  -0.43307  -0.43139
 Alpha  occ. eigenvalues --   -0.42970  -0.42961  -0.42845  -0.42637  -0.42444
 Alpha  occ. eigenvalues --   -0.42373  -0.42342  -0.41867  -0.41656  -0.41622
 Alpha  occ. eigenvalues --   -0.41364  -0.41305  -0.41119  -0.40911  -0.40741
 Alpha  occ. eigenvalues --   -0.40617  -0.40583  -0.40481  -0.40395  -0.40382
 Alpha  occ. eigenvalues --   -0.40218  -0.40105  -0.39731  -0.39333  -0.39121
 Alpha  occ. eigenvalues --   -0.38245  -0.38118  -0.37560  -0.37314  -0.37169
 Alpha  occ. eigenvalues --   -0.37106  -0.36938  -0.36812  -0.36810  -0.36383
 Alpha  occ. eigenvalues --   -0.36147  -0.35825  -0.34167  -0.33904  -0.33849
 Alpha  occ. eigenvalues --   -0.33417  -0.33083  -0.32750  -0.31157  -0.30931
 Alpha  occ. eigenvalues --   -0.30880  -0.30605  -0.29995  -0.29652  -0.29233
 Alpha  occ. eigenvalues --   -0.29133  -0.28988  -0.28875  -0.23936  -0.23633
 Alpha  occ. eigenvalues --   -0.21016  -0.20680
 Alpha virt. eigenvalues --   -0.08699  -0.08320  -0.01575  -0.01310   0.00070
 Alpha virt. eigenvalues --    0.00399   0.02248   0.02597   0.03166   0.04035
 Alpha virt. eigenvalues --    0.04821   0.05107   0.05147   0.05444   0.06196

 Mulliken charges:
               1
     1  Mg   0.842851
     2  C   -0.002044
     3  C   -0.089910
     4  C   -0.047256
     5  C   -0.064827
     6  N   -0.256774
     7  C   -0.051319
     8  C   -0.015030
     9  C   -0.087965
    10  C    0.048855
    11  C    0.105029
    12  C    0.052559
    13  C   -0.070040
    14  H    0.031656
    15  N   -0.433192
    16  C    0.171794
    17  C   -0.173374
    18  C   -0.003636
    19  C    0.149402
    20  C    0.109705
    21  C    0.011454
    22  O   -0.252230
    23  C    0.060578
    24  N   -0.341146
    25  C    0.041694
    26  C   -0.028185
    27  C   -0.023812
    28  C    0.074206
    29  C    0.076574
    30  C    0.037327
    31  C   -0.010271
    32  N   -0.310039
    33  C    0.079708
    34  C   -0.170868
    35  C    0.007538
    36  C    0.082688
    37  C    0.127584
    38  C    0.045330
    39  O   -0.190660
    40  C   -0.005442
    41  C    0.212550
    42  O   -0.256620
    43  O   -0.304885
    44  C    0.158607
    45  H   -0.018168
    46  H   -0.018408
    47  H   -0.042951
    48  H   -0.000813
    49  H   -0.003544
    50  H    0.024726
    51  H    0.016074
    52  H    0.015678
    53  H    0.020351
    54  H    0.045111
    55  H    0.016207
    56  H    0.016759
    57  H    0.005680
    58  H    0.024667
    59  H    0.047479
    60  H    0.037059
    61  H    0.033535
    62  H    0.037531
    63  H    0.014917
    64  H    0.008783
    65  H    0.022020
    66  H    0.012708
    67  H    0.004195
    68  H    0.004605
    69  H    0.004243
    70  H    0.009148
    71  H    0.020028
    72  H    0.031139
    73  H    0.046336
    74  H    0.008311
    75  H    0.044980
    76  H    0.034234
    77  H    0.041586
    78  H    0.046190
    79  H    0.052432
    80  Mg   0.840301
    81  C   -0.016559
    82  C   -0.087221
    83  C   -0.045380
    84  C   -0.064713
    85  N   -0.254729
    86  C   -0.049131
    87  C   -0.015773
    88  C   -0.090810
    89  C    0.046788
    90  C    0.114457
    91  C    0.062364
    92  C   -0.077332
    93  H    0.033388
    94  N   -0.423514
    95  C    0.164251
    96  C   -0.174034
    97  C   -0.007179
    98  C    0.152709
    99  C    0.099390
   100  C    0.016224
   101  O   -0.253302
   102  C    0.060751
   103  N   -0.350106
   104  C    0.037788
   105  C   -0.019948
   106  C   -0.034386
   107  C    0.088539
   108  C    0.073772
   109  C    0.034319
   110  C   -0.010020
   111  N   -0.323820
   112  C    0.077962
   113  C   -0.163028
   114  C    0.000653
   115  C    0.096367
   116  C    0.132084
   117  C    0.041696
   118  O   -0.192347
   119  C    0.001162
   120  C    0.210021
   121  O   -0.250608
   122  O   -0.305317
   123  C    0.153201
   124  H   -0.019768
   125  H   -0.015616
   126  H   -0.039807
   127  H   -0.001701
   128  H   -0.003964
   129  H    0.021977
   130  H    0.014384
   131  H    0.016052
   132  H    0.016609
   133  H    0.038711
   134  H    0.019703
   135  H    0.020141
   136  H    0.008800
   137  H    0.025839
   138  H    0.041282
   139  H    0.037913
   140  H    0.036394
   141  H    0.035384
   142  H    0.014420
   143  H    0.012219
   144  H    0.024926
   145  H    0.011453
   146  H    0.005546
   147  H    0.005426
   148  H    0.004535
   149  H    0.009874
   150  H    0.020646
   151  H    0.030512
   152  H    0.042483
   153  H    0.011291
   154  H    0.046110
   155  H    0.034567
   156  H    0.042259
   157  H    0.050564
   158  H    0.050905
 Sum of Mulliken charges =  -0.00000

 Dipole moment (field-independent basis, Debye):
    X=              1.5411    Y=              3.1920    Z=             -2.3194  Tot=              4.2360
 Quadrupole moment (field-independent basis, Debye-Ang):
   XX=           -473.7766   YY=           -463.2637   ZZ=           -540.0007
   XY=             15.0679   XZ=             16.3141   YZ=            -13.3546

 Normal termination of Gaussian 16 at Thu Sep  9 19:20:07 2021.
