 Gaussian 16, Revision A.03,
 Gaussian 16:  ES64L-G16RevA.03 25-Dec-2016

 -----------------------------------
 #p cam-b3lyp/Def2SVP td=(nstates=5)
 -----------------------------------

 --------------------------------
 TDDFT excited states in gaussian
 --------------------------------
 Symbolic Z-matrix:
 Charge =  0 Multiplicity = 1

                         Standard orientation:
 ---------------------------------------------------------------------
 Center     Atomic      Atomic             Coordinates (Angstroms)
 Number     Number       Type             X           Y           Z
 ---------------------------------------------------------------------
      1         12           0        4.655861   -0.157051   -0.096376
      2          6           0        4.151528   -3.678904   -0.489329
      3          6           0        5.365575   -0.037249   -3.431795
      4          6           0        5.546227    2.859064    0.312188
      5          6           0        5.020801   -0.739955    3.320157
      6          7           0        4.715687   -1.726032   -1.656942
      7          6           0        4.443406   -3.026793   -1.689414
      8          6           0        4.423151   -3.617968   -3.130759
      9          6           0        5.355542   -2.546700   -3.855349
     10          6           0        5.104835   -1.354158   -2.949306
     11          6           0        6.839061   -2.897754   -3.806005
     12          6           0        2.983607   -3.634180   -3.746536
     13          6           0        2.822355   -4.486581   -5.008584
     14          1           0        1.572137   -5.201738   -5.215593
     15          7           0        4.879120    1.301981   -1.409477
     16          6           0        5.148111    1.168473   -2.730501
     17          6           0        5.219402    2.542338   -3.272806
     18          6           0        5.158284    3.488594   -2.124347
     19          6           0        5.219289    2.575482   -1.011746
     20          6           0        5.284157    2.846193   -4.738149
     21          6           0        5.070991    4.979843   -2.042565
     22          8           0        5.262992    5.613450   -0.948833
     23          6           0        4.839198    5.694857   -3.310662
     24          7           0        5.423649    0.887738    1.539641
     25          6           0        5.669533    2.200431    1.466416
     26          6           0        5.940040    2.781747    2.822453
     27          6           0        5.587367    1.633161    3.874178
     28          6           0        5.233499    0.501530    2.877956
     29          6           0        7.373400    3.273951    3.065813
     30          6           0        4.565005    1.985454    4.983720
     31          6           0        3.198510    2.201073    4.372739
     32          7           0        4.427769   -1.855064    1.236204
     33          6           0        4.652924   -1.876893    2.620221
     34          6           0        4.474202   -3.271267    3.065023
     35          6           0        4.171797   -3.971210    1.898629
     36          6           0        4.188025   -3.075813    0.791248
     37          6           0        4.652016   -3.751874    4.392364
     38          6           0        3.862954   -5.271716    1.326653
     39          8           0        3.623660   -6.387931    1.789572
     40          6           0        3.957297   -5.156973   -0.258832
     41          6           0        2.726887   -5.802810   -0.835283
     42          8           0        1.598179   -5.300823   -0.658103
     43          8           0        3.091828   -6.766169   -1.695108
     44          6           0        1.917987   -7.427502   -2.325101
     45          1           0        5.833306    0.083176   -4.410910
     46          1           0        5.751813    3.912137    0.515187
     47          1           0        5.035764   -0.982370    4.384330
     48          1           0        4.860019   -4.612743   -3.220167
     49          1           0        5.016307   -2.330932   -4.868308
     50          1           0        7.022936   -3.762028   -3.167929
     51          1           0        7.333946   -2.014273   -3.402219
     52          1           0        7.238991   -3.032010   -4.811395
     53          1           0        2.757197   -2.650182   -4.157079
     54          1           0        2.249630   -3.947841   -3.003420
     55          1           0        3.672444   -5.154691   -5.149605
     56          1           0        2.851716   -3.824455   -5.873990
     57          1           0        5.482120    1.949885   -5.324654
     58          1           0        6.161968    3.472758   -4.894910
     59          1           0        4.393208    3.367207   -5.088983
     60          1           0        5.645379    5.463132   -4.007027
     61          1           0        4.716423    6.744477   -3.045950
     62          1           0        3.922928    5.318052   -3.766093
     63          1           0        5.304781    3.646190    3.011164
     64          1           0        6.467751    1.295284    4.421387
     65          1           0        7.432436    4.322217    3.359679
     66          1           0        7.951649    3.088260    2.161137
     67          1           0        7.934572    2.700576    3.803204
     68          1           0        4.846146    2.915286    5.476993
     69          1           0        4.480014    1.215631    5.750792
     70          1           0        3.240560    3.238281    4.042190
     71          1           0        2.419900    2.061823    5.123464
     72          1           0        3.056496    1.582170    3.486580
     73          1           0        3.819289   -4.427887    4.586116
     74          1           0        4.672556   -2.932625    5.110704
     75          1           0        5.617000   -4.249859    4.299234
     76          1           0        4.868869   -5.674027   -0.556846
     77          1           0        2.007849   -8.495955   -2.128719
     78          1           0        1.901733   -7.103977   -3.366001
     79          1           0        0.947070   -7.216567   -1.875474
     80         12           0       -4.167065    1.564753    0.447413
     81          6           0       -6.014952   -1.510597    0.366240
     82          6           0       -4.859730    1.895022   -2.876098
     83          6           0       -2.177018    4.035089    0.379681
     84          6           0       -2.689971    0.437920    3.395988
     85          7           0       -5.300945    0.291239   -0.961394
     86          6           0       -6.011113   -0.822638   -0.865067
     87          6           0       -6.824334   -1.179083   -2.138326
     88          6           0       -5.939234   -0.386430   -3.218685
     89          6           0       -5.352867    0.692242   -2.310211
     90          6           0       -4.793854   -1.212052   -3.780638
     91          6           0       -8.292598   -0.628453   -2.083413
     92          6           0       -9.233525   -1.198845   -3.146912
     93          1           0      -10.632601   -1.420229   -2.791877
     94          7           0       -3.990445    3.035781   -0.872988
     95          6           0       -4.342831    3.006853   -2.175389
     96          6           0       -3.991209    4.328750   -2.716776
     97          6           0       -3.251638    5.083285   -1.668706
     98          6           0       -3.089311    4.050356   -0.665319
     99          6           0       -4.425160    4.792712   -4.076865
    100          6           0       -2.759302    6.496590   -1.588812
    101          8           0       -1.932391    6.871422   -0.684083
    102          6           0       -3.200888    7.405970   -2.656291
    103          7           0       -2.499826    2.063821    1.584775
    104          6           0       -1.846494    3.221526    1.382775
    105          6           0       -0.858088    3.490861    2.492237
    106          6           0       -1.157149    2.388051    3.611144
    107          6           0       -2.255350    1.581286    2.884165
    108          6           0        0.617468    3.428600    2.098240
    109          6           0       -1.447037    2.903392    5.047478
    110          6           0       -2.760677    3.651134    5.072202
    111          7           0       -4.435815   -0.116072    1.778067
    112          6           0       -3.692713   -0.409529    2.942445
    113          6           0       -4.167896   -1.715055    3.444677
    114          6           0       -5.146182   -2.104464    2.517424
    115          6           0       -5.257604   -1.121250    1.497434
    116          6           0       -3.665602   -2.399748    4.587049
    117          6           0       -6.102445   -3.128755    2.163729
    118          8           0       -6.512808   -4.156787    2.700826
    119          6           0       -6.618284   -2.850048    0.686358
    120          6           0       -8.118420   -2.960005    0.689676
    121          8           0       -8.810322   -2.147219    1.327847
    122          8           0       -8.495811   -3.866864   -0.229857
    123          6           0       -9.976160   -4.003341   -0.271932
    124          1           0       -4.825467    1.981418   -3.962486
    125          1           0       -1.541943    4.919976    0.464116
    126          1           0       -2.348535    0.064381    4.363758
    127          1           0       -6.849312   -2.234746   -2.380647
    128          1           0       -6.562742    0.060904   -3.988424
    129          1           0       -4.692460   -2.159195   -3.271937
    130          1           0       -3.903827   -0.611912   -3.643797
    131          1           0       -4.911838   -1.334131   -4.861153
    132          1           0       -8.290255    0.427859   -2.381658
    133          1           0       -8.717792   -0.773690   -1.109372
    134          1           0       -8.815035   -2.088446   -3.633160
    135          1           0       -9.325805   -0.469792   -3.955609
    136          1           0       -4.812780    3.962656   -4.680316
    137          1           0       -3.522992    5.116041   -4.607340
    138          1           0       -5.127600    5.627766   -4.032774
    139          1           0       -2.886058    7.011865   -3.619634
    140          1           0       -2.819691    8.390372   -2.377851
    141          1           0       -4.296357    7.426529   -2.667458
    142          1           0       -1.013273    4.474581    2.918047
    143          1           0       -0.305327    1.705961    3.748912
    144          1           0        1.168493    4.361753    2.321127
    145          1           0        0.679650    3.192816    1.044166
    146          1           0        1.182338    2.615291    2.550624
    147          1           0       -0.678389    3.616042    5.356469
    148          1           0       -1.473201    2.114900    5.792196
    149          1           0       -2.481348    4.652085    4.729903
    150          1           0       -3.167133    3.678185    6.081210
    151          1           0       -3.463360    3.236547    4.340090
    152          1           0       -4.524061   -2.780417    5.124290
    153          1           0       -3.064004   -1.742740    5.211700
    154          1           0       -3.061713   -3.171362    4.102067
    155          1           0       -6.155010   -3.589991    0.032564
    156          1           0      -10.204011   -5.062049   -0.114127
    157          1           0      -10.289908   -3.558671   -1.235037
    158          1           0      -10.544828   -3.543155    0.527640
 ---------------------------------------------------------------------

 SCF Done:  E(RCAM-B3LYP) =  -4069.81117217     A.U. after   19 cycles

 Excitation energies and oscillator strengths:

 Excited State   1:      Singlet-A      1.6468 eV  752.87 nm  f=0.0022  <S**2>=0.000
     309 -> 315       -0.11215
     310 -> 316        0.12316
     311 -> 313       -0.46136
     312 -> 314        0.50992
 This state for optimization and/or second-order correction.
 Total Energy, E(TD-HF/TD-DFT) =  -4069.75065281
 Copying the excited state density for this state as the 1-particle RhoCI density.

 Excited State   2:      Singlet-A      1.7050 eV  727.17 nm  f=0.6909  <S**2>=0.000
     309 -> 315        0.13506
     310 -> 316        0.12127
     311 -> 313        0.50726
     312 -> 314        0.45896

 Excited State   3:      Singlet-A      2.1810 eV  568.48 nm  f=0.0377  <S**2>=0.000
     309 -> 313       -0.28466
     310 -> 314        0.57883
     311 -> 315        0.11720
     312 -> 316       -0.24082

 Excited State   4:      Singlet-A      2.1968 eV  564.38 nm  f=0.1436  <S**2>=0.000
     309 -> 313        0.57400
     310 -> 314        0.27991
     311 -> 315       -0.25296
     312 -> 316       -0.12619

 Excited State   5:      Singlet-A      2.3490 eV  527.83 nm  f=0.0000  <S**2>=0.000
     312 -> 313        0.70672

 The electronic state is 1-A.
 Alpha  occ. eigenvalues --  -46.87876 -46.87425 -19.26310 -19.26157 -19.19047
 Alpha  occ. eigenvalues --  -19.18960 -19.18796 -19.18522 -19.18207 -19.17792
 Alpha  occ. eigenvalues --  -14.42526 -14.42268 -14.41546 -14.41122 -14.39468
 Alpha  occ. eigenvalues --  -14.39124 -14.38663 -14.38351 -10.39110 -10.38884
 Alpha  occ. eigenvalues --  -10.35427 -10.35205 -10.34429 -10.33968 -10.31698
 Alpha  occ. eigenvalues --  -10.31591 -10.31488 -10.31073 -10.30970 -10.30815
 Alpha  occ. eigenvalues --  -10.30651 -10.30580 -10.30306 -10.30151 -10.30116
 Alpha  occ. eigenvalues --  -10.30021 -10.29922 -10.29694 -10.29634 -10.29319
 Alpha  occ. eigenvalues --  -10.29211 -10.29166 -10.28822 -10.28637 -10.28530
 Alpha  occ. eigenvalues --  -10.28523 -10.28423 -10.28194 -10.28172 -10.27948
 Alpha  occ. eigenvalues --  -10.27850 -10.27806 -10.27758 -10.27666 -10.27638
 Alpha  occ. eigenvalues --  -10.27582 -10.27535 -10.27471 -10.27451 -10.27337
 Alpha  occ. eigenvalues --  -10.27289 -10.27250 -10.27245 -10.27203 -10.27111
 Alpha  occ. eigenvalues --  -10.26800 -10.26791 -10.26532 -10.26440 -10.26346
 Alpha  occ. eigenvalues --  -10.26303 -10.26293 -10.26124 -10.25994 -10.25914
 Alpha  occ. eigenvalues --  -10.25831 -10.25697 -10.25531 -10.25505 -10.25118
 Alpha  occ. eigenvalues --  -10.25013 -10.24888 -10.24867 -10.24617 -10.24585
 Alpha  occ. eigenvalues --  -10.24445  -3.16619  -3.16174  -1.91500  -1.91087
 Alpha  occ. eigenvalues --   -1.91056  -1.90929  -1.90645  -1.90482  -1.16660
 Alpha  occ. eigenvalues --   -1.16449  -1.08663  -1.08397  -1.07189  -1.06778
 Alpha  occ. eigenvalues --   -1.06743  -1.06670  -1.04654  -1.04267  -1.03847
 Alpha  occ. eigenvalues --   -1.03430  -1.03308  -1.02799  -1.02490  -1.01870
 Alpha  occ. eigenvalues --   -0.92037  -0.91746  -0.89670  -0.89274  -0.89266
 Alpha  occ. eigenvalues --   -0.88956  -0.88423  -0.87988  -0.87937  -0.87755
 Alpha  occ. eigenvalues --   -0.87520  -0.87457  -0.87310  -0.86932  -0.85058
 Alpha  occ. eigenvalues --   -0.84800  -0.84112  -0.83648  -0.83014  -0.82756
 Alpha  occ. eigenvalues --   -0.82706  -0.82458  -0.81645  -0.81380  -0.80657
 Alpha  occ. eigenvalues --   -0.80228  -0.78852  -0.78420  -0.77334  -0.77029
 Alpha  occ. eigenvalues --   -0.76935  -0.76690  -0.75995  -0.75631  -0.75023
 Alpha  occ. eigenvalues --   -0.74553  -0.72861  -0.72458  -0.71751  -0.71355
 Alpha  occ. eigenvalues --   -0.70161  -0.69530  -0.68944  -0.68627  -0.67703
 Alpha  occ. eigenvalues --   -0.67376  -0.67278  -0.67019  -0.65370  -0.65069
 Alpha  occ. eigenvalues --   -0.64941  -0.64720  -0.64547  -0.64451  -0.64395
 Alpha  occ. eigenvalues --   -0.63975  -0.62360  -0.62067  -0.60503  -0.60131
 Alpha  occ. eigenvalues --   -0.59876  -0.59585  -0.59070  -0.58759  -0.58581
 Alpha  occ. eigenvalues --   -0.58198  -0.57638  -0.57395  -0.57315  -0.57012
 Alpha  occ. eigenvalues --   -0.56372  -0.56028  -0.55980  -0.55690  -0.55571
 Alpha  occ. eigenvalues --   -0.55458  -0.55250  -0.55020  -0.54630  -0.54276
 Alpha  occ. eigenvalues --   -0.53970  -0.53720  -0.53378  -0.53264  -0.53023
 Alpha  occ. eigenvalues --   -0.52996  -0.52938  -0.52802  -0.52702  -0.52646
 Alpha  occ. eigenvalues --   -0.52505  -0.52224  -0.51983  -0.51671  -0.51576
 Alpha  occ. eigenvalues --   -0.51470  -0.51293  -0.50975  -0.50607  -0.50318
 Alpha  occ. eigenvalues --   -0.50190  -0.49963  -0.49791  -0.49669  -0.49556
 Alpha  occ. eigenvalues --   -0.49298  -0.49265  -0.49163  -0.48992  -0.48885
 Alpha  occ. eigenvalues --   -0.48661  -0.48549  -0.48460  -0.48340  -0.48162
 Alpha  occ. eigenvalues --   -0.48140  -0.47770  -0.47400  -0.47361  -0.46996
 Alpha  occ. eigenvalues --   -0.46864  -0.46629  -0.46505  -0.46450  -0.46361
 Alpha  occ. eigenvalues --   -0.46269  -0.46037  -0.45893  -0.45816  -0.45582
 Alpha  occ. eigenvalues --   -0.45327  -0.45015  -0.44626  -0.44563  -0.44322
 Alpha  occ. eigenvalues --   -0.44289  -0.44209  -0.44151  -0.44058  -0.43915
 Alpha  occ. eigenvalues --   -0.43872  -0.43732  -0.43564  -0.43475  -0.43341
 Alpha  occ. eigenvalues --   -0.43165  -0.43107  -0.42872  -0.42722  -0.42716
 Alpha  occ. eigenvalues --   -0.42652  -0.42351  -0.42129  -0.41773  -0.41764
 Alpha  occ. eigenvalues --   -0.41616  -0.41437  -0.41266  -0.41216  -0.40968
 Alpha  occ. eigenvalues --   -0.40831  -0.40773  -0.40676  -0.40538  -0.40512
 Alpha  occ. eigenvalues --   -0.40309  -0.40277  -0.40058  -0.39653  -0.39220
 Alpha  occ. eigenvalues --   -0.38594  -0.38107  -0.37832  -0.37469  -0.37439
 Alpha  occ. eigenvalues --   -0.37336  -0.37028  -0.36986  -0.36773  -0.36561
 Alpha  occ. eigenvalues --   -0.36270  -0.35989  -0.34364  -0.34015  -0.33806
 Alpha  occ. eigenvalues --   -0.33654  -0.33261  -0.32940  -0.31334  -0.31103
 Alpha  occ. eigenvalues --   -0.31078  -0.30740  -0.30068  -0.29696  -0.29497
 Alpha  occ. eigenvalues --   -0.29381  -0.29108  -0.28949  -0.24160  -0.23797
 Alpha  occ. eigenvalues --   -0.21207  -0.20882
 Alpha virt. eigenvalues --   -0.08838  -0.08557  -0.01826  -0.01456  -0.00086
 Alpha virt. eigenvalues --    0.00179   0.02139   0.02454   0.02778   0.03496
 Alpha virt. eigenvalues --    0.04631   0.04941   0.05064   0.05375   0.06071

 Mulliken charges:
               1
     1  Mg   0.837257
     2  C   -0.002577
     3  C   -0.094229
     4  C   -0.046353
     5  C   -0.064388
     6  N   -0.256615
     7  C   -0.052619
     8  C   -0.013931
     9  C   -0.087051
    10  C    0.046492
    11  C    0.104779
    12  C    0.053597
    13  C   -0.071560
    14  H    0.035567
    15  N   -0.433630
    16  C    0.169014
    17  C   -0.177113
    18  C   -0.003200
    19  C    0.149596
    20  C    0.110340
    21  C    0.014374
    22  O   -0.248527
    23  C    0.062055
    24  N   -0.341160
    25  C    0.041388
    26  C   -0.028849
    27  C   -0.023725
    28  C    0.072707
    29  C    0.076093
    30  C    0.057931
    31  C   -0.048894
    32  N   -0.310360
    33  C    0.078941
    34  C   -0.170123
    35  C    0.008447
    36  C    0.082944
    37  C    0.127332
    38  C    0.046252
    39  O   -0.187822
    40  C   -0.005464
    41  C    0.213001
    42  O   -0.256840
    43  O   -0.304872
    44  C    0.157452
    45  H   -0.017514
    46  H   -0.016445
    47  H   -0.042181
    48  H    0.001144
    49  H   -0.004269
    50  H    0.025691
    51  H    0.016551
    52  H    0.016710
    53  H    0.010761
    54  H    0.044304
    55  H    0.018211
    56  H    0.017490
    57  H    0.005495
    58  H    0.027117
    59  H    0.039575
    60  H    0.036416
    61  H    0.037335
    62  H    0.032131
    63  H    0.016436
    64  H    0.010269
    65  H    0.023668
    66  H    0.013085
    67  H    0.004901
    68  H    0.006063
    69  H    0.002433
    70  H    0.013251
    71  H    0.019722
    72  H    0.052557
    73  H    0.047677
    74  H    0.008366
    75  H    0.046351
    76  H    0.035296
    77  H    0.043422
    78  H    0.045915
    79  H    0.054220
    80  Mg   0.838239
    81  C   -0.016431
    82  C   -0.088393
    83  C   -0.046981
    84  C   -0.062708
    85  N   -0.254474
    86  C   -0.049093
    87  C   -0.015102
    88  C   -0.090694
    89  C    0.045947
    90  C    0.114570
    91  C    0.062638
    92  C   -0.077494
    93  H    0.034355
    94  N   -0.423227
    95  C    0.162695
    96  C   -0.176012
    97  C   -0.008322
    98  C    0.151542
    99  C    0.100055
   100  C    0.014568
   101  O   -0.252621
   102  C    0.061480
   103  N   -0.349811
   104  C    0.038708
   105  C   -0.026974
   106  C   -0.032503
   107  C    0.086905
   108  C    0.085401
   109  C    0.033601
   110  C   -0.006930
   111  N   -0.324650
   112  C    0.079290
   113  C   -0.161000
   114  C    0.003282
   115  C    0.096624
   116  C    0.130836
   117  C    0.043580
   118  O   -0.187358
   119  C    0.000460
   120  C    0.211020
   121  O   -0.251462
   122  O   -0.305452
   123  C    0.152203
   124  H   -0.021147
   125  H   -0.014875
   126  H   -0.040443
   127  H   -0.000623
   128  H   -0.005245
   129  H    0.023958
   130  H    0.014402
   131  H    0.014538
   132  H    0.013684
   133  H    0.037661
   134  H    0.020568
   135  H    0.019085
   136  H    0.008021
   137  H    0.024090
   138  H    0.039171
   139  H    0.036802
   140  H    0.036076
   141  H    0.033709
   142  H    0.013469
   143  H    0.013789
   144  H    0.029256
   145  H    0.008544
   146  H   -0.006689
   147  H    0.005992
   148  H    0.002539
   149  H    0.010828
   150  H    0.017151
   151  H    0.030366
   152  H    0.045175
   153  H    0.007367
   154  H    0.052139
   155  H    0.036441
   156  H    0.043733
   157  H    0.049040
   158  H    0.053309
 Sum of Mulliken charges =  -0.00000

 Dipole moment (field-independent basis, Debye):
    X=              3.1029    Y=              2.4514    Z=             -7.8878  Tot=              8.8235
 Quadrupole moment (field-independent basis, Debye-Ang):
   XX=           -500.7751   YY=           -557.7342   ZZ=           -447.7103
   XY=            -14.0956   XZ=             29.5023   YZ=             21.2235

 Normal termination of Gaussian 16 at Fri Sep 10 02:55:21 2021.
