 Gaussian 16, Revision A.03,
 Gaussian 16:  ES64L-G16RevA.03 25-Dec-2016

 -----------------------------------
 #p cam-b3lyp/Def2SVP td=(nstates=5)
 -----------------------------------

 --------------------------------
 TDDFT excited states in gaussian
 --------------------------------
 Symbolic Z-matrix:
 Charge =  0 Multiplicity = 1

                         Standard orientation:
 ---------------------------------------------------------------------
 Center     Atomic      Atomic             Coordinates (Angstroms)
 Number     Number       Type             X           Y           Z
 ---------------------------------------------------------------------
      1         12           0        3.375667   -1.957463    0.081447
      2          6           0        5.006241    0.754894   -1.590844
      3          6           0        5.104541   -1.071561    2.886663
      4          6           0        2.300755   -4.608798    1.449514
      5          6           0        2.678823   -3.284360   -3.064887
      6          7           0        4.838785   -0.343092    0.473542
      7          6           0        5.333311    0.666511   -0.235906
      8          6           0        6.172569    1.666460    0.614461
      9          6           0        6.585900    0.695435    1.809562
     10          6           0        5.422984   -0.278872    1.744178
     11          6           0        7.881348   -0.068100    1.553962
     12          6           0        5.317939    2.874187    1.127036
     13          6           0        6.121091    4.053714    1.682930
     14          1           0        5.627290    5.404209    1.460060
     15          7           0        3.265380   -2.461100    1.988548
     16          6           0        4.036818   -1.988449    2.996898
     17          6           0        3.566617   -2.668445    4.222948
     18          6           0        2.587318   -3.714201    3.816176
     19          6           0        2.699726   -3.653384    2.381239
     20          6           0        4.005193   -2.276958    5.600677
     21          6           0        1.699932   -4.631222    4.597040
     22          8           0        1.099329   -5.621203    4.055018
     23          6           0        1.621058   -4.390095    6.049170
     24          7           0        2.791254   -3.811506   -0.679225
     25          6           0        2.310033   -4.766407    0.124252
     26          6           0        1.698311   -5.886304   -0.664142
     27          6           0        1.643852   -5.382609   -2.178433
     28          6           0        2.348693   -4.015540   -1.997901
     29          6           0        2.435861   -7.230881   -0.599773
     30          6           0        0.263101   -5.413527   -2.880565
     31          6           0       -0.660651   -4.401241   -2.240988
     32          7           0        3.601613   -1.308539   -1.977410
     33          6           0        3.264543   -2.031191   -3.131026
     34          6           0        3.700553   -1.226932   -4.287370
     35          6           0        4.279661   -0.092500   -3.722089
     36          6           0        4.233401   -0.194552   -2.302322
     37          6           0        3.591909   -1.605839   -5.654506
     38          6           0        4.948888    1.170740   -3.987070
     39          8           0        5.184628    1.831494   -4.999653
     40          6           0        5.555306    1.713300   -2.618234
     41          6           0        5.178588    3.164823   -2.497928
     42          8           0        3.987838    3.506303   -2.346692
     43          8           0        6.289542    3.900945   -2.341563
     44          6           0        5.984156    5.348315   -2.186596
     45          1           0        5.764091   -1.033647    3.755856
     46          1           0        1.822735   -5.491864    1.878617
     47          1           0        2.418974   -3.595238   -4.078438
     48          1           0        7.065495    2.047128    0.118277
     49          1           0        6.594089    1.211858    2.769230
     50          1           0        8.239523    0.084514    0.535954
     51          1           0        7.637749   -1.117906    1.718460
     52          1           0        8.634188    0.185391    2.300790
     53          1           0        4.778517    2.576802    2.026283
     54          1           0        4.647006    3.231483    0.345042
     55          1           0        7.174461    3.982358    1.410479
     56          1           0        6.117556    3.986813    2.770915
     57          1           0        4.850999   -1.591149    5.571983
     58          1           0        4.399427   -3.174693    6.076450
     59          1           0        3.183448   -1.876723    6.194714
     60          1           0        2.618362   -4.470863    6.482080
     61          1           0        0.872032   -5.084041    6.428971
     62          1           0        1.295155   -3.363577    6.219449
     63          1           0        0.686320   -6.098415   -0.321639
     64          1           0        2.286751   -5.975016   -2.829900
     65          1           0        1.814836   -8.054487   -0.246635
     66          1           0        3.313708   -7.103768    0.033092
     67          1           0        2.889432   -7.548802   -1.538185
     68          1           0       -0.201186   -6.391851   -2.761128
     69          1           0        0.318348   -5.200762   -3.948240
     70          1           0       -1.054204   -4.940594   -1.380148
     71          1           0       -1.460807   -4.128007   -2.929685
     72          1           0       -0.107797   -3.541496   -1.861940
     73          1           0        3.244264   -0.722027   -6.189284
     74          1           0        2.903555   -2.441261   -5.780364
     75          1           0        4.624488   -1.879343   -5.870913
     76          1           0        6.634335    1.573856   -2.676324
     77          1           0        6.544955    5.878876   -2.956170
     78          1           0        6.191299    5.599044   -1.146100
     79          1           0        4.965293    5.654375   -2.426560
     80         12           0       -3.527990    1.937490    0.620114
     81          6           0       -5.034482   -0.939857   -0.906469
     82          6           0       -2.306123    2.746342   -2.460045
     83          6           0       -1.820994    4.224235    2.007334
     84          6           0       -3.887144    0.324888    3.688707
     85          7           0       -3.715108    0.952328   -1.351357
     86          6           0       -4.363306   -0.102572   -1.821848
     87          6           0       -4.355106   -0.225025   -3.369262
     88          6           0       -3.025749    0.623999   -3.670628
     89          6           0       -3.026851    1.525622   -2.437856
     90          6           0       -1.758346   -0.214170   -3.648223
     91          6           0       -5.618385    0.432801   -4.027610
     92          6           0       -5.831185    0.082509   -5.501990
     93          1           0       -7.198858   -0.066799   -5.991525
     94          7           0       -2.663729    3.545934   -0.157389
     95          6           0       -2.252823    3.713044   -1.431953
     96          6           0       -1.664295    5.059990   -1.491606
     97          6           0       -1.612329    5.610785   -0.110068
     98          6           0       -2.020078    4.448070    0.652779
     99          6           0       -1.290836    5.728339   -2.782823
    100          6           0       -1.242869    6.956960    0.435388
    101          8           0       -1.039558    7.143655    1.687037
    102          6           0       -1.034833    8.028715   -0.549279
    103          7           0       -2.745207    2.148142    2.534587
    104          6           0       -2.087408    3.264560    2.893532
    105          6           0       -1.859529    3.307497    4.385722
    106          6           0       -2.717452    2.098842    4.986304
    107          6           0       -3.244872    1.484784    3.670951
    108          6           0       -0.406336    3.175180    4.840813
    109          6           0       -3.740728    2.448101    6.101464
    110          6           0       -4.857842    3.291918    5.530983
    111          7           0       -4.475097    0.127932    1.324788
    112          6           0       -4.482784   -0.372233    2.645340
    113          6           0       -5.153833   -1.687828    2.608706
    114          6           0       -5.472046   -1.873604    1.254927
    115          6           0       -5.012514   -0.762094    0.498042
    116          6           0       -5.351628   -2.552084    3.722277
    117          6           0       -6.082756   -2.762121    0.292494
    118          8           0       -6.718423   -3.813242    0.361788
    119          6           0       -5.714316   -2.255129   -1.168194
    120          6           0       -6.976027   -2.240971   -1.986969
    121          8           0       -7.903913   -1.462498   -1.704775
    122          8           0       -6.793479   -2.988544   -3.090685
    123          6           0       -8.013926   -2.996414   -3.940551
    124          1           0       -1.687756    2.968009   -3.330314
    125          1           0       -1.333846    5.035839    2.552736
    126          1           0       -4.125437   -0.196257    4.618377
    127          1           0       -4.244065   -1.235335   -3.744412
    128          1           0       -3.131889    1.215908   -4.576028
    129          1           0       -1.948824   -1.223750   -3.315639
    130          1           0       -1.085374    0.288337   -2.965837
    131          1           0       -1.270948   -0.186794   -4.627004
    132          1           0       -5.455064    1.514806   -4.113243
    133          1           0       -6.504083    0.199480   -3.469286
    134          1           0       -5.215360   -0.768853   -5.816429
    135          1           0       -5.470132    0.914197   -6.111861
    136          1           0       -1.288473    5.017045   -3.617967
    137          1           0       -0.245346    6.041699   -2.689979
    138          1           0       -1.905147    6.605731   -2.996040
    139          1           0       -0.247382    7.736668   -1.239990
    140          1           0       -0.866272    8.934680    0.036114
    141          1           0       -1.948875    8.140461   -1.143127
    142          1           0       -2.221440    4.238001    4.805576
    143          1           0       -2.076445    1.337064    5.453888
    144          1           0       -0.064954    4.023662    5.463408
    145          1           0        0.218096    3.071980    3.963336
    146          1           0       -0.177033    2.267002    5.395653
    147          1           0       -3.263192    3.049743    6.878726
    148          1           0       -4.166505    1.575595    6.585649
    149          1           0       -4.437945    4.302084    5.548967
    150          1           0       -5.746866    3.222852    6.154604
    151          1           0       -5.050481    3.033612    4.483218
    152          1           0       -6.364050   -2.926567    3.649783
    153          1           0       -5.185692   -2.032128    4.663492
    154          1           0       -4.580834   -3.302237    3.526291
    155          1           0       -4.970012   -2.940807   -1.574930
    156          1           0       -8.290435   -4.044287   -4.092861
    157          1           0       -7.754952   -2.407841   -4.840688
    158          1           0       -8.925730   -2.597239   -3.511923
 ---------------------------------------------------------------------

 SCF Done:  E(RCAM-B3LYP) =  -4069.81274078     A.U. after   19 cycles

 Excitation energies and oscillator strengths:

 Excited State   1:      Singlet-A      1.6502 eV  751.34 nm  f=0.1322  <S**2>=0.000
     309 -> 315        0.11622
     310 -> 316        0.11954
     311 -> 313        0.47547
     312 -> 314        0.49604
 This state for optimization and/or second-order correction.
 Total Energy, E(TD-HF/TD-DFT) =  -4069.75209804
 Copying the excited state density for this state as the 1-particle RhoCI density.

 Excited State   2:      Singlet-A      1.6963 eV  730.90 nm  f=0.5219  <S**2>=0.000
     309 -> 315        0.12955
     310 -> 316       -0.12370
     311 -> 313        0.49390
     312 -> 314       -0.47377

 Excited State   3:      Singlet-A      2.1853 eV  567.36 nm  f=0.0477  <S**2>=0.000
     309 -> 313        0.37210
     310 -> 314        0.52528
     311 -> 315       -0.15542
     312 -> 316       -0.22065

 Excited State   4:      Singlet-A      2.1944 eV  565.00 nm  f=0.1395  <S**2>=0.000
     309 -> 313        0.52224
     310 -> 314       -0.36865
     311 -> 315       -0.22844
     312 -> 316        0.16152

 Excited State   5:      Singlet-A      2.2189 eV  558.75 nm  f=0.0000  <S**2>=0.000
     312 -> 313        0.70703

 The electronic state is 1-A.
 Alpha  occ. eigenvalues --  -46.87943 -46.87383 -19.26525 -19.26190 -19.19290
 Alpha  occ. eigenvalues --  -19.18975 -19.18940 -19.18448 -19.18393 -19.17785
 Alpha  occ. eigenvalues --  -14.42590 -14.42207 -14.41594 -14.41102 -14.39548
 Alpha  occ. eigenvalues --  -14.39057 -14.38756 -14.38322 -10.39336 -10.38902
 Alpha  occ. eigenvalues --  -10.35572 -10.35124 -10.34612 -10.33970 -10.31917
 Alpha  occ. eigenvalues --  -10.31626 -10.31566 -10.31039 -10.31001 -10.30746
 Alpha  occ. eigenvalues --  -10.30712 -10.30670 -10.30337 -10.30138 -10.30073
 Alpha  occ. eigenvalues --  -10.30054 -10.29878 -10.29804 -10.29683 -10.29406
 Alpha  occ. eigenvalues --  -10.29119 -10.29108 -10.28849 -10.28553 -10.28525
 Alpha  occ. eigenvalues --  -10.28451 -10.28441 -10.28229 -10.28098 -10.27972
 Alpha  occ. eigenvalues --  -10.27873 -10.27805 -10.27748 -10.27686 -10.27631
 Alpha  occ. eigenvalues --  -10.27624 -10.27559 -10.27546 -10.27403 -10.27361
 Alpha  occ. eigenvalues --  -10.27313 -10.27278 -10.27208 -10.27149 -10.26925
 Alpha  occ. eigenvalues --  -10.26818 -10.26759 -10.26537 -10.26449 -10.26343
 Alpha  occ. eigenvalues --  -10.26324 -10.26180 -10.26135 -10.26106 -10.26055
 Alpha  occ. eigenvalues --  -10.25675 -10.25614 -10.25565 -10.25505 -10.25407
 Alpha  occ. eigenvalues --  -10.25021 -10.24927 -10.24881 -10.24633 -10.24569
 Alpha  occ. eigenvalues --  -10.24437  -3.16685  -3.16134  -1.91566  -1.91153
 Alpha  occ. eigenvalues --   -1.91016  -1.90996  -1.90605  -1.90441  -1.16877
 Alpha  occ. eigenvalues --   -1.16476  -1.08860  -1.08405  -1.07336  -1.06906
 Alpha  occ. eigenvalues --   -1.06760  -1.06704  -1.04725  -1.04200  -1.03904
 Alpha  occ. eigenvalues --   -1.03392  -1.03386  -1.02771  -1.02566  -1.01834
 Alpha  occ. eigenvalues --   -0.92146  -0.91714  -0.89668  -0.89298  -0.89290
 Alpha  occ. eigenvalues --   -0.88848  -0.88419  -0.88072  -0.88053  -0.87809
 Alpha  occ. eigenvalues --   -0.87503  -0.87426  -0.87388  -0.86766  -0.85098
 Alpha  occ. eigenvalues --   -0.84719  -0.84082  -0.83734  -0.83107  -0.82784
 Alpha  occ. eigenvalues --   -0.82658  -0.82370  -0.81773  -0.81370  -0.80760
 Alpha  occ. eigenvalues --   -0.80187  -0.78961  -0.78301  -0.77366  -0.77072
 Alpha  occ. eigenvalues --   -0.76874  -0.76671  -0.76080  -0.75550  -0.75033
 Alpha  occ. eigenvalues --   -0.74631  -0.72939  -0.72414  -0.71813  -0.71331
 Alpha  occ. eigenvalues --   -0.70051  -0.69614  -0.69004  -0.68547  -0.67798
 Alpha  occ. eigenvalues --   -0.67339  -0.67322  -0.66929  -0.65418  -0.65023
 Alpha  occ. eigenvalues --   -0.65003  -0.64769  -0.64517  -0.64421  -0.64405
 Alpha  occ. eigenvalues --   -0.64005  -0.62497  -0.62070  -0.60586  -0.60053
 Alpha  occ. eigenvalues --   -0.59935  -0.59499  -0.59142  -0.58737  -0.58668
 Alpha  occ. eigenvalues --   -0.58172  -0.57794  -0.57466  -0.57318  -0.57004
 Alpha  occ. eigenvalues --   -0.56485  -0.56167  -0.55911  -0.55675  -0.55658
 Alpha  occ. eigenvalues --   -0.55508  -0.55179  -0.55076  -0.54708  -0.54324
 Alpha  occ. eigenvalues --   -0.54007  -0.53624  -0.53460  -0.53368  -0.53094
 Alpha  occ. eigenvalues --   -0.52977  -0.52890  -0.52872  -0.52646  -0.52598
 Alpha  occ. eigenvalues --   -0.52336  -0.52252  -0.52146  -0.51747  -0.51600
 Alpha  occ. eigenvalues --   -0.51376  -0.51357  -0.50956  -0.50714  -0.50173
 Alpha  occ. eigenvalues --   -0.50149  -0.50053  -0.49715  -0.49655  -0.49614
 Alpha  occ. eigenvalues --   -0.49392  -0.49235  -0.49202  -0.48901  -0.48827
 Alpha  occ. eigenvalues --   -0.48766  -0.48613  -0.48585  -0.48303  -0.48196
 Alpha  occ. eigenvalues --   -0.48050  -0.47838  -0.47445  -0.47317  -0.46949
 Alpha  occ. eigenvalues --   -0.46827  -0.46674  -0.46527  -0.46458  -0.46334
 Alpha  occ. eigenvalues --   -0.46278  -0.46020  -0.45986  -0.45871  -0.45590
 Alpha  occ. eigenvalues --   -0.45333  -0.45045  -0.44771  -0.44637  -0.44307
 Alpha  occ. eigenvalues --   -0.44274  -0.44228  -0.44196  -0.44168  -0.43880
 Alpha  occ. eigenvalues --   -0.43830  -0.43695  -0.43645  -0.43508  -0.43350
 Alpha  occ. eigenvalues --   -0.43188  -0.43134  -0.42916  -0.42800  -0.42728
 Alpha  occ. eigenvalues --   -0.42667  -0.42337  -0.42162  -0.41866  -0.41763
 Alpha  occ. eigenvalues --   -0.41646  -0.41417  -0.41274  -0.41206  -0.40986
 Alpha  occ. eigenvalues --   -0.40938  -0.40731  -0.40702  -0.40474  -0.40438
 Alpha  occ. eigenvalues --   -0.40306  -0.40291  -0.39977  -0.39580  -0.39289
 Alpha  occ. eigenvalues --   -0.38585  -0.38184  -0.37845  -0.37455  -0.37402
 Alpha  occ. eigenvalues --   -0.37387  -0.37049  -0.36930  -0.36907  -0.36597
 Alpha  occ. eigenvalues --   -0.36359  -0.36014  -0.34444  -0.34023  -0.33984
 Alpha  occ. eigenvalues --   -0.33657  -0.33351  -0.32893  -0.31468  -0.31186
 Alpha  occ. eigenvalues --   -0.31013  -0.30701  -0.30254  -0.29699  -0.29615
 Alpha  occ. eigenvalues --   -0.29504  -0.29008  -0.28909  -0.24233  -0.23755
 Alpha  occ. eigenvalues --   -0.21284  -0.20825
 Alpha virt. eigenvalues --   -0.08935  -0.08488  -0.01892  -0.01416  -0.00206
 Alpha virt. eigenvalues --    0.00283   0.02005   0.02371   0.02580   0.03606
 Alpha virt. eigenvalues --    0.04598   0.04856   0.05037   0.05366   0.06082

 Mulliken charges:
               1
     1  Mg   0.839148
     2  C   -0.002877
     3  C   -0.094023
     4  C   -0.045168
     5  C   -0.064619
     6  N   -0.256976
     7  C   -0.051996
     8  C   -0.014307
     9  C   -0.087104
    10  C    0.046976
    11  C    0.104725
    12  C    0.053424
    13  C   -0.072601
    14  H    0.038204
    15  N   -0.433368
    16  C    0.169078
    17  C   -0.177159
    18  C   -0.003467
    19  C    0.149547
    20  C    0.110164
    21  C    0.012609
    22  O   -0.248187
    23  C    0.062466
    24  N   -0.341236
    25  C    0.041535
    26  C   -0.028835
    27  C   -0.024404
    28  C    0.074938
    29  C    0.075898
    30  C    0.035716
    31  C   -0.012427
    32  N   -0.310080
    33  C    0.079659
    34  C   -0.172130
    35  C    0.007372
    36  C    0.082179
    37  C    0.127772
    38  C    0.044373
    39  O   -0.189961
    40  C   -0.004883
    41  C    0.212817
    42  O   -0.259294
    43  O   -0.304117
    44  C    0.158555
    45  H   -0.017159
    46  H   -0.015791
    47  H   -0.042260
    48  H    0.000753
    49  H   -0.003482
    50  H    0.025464
    51  H    0.016448
    52  H    0.017099
    53  H    0.012007
    54  H    0.044165
    55  H    0.017294
    56  H    0.018542
    57  H    0.006345
    58  H    0.027475
    59  H    0.039068
    60  H    0.037649
    61  H    0.036392
    62  H    0.030390
    63  H    0.018260
    64  H    0.009727
    65  H    0.024483
    66  H    0.012500
    67  H    0.004883
    68  H    0.008351
    69  H    0.003453
    70  H    0.012981
    71  H    0.020460
    72  H    0.030969
    73  H    0.044853
    74  H    0.008595
    75  H    0.046739
    76  H    0.035635
    77  H    0.042887
    78  H    0.047995
    79  H    0.051001
    80  Mg   0.836675
    81  C   -0.016233
    82  C   -0.085206
    83  C   -0.045308
    84  C   -0.065410
    85  N   -0.254560
    86  C   -0.050395
    87  C   -0.014218
    88  C   -0.092232
    89  C    0.044082
    90  C    0.112918
    91  C    0.062829
    92  C   -0.077395
    93  H    0.033836
    94  N   -0.424332
    95  C    0.161791
    96  C   -0.167554
    97  C   -0.007964
    98  C    0.153659
    99  C    0.097520
   100  C    0.016105
   101  O   -0.255087
   102  C    0.060798
   103  N   -0.350141
   104  C    0.037381
   105  C   -0.019502
   106  C   -0.034194
   107  C    0.088452
   108  C    0.074545
   109  C    0.035105
   110  C   -0.007490
   111  N   -0.323988
   112  C    0.077623
   113  C   -0.163138
   114  C    0.002144
   115  C    0.095402
   116  C    0.131101
   117  C    0.042164
   118  O   -0.189180
   119  C    0.000160
   120  C    0.211297
   121  O   -0.251099
   122  O   -0.306089
   123  C    0.152154
   124  H   -0.012802
   125  H   -0.016940
   126  H   -0.041944
   127  H   -0.002785
   128  H   -0.003946
   129  H    0.019667
   130  H    0.020449
   131  H    0.016980
   132  H    0.014127
   133  H    0.037108
   134  H    0.019787
   135  H    0.020113
   136  H    0.011478
   137  H    0.033550
   138  H    0.037615
   139  H    0.040085
   140  H    0.034558
   141  H    0.033645
   142  H    0.013900
   143  H    0.009793
   144  H    0.023550
   145  H    0.012233
   146  H    0.002252
   147  H    0.004657
   148  H    0.003098
   149  H    0.010528
   150  H    0.017454
   151  H    0.031134
   152  H    0.045010
   153  H    0.007016
   154  H    0.049024
   155  H    0.034453
   156  H    0.043098
   157  H    0.049435
   158  H    0.053483
 Sum of Mulliken charges =  -0.00000

 Dipole moment (field-independent basis, Debye):
    X=              5.5166    Y=              0.9343    Z=              0.9569  Tot=              5.6764
 Quadrupole moment (field-independent basis, Debye-Ang):
   XX=           -527.3601   YY=           -522.9261   ZZ=           -470.0159
   XY=            -14.1604   XZ=             42.1635   YZ=             11.9774

 Normal termination of Gaussian 16 at Wed Sep  8 15:22:23 2021.
