 Gaussian 16, Revision A.03,
 Gaussian 16:  ES64L-G16RevA.03 25-Dec-2016

 -----------------------------------
 #p cam-b3lyp/Def2SVP td=(nstates=5)
 -----------------------------------

 --------------------------------
 TDDFT excited states in gaussian
 --------------------------------
 Symbolic Z-matrix:
 Charge =  0 Multiplicity = 1

                         Standard orientation:
 ---------------------------------------------------------------------
 Center     Atomic      Atomic             Coordinates (Angstroms)
 Number     Number       Type             X           Y           Z
 ---------------------------------------------------------------------
      1         12           0        5.119602    0.946929    0.471065
      2          6           0        5.920873   -2.053515   -1.308685
      3          6           0        5.706765    2.646848   -2.428691
      4          6           0        4.861399    3.640268    2.125114
      5          6           0        5.702557   -0.820553    3.417560
      6          7           0        5.728882    0.270643   -1.546870
      7          6           0        5.945698   -0.912247   -2.113380
      8          6           0        6.127445   -0.833150   -3.658723
      9          6           0        6.601976    0.684197   -3.779040
     10          6           0        5.944971    1.243960   -2.529666
     11          6           0        8.112344    0.861386   -3.661167
     12          6           0        4.785763   -1.076557   -4.428382
     13          6           0        4.932322   -1.339674   -5.929929
     14          1           0        4.023955   -2.280485   -6.567966
     15          7           0        4.787286    2.796984   -0.136975
     16          6           0        5.074072    3.312464   -1.356532
     17          6           0        4.638101    4.724862   -1.314814
     18          6           0        4.249231    5.039787    0.087932
     19          6           0        4.647013    3.830345    0.762023
     20          6           0        4.574834    5.602604   -2.526968
     21          6           0        3.628745    6.244280    0.722223
     22          8           0        3.588494    6.400456    1.990515
     23          6           0        3.142041    7.291805   -0.193665
     24          7           0        5.472234    1.423530    2.472599
     25          6           0        5.225510    2.650869    2.943502
     26          6           0        5.279804    2.681808    4.442179
     27          6           0        5.376672    1.158943    4.912554
     28          6           0        5.447250    0.485762    3.519674
     29          6           0        6.439937    3.479537    5.053515
     30          6           0        4.306480    0.663973    5.917598
     31          6           0        2.949003    0.639986    5.251431
     32          7           0        5.534114   -1.115738    1.004572
     33          6           0        5.764754   -1.623825    2.291167
     34          6           0        6.107105   -3.049751    2.137551
     35          6           0        6.067787   -3.269520    0.762051
     36          6           0        5.748458   -2.051459    0.096733
     37          6           0        6.459182   -3.940321    3.189862
     38          6           0        6.245416   -4.244259   -0.301993
     39          8           0        6.430774   -5.461479   -0.340876
     40          6           0        6.277077   -3.468286   -1.692205
     41          6           0        5.358643   -4.192829   -2.638157
     42          8           0        4.126464   -4.215683   -2.441744
     43          8           0        6.039585   -4.538568   -3.741481
     44          6           0        5.178993   -5.235531   -4.734344
     45          1           0        6.090047    3.304953   -3.210953
     46          1           0        4.673671    4.520847    2.742995
     47          1           0        5.814159   -1.455762    4.298188
     48          1           0        6.893967   -1.495925   -4.060716
     49          1           0        6.198238    1.167539   -4.668477
     50          1           0        8.602564   -0.071881   -3.384366
     51          1           0        8.257542    1.612585   -2.884565
     52          1           0        8.524387    1.291175   -4.574556
     53          1           0        4.214668   -0.148622   -4.457504
     54          1           0        4.222072   -1.891486   -3.972895
     55          1           0        5.965273   -1.565796   -6.195995
     56          1           0        4.711936   -0.414162   -6.461961
     57          1           0        5.078399    5.146525   -3.378413
     58          1           0        5.164765    6.492174   -2.307067
     59          1           0        3.552478    5.890803   -2.772041
     60          1           0        3.970917    7.648396   -0.805512
     61          1           0        2.650065    8.034574    0.433315
     62          1           0        2.420151    6.851403   -0.882046
     63          1           0        4.376466    3.127051    4.857107
     64          1           0        6.324703    0.942684    5.405649
     65          1           0        6.118191    4.269996    5.732013
     66          1           0        7.037750    3.884099    4.237279
     67          1           0        7.177449    2.878946    5.585288
     68          1           0        4.236494    1.346633    6.763780
     69          1           0        4.513089   -0.331501    6.310783
     70          1           0        2.609624    1.670171    5.353279
     71          1           0        2.280638   -0.044772    5.774503
     72          1           0        3.032455    0.428301    4.185264
     73          1           0        5.929521   -4.871938    2.991073
     74          1           0        6.188411   -3.530516    4.162665
     75          1           0        7.538083   -4.003059    3.048819
     76          1           0        7.311191   -3.481463   -2.035070
     77          1           0        5.651395   -6.193448   -4.952211
     78          1           0        5.037041   -4.541336   -5.562805
     79          1           0        4.201796   -5.564136   -4.378754
     80         12           0       -5.279538   -1.056960    0.388079
     81          6           0       -5.600162    1.782047   -1.783621
     82          6           0       -4.833373    1.144859    2.954692
     83          6           0       -4.546274   -3.523177    2.244831
     84          6           0       -4.612911   -2.973952   -2.445029
     85          7           0       -5.243164    1.153662    0.451720
     86          6           0       -5.438037    2.126689   -0.425550
     87          6           0       -5.540566    3.544306    0.198494
     88          6           0       -4.725036    3.269735    1.554369
     89          6           0       -4.973430    1.768812    1.689314
     90          6           0       -3.228911    3.495454    1.412978
     91          6           0       -7.023973    3.961077    0.494803
     92          6           0       -7.223591    5.444131    0.814908
     93          1           0       -8.447477    6.096321    0.357501
     94          7           0       -5.249947   -1.210963    2.366455
     95          6           0       -5.081030   -0.211983    3.257968
     96          6           0       -5.116861   -0.846455    4.584738
     97          6           0       -5.155695   -2.322379    4.397995
     98          6           0       -4.960210   -2.411991    2.964870
     99          6           0       -5.192312   -0.059886    5.861068
    100          6           0       -5.326116   -3.464696    5.353119
    101          8           0       -5.090078   -4.675192    5.004065
    102          6           0       -5.687131   -3.115633    6.734888
    103          7           0       -4.461208   -2.926499   -0.008850
    104          6           0       -4.294901   -3.830787    0.972229
    105          6           0       -3.951782   -5.189410    0.409381
    106          6           0       -4.160597   -5.064828   -1.171278
    107          6           0       -4.517916   -3.564997   -1.261892
    108          6           0       -2.536910   -5.690883    0.697582
    109          6           0       -5.114252   -6.093489   -1.838416
    110          6           0       -6.534005   -5.856146   -1.376495
    111          7           0       -5.307736   -0.736855   -1.748459
    112          6           0       -4.968951   -1.667589   -2.754951
    113          6           0       -5.030727   -0.953624   -4.046800
    114          6           0       -5.381520    0.359131   -3.697392
    115          6           0       -5.508285    0.461336   -2.285654
    116          6           0       -4.733484   -1.513033   -5.321491
    117          6           0       -5.663014    1.684230   -4.200953
    118          8           0       -5.792002    2.179002   -5.320014
    119          6           0       -5.693412    2.694972   -2.974626
    120          6           0       -6.923956    3.549717   -3.107590
    121          8           0       -8.056899    3.045603   -3.013238
    122          8           0       -6.562462    4.845751   -3.106399
    123          6           0       -7.749781    5.733435   -3.225095
    124          1           0       -4.457783    1.739699    3.787744
    125          1           0       -4.387706   -4.431965    2.830025
    126          1           0       -4.514312   -3.525260   -3.382586
    127          1           0       -5.058412    4.328227   -0.373142
    128          1           0       -5.161651    3.805415    2.393278
    129          1           0       -2.945748    3.689707    0.389149
    130          1           0       -2.759500    2.588009    1.769685
    131          1           0       -2.901940    4.290033    2.089787
    132          1           0       -7.336144    3.519072    1.449754
    133          1           0       -7.668593    3.675981   -0.313777
    134          1           0       -6.345449    6.045039    0.548979
    135          1           0       -7.307431    5.557009    1.898536
    136          1           0       -4.980723    1.003086    5.691606
    137          1           0       -4.368993   -0.402687    6.497078
    138          1           0       -6.134816   -0.208528    6.392365
    139          1           0       -4.926140   -2.460697    7.152508
    140          1           0       -5.851434   -4.067643    7.243386
    141          1           0       -6.620939   -2.542625    6.718401
    142          1           0       -4.622615   -5.947913    0.793763
    143          1           0       -3.215703   -5.196395   -1.718718
    144          1           0       -2.517326   -6.668363    1.215486
    145          1           0       -2.021251   -4.940496    1.282013
    146          1           0       -1.893777   -5.785820   -0.175658
    147          1           0       -4.852776   -7.108409   -1.529030
    148          1           0       -5.084934   -6.069699   -2.922649
    149          1           0       -6.573749   -6.384807   -0.419398
    150          1           0       -7.243275   -6.274132   -2.088021
    151          1           0       -6.709353   -4.793276   -1.173513
    152          1           0       -5.499350   -1.163626   -6.001092
    153          1           0       -4.702338   -2.599859   -5.281237
    154          1           0       -3.745236   -1.080348   -5.498731
    155          1           0       -4.777867    3.286367   -3.014760
    156          1           0       -7.578804    6.381734   -4.090055
    157          1           0       -7.854718    6.225344   -2.239827
    158          1           0       -8.694973    5.273613   -3.488988
 ---------------------------------------------------------------------

 SCF Done:  E(RCAM-B3LYP) =  -4069.81206969     A.U. after   19 cycles

 Excitation energies and oscillator strengths:

 Excited State   1:      Singlet-A      1.6678 eV  743.41 nm  f=0.2134  <S**2>=0.000
     310 -> 316       -0.14078
     311 -> 313        0.39487
     312 -> 314        0.56148
 This state for optimization and/or second-order correction.
 Total Energy, E(TD-HF/TD-DFT) =  -4069.75078041
 Copying the excited state density for this state as the 1-particle RhoCI density.

 Excited State   2:      Singlet-A      1.6832 eV  736.58 nm  f=0.4915  <S**2>=0.000
     309 -> 315       -0.14402
     310 -> 316        0.10083
     311 -> 313        0.56051
     312 -> 314       -0.39422

 Excited State   3:      Singlet-A      2.1839 eV  567.71 nm  f=0.0796  <S**2>=0.000
     309 -> 313        0.18237
     310 -> 314        0.61689
     312 -> 316        0.26011

 Excited State   4:      Singlet-A      2.1928 eV  565.41 nm  f=0.1153  <S**2>=0.000
     309 -> 313        0.61418
     310 -> 314       -0.18095
     311 -> 315        0.26696

 Excited State   5:      Singlet-A      2.4844 eV  499.04 nm  f=0.0000  <S**2>=0.000
     312 -> 313        0.70709

 The electronic state is 1-A.
 Alpha  occ. eigenvalues --  -46.87886 -46.87497 -19.26367 -19.26306 -19.19111
 Alpha  occ. eigenvalues --  -19.19099 -19.18941 -19.18574 -19.18252 -19.17955
 Alpha  occ. eigenvalues --  -14.42532 -14.42339 -14.41545 -14.41176 -14.39495
 Alpha  occ. eigenvalues --  -14.39194 -14.38674 -14.38445 -10.39169 -10.39026
 Alpha  occ. eigenvalues --  -10.35574 -10.35253 -10.34472 -10.34134 -10.31760
 Alpha  occ. eigenvalues --  -10.31733 -10.31479 -10.31164 -10.30989 -10.30877
 Alpha  occ. eigenvalues --  -10.30651 -10.30604 -10.30308 -10.30241 -10.30217
 Alpha  occ. eigenvalues --  -10.30022 -10.29941 -10.29721 -10.29702 -10.29345
 Alpha  occ. eigenvalues --  -10.29272 -10.29259 -10.28804 -10.28601 -10.28576
 Alpha  occ. eigenvalues --  -10.28560 -10.28451 -10.28260 -10.28169 -10.28001
 Alpha  occ. eigenvalues --  -10.27878 -10.27860 -10.27805 -10.27677 -10.27625
 Alpha  occ. eigenvalues --  -10.27578 -10.27542 -10.27511 -10.27490 -10.27346
 Alpha  occ. eigenvalues --  -10.27335 -10.27325 -10.27247 -10.27240 -10.27088
 Alpha  occ. eigenvalues --  -10.26962 -10.26746 -10.26594 -10.26538 -10.26334
 Alpha  occ. eigenvalues --  -10.26300 -10.26282 -10.26112 -10.25912 -10.25908
 Alpha  occ. eigenvalues --  -10.25865 -10.25755 -10.25739 -10.25557 -10.24974
 Alpha  occ. eigenvalues --  -10.24917 -10.24888 -10.24869 -10.24737 -10.24536
 Alpha  occ. eigenvalues --  -10.24512  -3.16629  -3.16247  -1.91511  -1.91129
 Alpha  occ. eigenvalues --   -1.91097  -1.90939  -1.90717  -1.90555  -1.16717
 Alpha  occ. eigenvalues --   -1.16595  -1.08709  -1.08570  -1.07346  -1.06885
 Alpha  occ. eigenvalues --   -1.06826  -1.06732  -1.04663  -1.04343  -1.03854
 Alpha  occ. eigenvalues --   -1.03500  -1.03325  -1.02866  -1.02502  -1.01946
 Alpha  occ. eigenvalues --   -0.92057  -0.91852  -0.89632  -0.89304  -0.89246
 Alpha  occ. eigenvalues --   -0.89015  -0.88401  -0.87994  -0.87950  -0.87752
 Alpha  occ. eigenvalues --   -0.87659  -0.87522  -0.87366  -0.86984  -0.85051
 Alpha  occ. eigenvalues --   -0.84861  -0.84059  -0.83654  -0.83080  -0.82776
 Alpha  occ. eigenvalues --   -0.82731  -0.82515  -0.81669  -0.81491  -0.80685
 Alpha  occ. eigenvalues --   -0.80316  -0.78883  -0.78496  -0.77308  -0.77011
 Alpha  occ. eigenvalues --   -0.76998  -0.76746  -0.75997  -0.75712  -0.75004
 Alpha  occ. eigenvalues --   -0.74566  -0.72862  -0.72543  -0.71759  -0.71398
 Alpha  occ. eigenvalues --   -0.70038  -0.69532  -0.68948  -0.68692  -0.67733
 Alpha  occ. eigenvalues --   -0.67452  -0.67288  -0.67080  -0.65357  -0.65144
 Alpha  occ. eigenvalues --   -0.64943  -0.64710  -0.64622  -0.64515  -0.64378
 Alpha  occ. eigenvalues --   -0.64001  -0.62387  -0.62167  -0.60541  -0.60178
 Alpha  occ. eigenvalues --   -0.59872  -0.59660  -0.59078  -0.58830  -0.58595
 Alpha  occ. eigenvalues --   -0.58276  -0.57669  -0.57457  -0.57411  -0.57066
 Alpha  occ. eigenvalues --   -0.56394  -0.56072  -0.56059  -0.55788  -0.55613
 Alpha  occ. eigenvalues --   -0.55448  -0.55336  -0.55069  -0.54628  -0.54316
 Alpha  occ. eigenvalues --   -0.53956  -0.53780  -0.53395  -0.53303  -0.53078
 Alpha  occ. eigenvalues --   -0.53013  -0.53007  -0.52844  -0.52776  -0.52573
 Alpha  occ. eigenvalues --   -0.52541  -0.52198  -0.51993  -0.51763  -0.51687
 Alpha  occ. eigenvalues --   -0.51540  -0.51286  -0.51066  -0.50669  -0.50335
 Alpha  occ. eigenvalues --   -0.50145  -0.50012  -0.49835  -0.49640  -0.49597
 Alpha  occ. eigenvalues --   -0.49355  -0.49299  -0.49163  -0.49080  -0.48975
 Alpha  occ. eigenvalues --   -0.48674  -0.48571  -0.48544  -0.48437  -0.48215
 Alpha  occ. eigenvalues --   -0.48146  -0.47783  -0.47447  -0.47386  -0.46949
 Alpha  occ. eigenvalues --   -0.46888  -0.46621  -0.46545  -0.46452  -0.46410
 Alpha  occ. eigenvalues --   -0.46256  -0.46113  -0.45906  -0.45900  -0.45698
 Alpha  occ. eigenvalues --   -0.45311  -0.44965  -0.44663  -0.44602  -0.44386
 Alpha  occ. eigenvalues --   -0.44333  -0.44249  -0.44159  -0.44106  -0.43995
 Alpha  occ. eigenvalues --   -0.43909  -0.43819  -0.43581  -0.43470  -0.43441
 Alpha  occ. eigenvalues --   -0.43228  -0.43115  -0.42842  -0.42807  -0.42761
 Alpha  occ. eigenvalues --   -0.42744  -0.42355  -0.42114  -0.41797  -0.41793
 Alpha  occ. eigenvalues --   -0.41603  -0.41525  -0.41311  -0.41225  -0.40956
 Alpha  occ. eigenvalues --   -0.40931  -0.40819  -0.40676  -0.40588  -0.40552
 Alpha  occ. eigenvalues --   -0.40287  -0.40279  -0.40115  -0.39580  -0.39204
 Alpha  occ. eigenvalues --   -0.38576  -0.38127  -0.37809  -0.37530  -0.37424
 Alpha  occ. eigenvalues --   -0.37332  -0.37087  -0.37048  -0.36807  -0.36675
 Alpha  occ. eigenvalues --   -0.36287  -0.36036  -0.34374  -0.34096  -0.33863
 Alpha  occ. eigenvalues --   -0.33781  -0.33277  -0.33016  -0.31471  -0.31130
 Alpha  occ. eigenvalues --   -0.31127  -0.30814  -0.30111  -0.29862  -0.29542
 Alpha  occ. eigenvalues --   -0.29408  -0.29185  -0.29074  -0.24169  -0.23875
 Alpha  occ. eigenvalues --   -0.21216  -0.20955
 Alpha virt. eigenvalues --   -0.08864  -0.08641  -0.01846  -0.01512  -0.00155
 Alpha virt. eigenvalues --    0.00108   0.02110   0.02339   0.03013   0.03383
 Alpha virt. eigenvalues --    0.04644   0.04884   0.05011   0.05236   0.06125

 Mulliken charges:
               1
     1  Mg   0.838731
     2  C   -0.002965
     3  C   -0.093501
     4  C   -0.046389
     5  C   -0.063953
     6  N   -0.256809
     7  C   -0.052262
     8  C   -0.014067
     9  C   -0.087098
    10  C    0.046296
    11  C    0.104738
    12  C    0.053292
    13  C   -0.072011
    14  H    0.036183
    15  N   -0.433109
    16  C    0.168278
    17  C   -0.176845
    18  C   -0.004331
    19  C    0.148569
    20  C    0.110002
    21  C    0.011550
    22  O   -0.250558
    23  C    0.062649
    24  N   -0.341076
    25  C    0.041267
    26  C   -0.028048
    27  C   -0.023943
    28  C    0.074670
    29  C    0.076179
    30  C    0.035245
    31  C   -0.004415
    32  N   -0.310519
    33  C    0.080453
    34  C   -0.169519
    35  C    0.008398
    36  C    0.082985
    37  C    0.127311
    38  C    0.046075
    39  O   -0.188289
    40  C   -0.005306
    41  C    0.213004
    42  O   -0.257622
    43  O   -0.304577
    44  C    0.157845
    45  H   -0.017169
    46  H   -0.017393
    47  H   -0.041417
    48  H    0.001048
    49  H   -0.003463
    50  H    0.025479
    51  H    0.016368
    52  H    0.017031
    53  H    0.011745
    54  H    0.043739
    55  H    0.017908
    56  H    0.018703
    57  H    0.006477
    58  H    0.026883
    59  H    0.040056
    60  H    0.038009
    61  H    0.034868
    62  H    0.031450
    63  H    0.015537
    64  H    0.009707
    65  H    0.022822
    66  H    0.012863
    67  H    0.004963
    68  H    0.005866
    69  H    0.005278
    70  H    0.007146
    71  H    0.017990
    72  H    0.029579
    73  H    0.047814
    74  H    0.009213
    75  H    0.046136
    76  H    0.035410
    77  H    0.043101
    78  H    0.046768
    79  H    0.052975
    80  Mg   0.838188
    81  C   -0.017239
    82  C   -0.088106
    83  C   -0.045248
    84  C   -0.063570
    85  N   -0.254655
    86  C   -0.049974
    87  C   -0.015085
    88  C   -0.090387
    89  C    0.045778
    90  C    0.114353
    91  C    0.062584
    92  C   -0.077649
    93  H    0.034262
    94  N   -0.423581
    95  C    0.163202
    96  C   -0.174753
    97  C   -0.007725
    98  C    0.152289
    99  C    0.099462
   100  C    0.015411
   101  O   -0.252754
   102  C    0.061286
   103  N   -0.350031
   104  C    0.038437
   105  C   -0.020540
   106  C   -0.034799
   107  C    0.089088
   108  C    0.072320
   109  C    0.034606
   110  C   -0.007558
   111  N   -0.324006
   112  C    0.078309
   113  C   -0.163204
   114  C    0.001684
   115  C    0.096335
   116  C    0.131665
   117  C    0.041807
   118  O   -0.189251
   119  C    0.001138
   120  C    0.211177
   121  O   -0.250957
   122  O   -0.305949
   123  C    0.152135
   124  H   -0.019581
   125  H   -0.015009
   126  H   -0.040303
   127  H   -0.001508
   128  H   -0.004456
   129  H    0.021206
   130  H    0.015036
   131  H    0.017623
   132  H    0.013964
   133  H    0.037435
   134  H    0.020514
   135  H    0.019721
   136  H    0.008772
   137  H    0.025724
   138  H    0.039489
   139  H    0.037882
   140  H    0.036233
   141  H    0.033698
   142  H    0.013793
   143  H    0.014805
   144  H    0.024900
   145  H    0.012974
   146  H    0.010435
   147  H    0.006750
   148  H    0.003199
   149  H    0.010870
   150  H    0.017249
   151  H    0.029602
   152  H    0.045287
   153  H    0.008706
   154  H    0.046385
   155  H    0.033797
   156  H    0.043200
   157  H    0.049566
   158  H    0.053548
 Sum of Mulliken charges =  -0.00000

 Dipole moment (field-independent basis, Debye):
    X=              3.2887    Y=              4.8145    Z=              1.2535  Tot=              5.9638
 Quadrupole moment (field-independent basis, Debye-Ang):
   XX=           -521.5738   YY=           -518.0147   ZZ=           -479.8344
   XY=             11.1439   XZ=            -42.3172   YZ=             15.6345

 Normal termination of Gaussian 16 at Fri Sep 10 17:09:11 2021.
