 Gaussian 16, Revision A.03,
 Gaussian 16:  ES64L-G16RevA.03 25-Dec-2016

 -----------------------------------------------------------
 #p cam-b3lyp/Def2SVP td=(nstates=5, root=1) density=current
 -----------------------------------------------------------

 --------------------------------
 TDDFT excited states in gaussian
 --------------------------------
 Symbolic Z-matrix:
 Charge =  0 Multiplicity = 1

                         Standard orientation:
 ---------------------------------------------------------------------
 Center     Atomic      Atomic             Coordinates (Angstroms)
 Number     Number       Type             X           Y           Z
 ---------------------------------------------------------------------
      1         12           0        0.776111    0.081087   -0.099290
      2          6           0       -2.794870    0.279013    0.197317
      3          6           0        0.505179   -3.235016    0.652147
      4          6           0        3.941300   -0.032722    0.090604
      5          6           0        0.862426    3.541560    0.304915
      6          7           0       -0.973265   -1.197013    0.346130
      7          6           0       -2.286401   -1.025322    0.369383
      8          6           0       -3.104214   -2.337242    0.509407
      9          6           0       -1.980592   -3.247678    1.207586
     10          6           0       -0.732471   -2.543922    0.678819
     11          6           0       -1.980114   -3.145867    2.723823
     12          6           0       -3.536472   -2.923354   -0.880427
     13          6           0       -4.594271   -4.027047   -0.812021
     14          1           0       -5.593180   -4.100585   -1.874680
     15          7           0        2.012212   -1.469744   -0.173759
     16          6           0        1.730789   -2.750655    0.144594
     17          6           0        2.980441   -3.499699   -0.059034
     18          6           0        4.065201   -2.527976   -0.365243
     19          6           0        3.370837   -1.276847   -0.135840
     20          6           0        3.043431   -4.999321   -0.034732
     21          6           0        5.494979   -2.696986   -0.781619
     22          8           0        6.322118   -1.718058   -0.762368
     23          6           0        5.921354   -4.061904   -1.123224
     24          7           0        2.212664    1.508633    0.370571
     25          6           0        3.523140    1.210670    0.328162
     26          6           0        4.369559    2.456851    0.433024
     27          6           0        3.348231    3.681426    0.311013
     28          6           0        2.019528    2.896983    0.243252
     29          6           0        5.185236    2.600851    1.717673
     30          6           0        3.641497    4.735242   -0.791774
     31          6           0        3.458403    4.116337   -2.158822
     32          7           0       -0.682780    1.670731    0.013491
     33          6           0       -0.431886    3.046329    0.210636
     34          6           0       -1.743546    3.715106    0.331935
     35          6           0       -2.673488    2.670617    0.219062
     36          6           0       -1.989239    1.435268    0.060280
     37          6           0       -1.950786    5.103488    0.567658
     38          6           0       -4.078176    2.330844    0.208779
     39          8           0       -5.127402    2.973336    0.216699
     40          6           0       -4.216892    0.751428    0.320997
     41          6           0       -5.199710    0.296151   -0.722703
     42          8           0       -4.937184    0.414681   -1.932513
     43          8           0       -6.185842   -0.398215   -0.126240
     44          6           0       -7.179794   -0.880415   -1.121912
     45          1           0        0.554811   -4.227791    1.100276
     46          1           0        5.032710   -0.000878    0.054737
     47          1           0        0.802269    4.631600    0.334387
     48          1           0       -3.974477   -2.263800    1.150518
     49          1           0       -2.022221   -4.272210    0.847084
     50          1           0       -2.660282   -2.384971    3.076738
     51          1           0       -0.963007   -2.902642    3.002000
     52          1           0       -2.188222   -4.123772    3.167361
     53          1           0       -2.699145   -3.491700   -1.305408
     54          1           0       -3.870608   -2.142715   -1.535852
     55          1           0       -5.075855   -4.075996    0.172167
     56          1           0       -4.094590   -4.993424   -0.914260
     57          1           0        2.124437   -5.433900    0.377569
     58          1           0        3.821222   -5.275059    0.685597
     59          1           0        3.295608   -5.426134   -1.007823
     60          1           0        5.757611   -4.715625   -0.269821
     61          1           0        6.948274   -3.966283   -1.481233
     62          1           0        5.284007   -4.435285   -1.932539
     63          1           0        5.081442    2.510492   -0.381499
     64          1           0        3.314507    4.277463    1.234831
     65          1           0        6.270314    2.716369    1.535091
     66          1           0        4.994389    1.737895    2.341710
     67          1           0        4.886746    3.424174    2.364390
     68          1           0        4.682760    5.062064   -0.735978
     69          1           0        3.021162    5.622185   -0.717558
     70          1           0        4.414934    3.614398   -2.332587
     71          1           0        3.274868    4.885653   -2.906156
     72          1           0        2.679853    3.344860   -2.140498
     73          1           0       -2.748232    5.415888   -0.093391
     74          1           0       -1.042133    5.676200    0.394102
     75          1           0       -2.227151    5.082638    1.625229
     76          1           0       -4.557957    0.523504    1.331591
     77          1           0       -8.158745   -0.511596   -0.800489
     78          1           0       -7.045935   -1.977445   -1.170482
     79          1           0       -7.120524   -0.475961   -2.125582
 ---------------------------------------------------------------------

 SCF Done:  E(RCAM-B3LYP) =  -2034.90325476     A.U. after   19 cycles

 Excitation energies and oscillator strengths:

 Excited State   1:      Singlet-A      1.6756 eV  739.94 nm  f=0.3931  <S**2>=0.000
     155 ->158         0.17368
     156 ->157         0.68603
     155 <-158         0.10466
 This state for optimization and/or second-order correction.
 Total Energy, E(TD-HF/TD-DFT) =  -2034.84167765
 Copying the excited state density for this state as the 1-particle RhoCI density.

 Excited State   2:      Singlet-A      2.1861 eV  567.14 nm  f=0.1027  <S**2>=0.000
     155 ->157         0.64247
     156 ->158        -0.27313

 Excited State   3:      Singlet-A      3.2558 eV  380.81 nm  f=0.0003  <S**2>=0.000
     152 ->157        -0.11065
     154 ->157         0.67040

 Excited State   4:      Singlet-A      3.2944 eV  376.35 nm  f=0.0112  <S**2>=0.000
     152 ->157        -0.19557
     152 ->160        -0.11066
     153 ->157         0.59212
     156 ->158         0.26270

 Excited State   5:      Singlet-A      3.3739 eV  367.48 nm  f=0.0058  <S**2>=0.000
     152 ->157         0.56115
     152 ->159        -0.17378
     152 ->160         0.24254
     153 ->157         0.18815
     154 ->157         0.14855
     156 ->158         0.13589

 The electronic state is 1-A.
 Alpha  occ. eigenvalues --  -46.87685 -19.26372 -19.19184 -19.18737 -19.18075
 Alpha  occ. eigenvalues --  -14.42522 -14.41384 -14.39376 -14.38624 -10.39114
 Alpha  occ. eigenvalues --  -10.35414 -10.34253 -10.31778 -10.31333 -10.31047
 Alpha  occ. eigenvalues --  -10.30422 -10.30385 -10.30165 -10.29919 -10.29461
 Alpha  occ. eigenvalues --  -10.29425 -10.28742 -10.28675 -10.28429 -10.28164
 Alpha  occ. eigenvalues --  -10.28025 -10.27693 -10.27543 -10.27508 -10.27491
 Alpha  occ. eigenvalues --  -10.27488 -10.27401 -10.27074 -10.26715 -10.26436
 Alpha  occ. eigenvalues --  -10.26162 -10.26049 -10.25959 -10.25876 -10.25423
 Alpha  occ. eigenvalues --  -10.24897 -10.24755 -10.24714  -3.16435  -1.91317
 Alpha  occ. eigenvalues --   -1.90905  -1.90742  -1.16666  -1.08682  -1.06989
 Alpha  occ. eigenvalues --   -1.06968  -1.04519  -1.03687  -1.03063  -1.02136
 Alpha  occ. eigenvalues --   -0.92011  -0.89519  -0.89175  -0.88245  -0.87818
 Alpha  occ. eigenvalues --   -0.87708  -0.87143  -0.85023  -0.83900  -0.82955
 Alpha  occ. eigenvalues --   -0.82676  -0.81620  -0.80466  -0.78659  -0.77168
 Alpha  occ. eigenvalues --   -0.76922  -0.75862  -0.74827  -0.72723  -0.71605
 Alpha  occ. eigenvalues --   -0.69782  -0.68851  -0.67626  -0.67223  -0.65295
 Alpha  occ. eigenvalues --   -0.64794  -0.64677  -0.64228  -0.62302  -0.60363
 Alpha  occ. eigenvalues --   -0.59820  -0.59017  -0.58450  -0.57578  -0.57260
 Alpha  occ. eigenvalues --   -0.56228  -0.55909  -0.55475  -0.55272  -0.54512
 Alpha  occ. eigenvalues --   -0.53936  -0.53251  -0.53165  -0.52926  -0.52691
 Alpha  occ. eigenvalues --   -0.52425  -0.51910  -0.51682  -0.51225  -0.50498
 Alpha  occ. eigenvalues --   -0.50003  -0.49891  -0.49511  -0.49226  -0.49128
 Alpha  occ. eigenvalues --   -0.48582  -0.48400  -0.48362  -0.47618  -0.47142
 Alpha  occ. eigenvalues --   -0.46733  -0.46577  -0.46295  -0.46110  -0.45846
 Alpha  occ. eigenvalues --   -0.45233  -0.44538  -0.44500  -0.44151  -0.44102
 Alpha  occ. eigenvalues --   -0.43962  -0.43577  -0.43410  -0.42954  -0.42925
 Alpha  occ. eigenvalues --   -0.42578  -0.41988  -0.41693  -0.41482  -0.41014
 Alpha  occ. eigenvalues --   -0.40745  -0.40722  -0.40518  -0.40249  -0.39450
 Alpha  occ. eigenvalues --   -0.38375  -0.37677  -0.37290  -0.37223  -0.36794
 Alpha  occ. eigenvalues --   -0.36241  -0.34278  -0.33885  -0.33200  -0.31296
 Alpha  occ. eigenvalues --   -0.30997  -0.29980  -0.29351  -0.29236  -0.24060
 Alpha  occ. eigenvalues --   -0.21141
 Alpha virt. eigenvalues --   -0.08816  -0.01708  -0.00052   0.02183   0.03205
 Alpha virt. eigenvalues --    0.04706   0.05142   0.06161   0.06884   0.07879
 Alpha virt. eigenvalues --    0.08843   0.09029   0.09259   0.09913   0.10475

 Mulliken charges:
               1
     1  Mg   0.827435
     2  C   -0.028760
     3  C   -0.097726
     4  C   -0.053716
     5  C   -0.072000
     6  N   -0.268430
     7  C   -0.035263
     8  C   -0.018077
     9  C   -0.093608
    10  C    0.062218
    11  C    0.115883
    12  C    0.064088
    13  C   -0.078597
    14  H    0.036370
    15  N   -0.425616
    16  C    0.168117
    17  C   -0.176658
    18  C   -0.005789
    19  C    0.160473
    20  C    0.099719
    21  C    0.011069
    22  O   -0.257435
    23  C    0.062169
    24  N   -0.362100
    25  C    0.050890
    26  C   -0.022229
    27  C   -0.038861
    28  C    0.102481
    29  C    0.073428
    30  C    0.035061
    31  C   -0.008023
    32  N   -0.325477
    33  C    0.083869
    34  C   -0.163943
    35  C    0.003743
    36  C    0.102782
    37  C    0.131828
    38  C    0.037816
    39  O   -0.191328
    40  C    0.003560
    41  C    0.210059
    42  O   -0.251987
    43  O   -0.305983
    44  C    0.152194
    45  H   -0.020997
    46  H   -0.016527
    47  H   -0.041084
    48  H    0.001951
    49  H   -0.001722
    50  H    0.022528
    51  H    0.016216
    52  H    0.017833
    53  H    0.013825
    54  H    0.039730
    55  H    0.021232
    56  H    0.020042
    57  H    0.007718
    58  H    0.025784
    59  H    0.039215
    60  H    0.036870
    61  H    0.034911
    62  H    0.032515
    63  H    0.017914
    64  H    0.016913
    65  H    0.026988
    66  H    0.013676
    67  H    0.006724
    68  H    0.007436
    69  H    0.005458
    70  H    0.011632
    71  H    0.019132
    72  H    0.030499
    73  H    0.046212
    74  H    0.007768
    75  H    0.046850
    76  H    0.033410
    77  H    0.043741
    78  H    0.048550
    79  H    0.053410
 Sum of Mulliken charges =  -0.00000

 Dipole moment (field-independent basis, Debye):
    X=              1.2319    Y=             -3.7080    Z=              1.9028  Tot=              4.3460
 Quadrupole moment (field-independent basis, Debye-Ang):
   XX=           -277.9573   YY=           -223.1225   ZZ=           -258.6161
   XY=             27.6070   XZ=             -1.1778   YZ=              0.6629

 Normal termination of Gaussian 16 at Thu May 26 11:13:54 2022.
