 Gaussian 16, Revision A.03,
 Gaussian 16:  ES64L-G16RevA.03 25-Dec-2016

 -----------------------------------
 #p cam-b3lyp/Def2SVP td=(nstates=5)
 -----------------------------------

 --------------------------------
 TDDFT excited states in gaussian
 --------------------------------
 Symbolic Z-matrix:
 Charge =  0 Multiplicity = 1

                         Standard orientation:
 ---------------------------------------------------------------------
 Center     Atomic      Atomic             Coordinates (Angstroms)
 Number     Number       Type             X           Y           Z
 ---------------------------------------------------------------------
      1         12           0       15.924470   -0.650924   -0.066073
      2          6           0       16.095557    2.851156   -0.786061
      3          6           0       16.811284    0.116113    3.138343
      4          6           0       16.223223   -3.760408    0.480255
      5          6           0       16.171271   -1.217819   -3.495851
      6          7           0       16.368011    1.276276    0.928824
      7          6           0       16.339634    2.552009    0.556170
      8          6           0       16.519055    3.546237    1.742210
      9          6           0       17.285092    2.587853    2.760388
     10          6           0       16.764406    1.247886    2.271207
     11          6           0       18.801529    2.614340    2.598463
     12          6           0       15.148648    4.026335    2.328060
     13          6           0       15.225851    5.236821    3.263003
     14          1           0       14.142414    6.207944    3.242221
     15          7           0       15.961553   -1.655135    1.634820
     16          6           0       16.333846   -1.180213    2.847722
     17          6           0       16.188269   -2.310384    3.790167
     18          6           0       15.883013   -3.530970    2.993247
     19          6           0       16.038264   -3.029742    1.651589
     20          6           0       16.289742   -2.160127    5.277069
     21          6           0       15.520756   -4.930096    3.379701
     22          8           0       15.524254   -5.891168    2.536550
     23          6           0       15.243867   -5.166270    4.808195
     24          7           0       16.383617   -2.271653   -1.298979
     25          6           0       16.390645   -3.521245   -0.822057
     26          6           0       16.464003   -4.528539   -1.931072
     27          6           0       16.260066   -3.709384   -3.286487
     28          6           0       16.182171   -2.282241   -2.690275
     29          6           0       17.765410   -5.338058   -2.014906
     30          6           0       15.122174   -4.178781   -4.227383
     31          6           0       13.780948   -3.930478   -3.574270
     32          7           0       15.924900    0.571211   -1.859792
     33          6           0       16.061745    0.126760   -3.182823
     34          6           0       16.111843    1.326458   -4.038558
     35          6           0       16.016709    2.392813   -3.146549
     36          6           0       15.940133    1.891633   -1.815667
     37          6           0       16.289337    1.336341   -5.450235
     38          6           0       15.986736    3.839628   -3.006240
     39          8           0       15.925623    4.786016   -3.792438
     40          6           0       16.159304    4.197168   -1.464095
     41          6           0       15.106192    5.212300   -1.112279
     42          8           0       13.896028    4.907657   -1.120090
     43          8           0       15.694318    6.302392   -0.596189
     44          6           0       14.702942    7.337377   -0.198530
     45          1           0       17.310619    0.211750    4.104500
     46          1           0       16.220384   -4.844163    0.614064
     47          1           0       16.162364   -1.318602   -4.582689
     48          1           0       17.134459    4.417188    1.516050
     49          1           0       16.977403    2.760405    3.791540
     50          1           0       19.098649    3.190815    1.722497
     51          1           0       19.100651    1.571882    2.487558
     52          1           0       19.282358    2.968615    3.510642
     53          1           0       14.773525    3.277099    3.025189
     54          1           0       14.438245    4.234130    1.527139
     55          1           0       16.190556    5.739121    3.185875
     56          1           0       15.189220    4.877030    4.291306
     57          1           0       16.684430   -1.183618    5.554912
     58          1           0       17.047026   -2.866064    5.617484
     59          1           0       15.343008   -2.367575    5.776060
     60          1           0       16.121402   -4.893476    5.394765
     61          1           0       14.915528   -6.202302    4.883571
     62          1           0       14.442340   -4.499495    5.127437
     63          1           0       15.671332   -5.269910   -1.839046
     64          1           0       17.150608   -3.730525   -3.915105
     65          1           0       17.613863   -6.416748   -1.968374
     66          1           0       18.424165   -5.000842   -1.215144
     67          1           0       18.373488   -5.135902   -2.896264
     68          1           0       15.197432   -5.250523   -4.408078
     69          1           0       15.130076   -3.677864   -5.195510
     70          1           0       13.654475   -4.805453   -2.937673
     71          1           0       12.994524   -3.879089   -4.327999
     72          1           0       13.810618   -3.055962   -2.924018
     73          1           0       15.582935    2.068450   -5.841365
     74          1           0       16.114688    0.349454   -5.878202
     75          1           0       17.332772    1.643217   -5.520415
     76          1           0       17.166836    4.594512   -1.345276
     77          1           0       14.973076    8.256923   -0.717853
     78          1           0       14.694341    7.355663    0.891423
     79          1           0       13.683244    7.190859   -0.556421
     80         12           0      -15.828738   -0.897991    0.117794
     81          6           0      -17.022650    2.452924   -0.356574
     82          6           0      -13.835845    0.323122    2.602114
     83          6           0      -14.431032   -3.742962    0.259110
     84          6           0      -17.019010   -1.625975   -3.075798
     85          7           0      -15.554211    1.142453    0.926162
     86          6           0      -16.107130    2.326266    0.708893
     87          6           0      -15.713983    3.418635    1.739294
     88          6           0      -14.316610    2.796319    2.228131
     89          6           0      -14.590261    1.322249    1.936761
     90          6           0      -13.132830    3.238300    1.383943
     91          6           0      -16.741002    3.523005    2.920971
     92          6           0      -16.589655    4.768987    3.796397
     93          1           0      -17.794626    5.383649    4.346567
     94          7           0      -14.728436   -1.718525    1.551195
     95          6           0      -14.002485   -1.074663    2.489119
     96          6           0      -13.361029   -2.126254    3.293396
     97          6           0      -13.635878   -3.440694    2.651972
     98          6           0      -14.272147   -3.007010    1.424303
     99          6           0      -12.645673   -1.842477    4.582265
    100          6           0      -13.358915   -4.853627    3.068023
    101          8           0      -13.470226   -5.831473    2.246879
    102          6           0      -12.863622   -5.048389    4.438509
    103          7           0      -15.546087   -2.401555   -1.289957
    104          6           0      -14.953125   -3.560615   -0.953940
    105          6           0      -15.107509   -4.589654   -2.048295
    106          6           0      -16.139986   -3.955329   -3.091946
    107          6           0      -16.344149   -2.571688   -2.436772
    108          6           0      -13.823184   -4.982405   -2.778123
    109          6           0      -17.395667   -4.800111   -3.441606
    110          6           0      -18.295628   -4.911990   -2.232084
    111          7           0      -16.999322    0.131766   -1.378000
    112          6           0      -17.361295   -0.346828   -2.656283
    113          6           0      -18.056893    0.754786   -3.352705
    114          6           0      -18.030851    1.813654   -2.432593
    115          6           0      -17.348218    1.407470   -1.254228
    116          6           0      -18.565961    0.709073   -4.681197
    117          6           0      -18.416296    3.186018   -2.194331
    118          8           0      -19.093130    4.015894   -2.800067
    119          6           0      -17.669924    3.701196   -0.888992
    120          6           0      -18.682425    4.391962   -0.017100
    121          8           0      -19.617403    3.751473    0.494968
    122          8           0      -18.259372    5.642296    0.243760
    123          6           0      -19.225075    6.364104    1.114531
    124          1           0      -13.009025    0.636181    3.240266
    125          1           0      -14.063085   -4.770914    0.296830
    126          1           0      -17.506181   -1.804485   -4.036769
    127          1           0      -15.555084    4.404145    1.318230
    128          1           0      -14.165514    2.952843    3.293044
    129          1           0      -13.443967    3.806120    0.519699
    130          1           0      -12.633012    2.328285    1.078845
    131          1           0      -12.413522    3.785122    2.000319
    132          1           0      -16.515350    2.744699    3.661280
    133          1           0      -17.748040    3.456916    2.557469
    134          1           0      -15.951319    5.527418    3.327082
    135          1           0      -16.051246    4.490912    4.705690
    136          1           0      -12.463018   -0.768724    4.712969
    137          1           0      -11.645053   -2.279634    4.495566
    138          1           0      -13.148297   -2.279094    5.447950
    139          1           0      -11.940564   -4.489219    4.571782
    140          1           0      -12.809716   -6.129716    4.578860
    141          1           0      -13.592614   -4.623645    5.137636
    142          1           0      -15.523619   -5.510173   -1.657653
    143          1           0      -15.670803   -3.773712   -4.070070
    144          1           0      -13.614059   -6.068166   -2.739942
    145          1           0      -13.002539   -4.421834   -2.350514
    146          1           0      -13.780271   -4.691534   -3.826330
    147          1           0      -17.104479   -5.819360   -3.707139
    148          1           0      -17.966668   -4.401272   -4.273395
    149          1           0      -17.851141   -5.738334   -1.669352
    150          1           0      -19.315349   -5.143082   -2.533410
    151          1           0      -18.228497   -4.013867   -1.607158
    152          1           0      -19.542356    1.174417   -4.656647
    153          1           0      -18.620858   -0.312694   -5.050988
    154          1           0      -17.803390    1.293871   -5.202504
    155          1           0      -16.877034    4.377647   -1.210422
    156          1           0      -19.498661    7.286197    0.592441
    157          1           0      -18.722479    6.470124    2.094282
    158          1           0      -20.197636    5.911120    1.267442
 ---------------------------------------------------------------------

 SCF Done:  E(RCAM-B3LYP) =  -4069.81176612     A.U. after   19 cycles

 Excitation energies and oscillator strengths:

 Excited State   1:      Singlet-A      1.6754 eV  740.04 nm  f=0.2623  <S**2>=0.000
     310 -> 316        0.16997
     311 -> 314       -0.13872
     312 -> 313        0.67188
     310 <- 316        0.10246
 This state for optimization and/or second-order correction.
 Total Energy, E(TD-HF/TD-DFT) =  -4069.75019703
 Copying the excited state density for this state as the 1-particle RhoCI density.

 Excited State   2:      Singlet-A      1.6800 eV  737.99 nm  f=0.5164  <S**2>=0.000
     309 -> 315        0.17198
     311 -> 314        0.67152
     312 -> 313        0.13867
     309 <- 315        0.10297

 Excited State   3:      Singlet-A      2.1861 eV  567.15 nm  f=0.0951  <S**2>=0.000
     310 -> 313        0.64211
     312 -> 316       -0.27294

 Excited State   4:      Singlet-A      2.1926 eV  565.48 nm  f=0.1050  <S**2>=0.000
     309 -> 314        0.64032
     311 -> 315       -0.27815

 Excited State   5:      Singlet-A      3.0633 eV  404.75 nm  f=0.0000  <S**2>=0.000
     312 -> 314        0.70710

 The electronic state is 1-A.
 Alpha  occ. eigenvalues --  -46.87811 -46.87661 -19.26350 -19.26301 -19.19162
 Alpha  occ. eigenvalues --  -19.19037 -19.18829 -19.18714 -19.18184 -19.18052
 Alpha  occ. eigenvalues --  -14.42497 -14.42465 -14.41464 -14.41359 -14.39417
 Alpha  occ. eigenvalues --  -14.39352 -14.38601 -14.38600 -10.39096 -10.39091
 Alpha  occ. eigenvalues --  -10.35463 -10.35392 -10.34404 -10.34229 -10.31757
 Alpha  occ. eigenvalues --  -10.31697 -10.31420 -10.31309 -10.31023 -10.30924
 Alpha  occ. eigenvalues --  -10.30584 -10.30522 -10.30398 -10.30361 -10.30221
 Alpha  occ. eigenvalues --  -10.30141 -10.29934 -10.29895 -10.29645 -10.29437
 Alpha  occ. eigenvalues --  -10.29401 -10.29269 -10.28765 -10.28719 -10.28655
 Alpha  occ. eigenvalues --  -10.28557 -10.28405 -10.28379 -10.28139 -10.28132
 Alpha  occ. eigenvalues --  -10.28001 -10.27807 -10.27742 -10.27669 -10.27599
 Alpha  occ. eigenvalues --  -10.27518 -10.27513 -10.27496 -10.27484 -10.27468
 Alpha  occ. eigenvalues --  -10.27465 -10.27462 -10.27418 -10.27375 -10.27173
 Alpha  occ. eigenvalues --  -10.27051 -10.26722 -10.26693 -10.26425 -10.26416
 Alpha  occ. eigenvalues --  -10.26248 -10.26196 -10.26138 -10.26033 -10.26022
 Alpha  occ. eigenvalues --  -10.25934 -10.25856 -10.25851 -10.25447 -10.25395
 Alpha  occ. eigenvalues --  -10.24873 -10.24847 -10.24802 -10.24732 -10.24700
 Alpha  occ. eigenvalues --  -10.24690  -3.16554  -3.16410  -1.91435  -1.91293
 Alpha  occ. eigenvalues --   -1.91022  -1.90881  -1.90864  -1.90718  -1.16650
 Alpha  occ. eigenvalues --   -1.16644  -1.08659  -1.08642  -1.07230  -1.06966
 Alpha  occ. eigenvalues --   -1.06946  -1.06659  -1.04596  -1.04495  -1.03775
 Alpha  occ. eigenvalues --   -1.03663  -1.03248  -1.03039  -1.02425  -1.02111
 Alpha  occ. eigenvalues --   -0.91987  -0.91987  -0.89533  -0.89495  -0.89203
 Alpha  occ. eigenvalues --   -0.89151  -0.88300  -0.88220  -0.87884  -0.87794
 Alpha  occ. eigenvalues --   -0.87688  -0.87684  -0.87288  -0.87120  -0.85000
 Alpha  occ. eigenvalues --   -0.84997  -0.83950  -0.83876  -0.82981  -0.82932
 Alpha  occ. eigenvalues --   -0.82664  -0.82653  -0.81601  -0.81597  -0.80611
 Alpha  occ. eigenvalues --   -0.80443  -0.78812  -0.78636  -0.77233  -0.77145
 Alpha  occ. eigenvalues --   -0.76949  -0.76898  -0.75938  -0.75838  -0.74911
 Alpha  occ. eigenvalues --   -0.74803  -0.72788  -0.72699  -0.71686  -0.71581
 Alpha  occ. eigenvalues --   -0.69920  -0.69758  -0.68888  -0.68827  -0.67656
 Alpha  occ. eigenvalues --   -0.67602  -0.67236  -0.67200  -0.65302  -0.65272
 Alpha  occ. eigenvalues --   -0.64868  -0.64770  -0.64654  -0.64635  -0.64283
 Alpha  occ. eigenvalues --   -0.64204  -0.62313  -0.62279  -0.60456  -0.60340
 Alpha  occ. eigenvalues --   -0.59819  -0.59796  -0.59002  -0.58993  -0.58518
 Alpha  occ. eigenvalues --   -0.58426  -0.57600  -0.57555  -0.57323  -0.57237
 Alpha  occ. eigenvalues --   -0.56324  -0.56205  -0.55995  -0.55887  -0.55535
 Alpha  occ. eigenvalues --   -0.55452  -0.55353  -0.55248  -0.54538  -0.54488
 Alpha  occ. eigenvalues --   -0.53912  -0.53910  -0.53313  -0.53237  -0.53228
 Alpha  occ. eigenvalues --   -0.53142  -0.52930  -0.52903  -0.52771  -0.52668
 Alpha  occ. eigenvalues --   -0.52451  -0.52402  -0.51929  -0.51886  -0.51659
 Alpha  occ. eigenvalues --   -0.51632  -0.51210  -0.51202  -0.50587  -0.50476
 Alpha  occ. eigenvalues --   -0.50045  -0.49980  -0.49933  -0.49867  -0.49530
 Alpha  occ. eigenvalues --   -0.49488  -0.49229  -0.49202  -0.49111  -0.49104
 Alpha  occ. eigenvalues --   -0.48608  -0.48558  -0.48475  -0.48460  -0.48376
 Alpha  occ. eigenvalues --   -0.48339  -0.47709  -0.47595  -0.47311  -0.47118
 Alpha  occ. eigenvalues --   -0.46811  -0.46709  -0.46571  -0.46554  -0.46373
 Alpha  occ. eigenvalues --   -0.46271  -0.46177  -0.46086  -0.45837  -0.45823
 Alpha  occ. eigenvalues --   -0.45214  -0.45208  -0.44592  -0.44522  -0.44514
 Alpha  occ. eigenvalues --   -0.44476  -0.44159  -0.44127  -0.44103  -0.44078
 Alpha  occ. eigenvalues --   -0.44034  -0.43939  -0.43554  -0.43510  -0.43400
 Alpha  occ. eigenvalues --   -0.43386  -0.43041  -0.42931  -0.42901  -0.42714
 Alpha  occ. eigenvalues --   -0.42669  -0.42554  -0.42024  -0.41965  -0.41718
 Alpha  occ. eigenvalues --   -0.41669  -0.41549  -0.41459  -0.41155  -0.40989
 Alpha  occ. eigenvalues --   -0.40884  -0.40838  -0.40722  -0.40698  -0.40585
 Alpha  occ. eigenvalues --   -0.40493  -0.40251  -0.40227  -0.39454  -0.39426
 Alpha  occ. eigenvalues --   -0.38482  -0.38350  -0.37764  -0.37654  -0.37334
 Alpha  occ. eigenvalues --   -0.37279  -0.37266  -0.37199  -0.36772  -0.36729
 Alpha  occ. eigenvalues --   -0.36217  -0.36207  -0.34300  -0.34254  -0.33863
 Alpha  occ. eigenvalues --   -0.33787  -0.33201  -0.33176  -0.31359  -0.31273
 Alpha  occ. eigenvalues --   -0.31050  -0.30973  -0.30043  -0.29956  -0.29463
 Alpha  occ. eigenvalues --   -0.29336  -0.29327  -0.29212  -0.24095  -0.24036
 Alpha  occ. eigenvalues --   -0.21142  -0.21117
 Alpha virt. eigenvalues --   -0.08792  -0.08788  -0.01764  -0.01684  -0.00072
 Alpha virt. eigenvalues --   -0.00029   0.02186   0.02207   0.03106   0.03225
 Alpha virt. eigenvalues --    0.04703   0.04730   0.05082   0.05164   0.06160

 Mulliken charges:
               1
     1  Mg   0.838717
     2  C   -0.002974
     3  C   -0.094141
     4  C   -0.045870
     5  C   -0.063935
     6  N   -0.256784
     7  C   -0.052467
     8  C   -0.014023
     9  C   -0.086987
    10  C    0.046316
    11  C    0.104808
    12  C    0.053482
    13  C   -0.071794
    14  H    0.036069
    15  N   -0.433141
    16  C    0.168412
    17  C   -0.177158
    18  C   -0.004001
    19  C    0.148712
    20  C    0.110181
    21  C    0.012284
    22  O   -0.249603
    23  C    0.062478
    24  N   -0.341127
    25  C    0.041273
    26  C   -0.028203
    27  C   -0.023964
    28  C    0.074809
    29  C    0.076168
    30  C    0.035129
    31  C   -0.004506
    32  N   -0.310468
    33  C    0.080395
    34  C   -0.169710
    35  C    0.008360
    36  C    0.082977
    37  C    0.127313
    38  C    0.046115
    39  O   -0.188436
    40  C   -0.005332
    41  C    0.212879
    42  O   -0.257134
    43  O   -0.304783
    44  C    0.157697
    45  H   -0.017600
    46  H   -0.016819
    47  H   -0.041473
    48  H    0.000944
    49  H   -0.004051
    50  H    0.025484
    51  H    0.016464
    52  H    0.016663
    53  H    0.011182
    54  H    0.044102
    55  H    0.017897
    56  H    0.017939
    57  H    0.005868
    58  H    0.026842
    59  H    0.039522
    60  H    0.037358
    61  H    0.035663
    62  H    0.031469
    63  H    0.016562
    64  H    0.009480
    65  H    0.023233
    66  H    0.012549
    67  H    0.004772
    68  H    0.006391
    69  H    0.004742
    70  H    0.008785
    71  H    0.018149
    72  H    0.028957
    73  H    0.047566
    74  H    0.009126
    75  H    0.046028
    76  H    0.035165
    77  H    0.042958
    78  H    0.046390
    79  H    0.053656
    80  Mg   0.837853
    81  C   -0.016846
    82  C   -0.087771
    83  C   -0.045516
    84  C   -0.064860
    85  N   -0.254573
    86  C   -0.049815
    87  C   -0.015101
    88  C   -0.090501
    89  C    0.045759
    90  C    0.114362
    91  C    0.062527
    92  C   -0.077895
    93  H    0.034881
    94  N   -0.423487
    95  C    0.162909
    96  C   -0.174594
    97  C   -0.007800
    98  C    0.152143
    99  C    0.099348
   100  C    0.015582
   101  O   -0.253173
   102  C    0.061197
   103  N   -0.350057
   104  C    0.037540
   105  C   -0.019856
   106  C   -0.034793
   107  C    0.088894
   108  C    0.073636
   109  C    0.034722
   110  C   -0.007672
   111  N   -0.324131
   112  C    0.078464
   113  C   -0.163145
   114  C    0.002244
   115  C    0.096209
   116  C    0.131493
   117  C    0.042388
   118  O   -0.187862
   119  C    0.000903
   120  C    0.211269
   121  O   -0.251040
   122  O   -0.305618
   123  C    0.152034
   124  H   -0.019626
   125  H   -0.015546
   126  H   -0.040454
   127  H   -0.000626
   128  H   -0.004329
   129  H    0.022488
   130  H    0.014465
   131  H    0.016326
   132  H    0.013903
   133  H    0.037664
   134  H    0.020810
   135  H    0.019587
   136  H    0.008771
   137  H    0.026188
   138  H    0.039778
   139  H    0.038276
   140  H    0.036399
   141  H    0.033874
   142  H    0.014397
   143  H    0.012450
   144  H    0.025157
   145  H    0.011686
   146  H    0.005711
   147  H    0.006277
   148  H    0.003651
   149  H    0.010932
   150  H    0.017921
   151  H    0.030097
   152  H    0.045994
   153  H    0.008511
   154  H    0.046974
   155  H    0.035060
   156  H    0.043920
   157  H    0.049495
   158  H    0.053568
 Sum of Mulliken charges =  -0.00000

 Dipole moment (field-independent basis, Debye):
    X=              5.7187    Y=             -0.4125    Z=              6.6155  Tot=              8.7543
 Quadrupole moment (field-independent basis, Debye-Ang):
   XX=           -574.3785   YY=           -529.2725   ZZ=           -465.0268
   XY=              4.9247   XZ=             28.6251   YZ=             56.8362

 Normal termination of Gaussian 16 at Sun Sep 12 18:48:48 2021.
