 Gaussian 16, Revision A.03,
 Gaussian 16:  ES64L-G16RevA.03 25-Dec-2016

 -----------------------------------
 #p cam-b3lyp/Def2SVP td=(nstates=5)
 -----------------------------------

 --------------------------------
 TDDFT excited states in gaussian
 --------------------------------
 Symbolic Z-matrix:
 Charge =  0 Multiplicity = 1

                         Standard orientation:
 ---------------------------------------------------------------------
 Center     Atomic      Atomic             Coordinates (Angstroms)
 Number     Number       Type             X           Y           Z
 ---------------------------------------------------------------------
      1         12           0        4.928478   -1.144097    0.337611
      2          6           0        5.519264    1.953421   -1.356073
      3          6           0        5.788871    0.445607    3.231680
      4          6           0        4.854532   -3.966248    1.782124
      5          6           0        5.223973   -2.721942   -2.755728
      6          7           0        5.554028    0.937721    0.756378
      7          6           0        5.682864    2.042349    0.028113
      8          6           0        5.934037    3.320293    0.883182
      9          6           0        6.552074    2.635579    2.183642
     10          6           0        5.899553    1.268951    2.071988
     11          6           0        8.066306    2.463524    2.120382
     12          6           0        4.608043    4.084737    1.213479
     13          6           0        4.790613    5.503914    1.759335
     14          1           0        3.825497    6.527126    1.386594
     15          7           0        4.794650   -1.598556    2.255529
     16          6           0        5.177602   -0.825059    3.299720
     17          6           0        4.873476   -1.605647    4.518273
     18          6           0        4.458692   -2.971124    4.092221
     19          6           0        4.714504   -2.907196    2.675940
     20          6           0        4.941557   -1.032878    5.900680
     21          6           0        3.927515   -4.150447    4.844006
     22          8           0        3.850274   -5.313431    4.318578
     23          6           0        3.578048   -3.924867    6.258230
     24          7           0        5.241978   -3.094037   -0.338472
     25          6           0        5.091418   -4.140870    0.480341
     26          6           0        5.087199   -5.433325   -0.280897
     27          6           0        5.022823   -5.036032   -1.826137
     28          6           0        5.087254   -3.495969   -1.676721
     29          6           0        6.290566   -6.355411   -0.040746
     30          6           0        3.871165   -5.648410   -2.662258
     31          6           0        2.545634   -5.087171   -2.198496
     32          7           0        5.127352   -0.513745   -1.729791
     33          6           0        5.257107   -1.341009   -2.854723
     34          6           0        5.471402   -0.459301   -4.016936
     35          6           0        5.467945    0.827197   -3.481440
     36          6           0        5.290623    0.752379   -2.070323
     37          6           0        5.695965   -0.885124   -5.355846
     38          6           0        5.597433    2.246324   -3.769828
     39          8           0        5.670268    2.918882   -4.799320
     40          6           0        5.757751    3.025386   -2.390268
     41          6           0        4.815281    4.197684   -2.418124
     42          8           0        3.579333    4.025074   -2.416082
     43          8           0        5.505556    5.328223   -2.203776
     44          6           0        4.625105    6.526872   -2.189606
     45          1           0        6.263247    0.773210    4.158817
     46          1           0        4.724437   -4.956077    2.224562
     47          1           0        5.240042   -3.138433   -3.764554
     48          1           0        6.651381    4.020291    0.454410
     49          1           0        6.231620    3.134953    3.097785
     50          1           0        8.455951    2.722782    1.136064
     51          1           0        8.248917    1.410787    2.336927
     52          1           0        8.553416    3.022716    2.919634
     53          1           0        4.127344    3.616092    2.072177
     54          1           0        3.952935    4.115108    0.342137
     55          1           0        5.808057    5.863356    1.602752
     56          1           0        4.679093    5.469963    2.843130
     57          1           0        5.434843   -0.061713    5.907963
     58          1           0        5.602166   -1.677434    6.480207
     59          1           0        3.961265   -0.989108    6.375490
     60          1           0        4.460740   -3.578503    6.796223
     61          1           0        3.132094   -4.854596    6.609767
     62          1           0        2.847016   -3.117961    6.316920
     63          1           0        4.212997   -6.032444   -0.029397
     64          1           0        5.925748   -5.329818   -2.361946
     65          1           0        6.016296   -7.351613    0.307194
     66          1           0        6.956182   -5.863212    0.667764
     67          1           0        6.946756   -6.484015   -0.901149
     68          1           0        3.830496   -6.727581   -2.518444
     69          1           0        3.968137   -5.459737   -3.731487
     70          1           0        2.299620   -5.717677   -1.344815
     71          1           0        1.795738   -5.183955   -2.984307
     72          1           0        2.652451   -4.066772   -1.829901
     73          1           0        5.090543   -0.235718   -5.988068
     74          1           0        5.425021   -1.932238   -5.489057
     75          1           0        6.769213   -0.717054   -5.443875
     76          1           0        6.799280    3.338874   -2.326503
     77          1           0        5.014903    7.220285   -2.934905
     78          1           0        4.582199    6.867626   -1.154981
     79          1           0        3.607909    6.382153   -2.555269
     80         12           0       -5.595574   -0.155135   -0.278569
     81          6           0       -2.925600    2.166246    0.322626
     82          6           0       -7.635206    1.977937    1.431545
     83          6           0       -7.856150   -2.378368   -0.398956
     84          6           0       -3.165771   -2.571680   -0.912657
     85          7           0       -5.213265    1.790111    0.702301
     86          6           0       -4.173752    2.603441    0.812945
     87          6           0       -4.506981    3.994865    1.415011
     88          6           0       -5.834159    3.594512    2.225673
     89          6           0       -6.282514    2.400109    1.385991
     90          6           0       -5.553074    3.107280    3.637391
     91          6           0       -4.810181    5.067088    0.310281
     92          6           0       -4.839536    6.513569    0.808871
     93          1           0       -4.341846    7.564504   -0.074491
     94          7           0       -7.558538   -0.005649   -0.027552
     95          6           0       -8.219248    0.935834    0.678386
     96          6           0       -9.645562    0.591827    0.571349
     97          6           0       -9.760742   -0.722207   -0.117663
     98          6           0       -8.364850   -1.104556   -0.191166
     99          6           0      -10.740929    1.512502    1.025170
    100          6           0      -10.934084   -1.510861   -0.615141
    101          8           0      -10.819543   -2.737250   -0.969647
    102          6           0      -12.238692   -0.833598   -0.586825
    103          7           0       -5.528018   -2.229523   -0.399871
    104          6           0       -6.657148   -2.953797   -0.491615
    105          6           0       -6.356223   -4.390863   -0.844723
    106          6           0       -4.799673   -4.426606   -1.210051
    107          6           0       -4.434440   -2.957191   -0.905434
    108          6           0       -6.645873   -5.419168    0.248482
    109          6           0       -4.415498   -5.011528   -2.596751
    110          6           0       -4.912334   -4.101049   -3.696548
    111          7           0       -3.444688   -0.182444   -0.480980
    112          6           0       -2.624756   -1.306754   -0.721229
    113          6           0       -1.223058   -0.843903   -0.662505
    114          6           0       -1.324999    0.523864   -0.367025
    115          6           0       -2.692955    0.883548   -0.229910
    116          6           0       -0.069386   -1.662367   -0.821461
    117          6           0       -0.586049    1.742963   -0.129437
    118          8           0        0.598502    2.068251   -0.198535
    119          6           0       -1.584744    2.833977    0.452529
    120          6           0       -1.364171    4.115685   -0.303169
    121          8           0       -1.631243    4.188535   -1.515595
    122          8           0       -1.082502    5.099440    0.570478
    123          6           0       -0.866462    6.393163   -0.130534
    124          1           0       -8.306109    2.461885    2.141880
    125          1           0       -8.599660   -3.162918   -0.557553
    126          1           0       -2.353036   -3.243794   -1.196208
    127          1           0       -3.759850    4.386357    2.094946
    128          1           0       -6.575655    4.388216    2.186155
    129          1           0       -4.494821    2.998371    3.822789
    130          1           0       -6.052642    2.151220    3.723556
    131          1           0       -6.034447    3.765615    4.366229
    132          1           0       -5.852546    4.959764   -0.016370
    133          1           0       -4.118814    4.979923   -0.505215
    134          1           0       -4.402010    6.613573    1.809626
    135          1           0       -5.881792    6.814072    0.940774
    136          1           0      -10.348832    2.331375    1.640885
    137          1           0      -11.377493    0.939792    1.708292
    138          1           0      -11.351617    1.880483    0.197928
    139          1           0      -12.466268   -0.530640    0.432433
    140          1           0      -12.936952   -1.524343   -1.063463
    141          1           0      -12.168949    0.085004   -1.180048
    142          1           0       -6.927532   -4.704293   -1.709863
    143          1           0       -4.229084   -5.045500   -0.502067
    144          1           0       -7.346412   -6.212745   -0.073328
    145          1           0       -7.033457   -4.897687    1.113567
    146          1           0       -5.769157   -5.920735    0.654687
    147          1           0       -4.903873   -5.977184   -2.748941
    148          1           0       -3.348861   -5.167212   -2.719397
    149          1           0       -5.956336   -4.405682   -3.816323
    150          1           0       -4.346653   -4.262139   -4.612025
    151          1           0       -4.909634   -3.054011   -3.371944
    152          1           0        0.614868   -1.115942   -1.456839
    153          1           0       -0.324075   -2.629720   -1.249404
    154          1           0        0.254969   -1.746465    0.219213
    155          1           0       -1.367437    2.943027    1.515760
    156          1           0        0.119969    6.758991    0.170801
    157          1           0       -1.738148    7.022844    0.129108
    158          1           0       -0.762181    6.367570   -1.208918
 ---------------------------------------------------------------------

 SCF Done:  E(RCAM-B3LYP) =  -4069.81026982     A.U. after   19 cycles

 Excitation energies and oscillator strengths:

 Excited State   1:      Singlet-A      1.6674 eV  743.58 nm  f=0.3553  <S**2>=0.000
     309 -> 315        0.14018
     311 -> 313        0.56029
     312 -> 314       -0.39647
 This state for optimization and/or second-order correction.
 Total Energy, E(TD-HF/TD-DFT) =  -4069.74899376
 Copying the excited state density for this state as the 1-particle RhoCI density.

 Excited State   2:      Singlet-A      1.6842 eV  736.15 nm  f=0.4402  <S**2>=0.000
     309 -> 315        0.10111
     310 -> 316        0.14244
     311 -> 313        0.39600
     312 -> 314        0.55938

 Excited State   3:      Singlet-A      2.1782 eV  569.21 nm  f=0.0010  <S**2>=0.000
     309 -> 313       -0.44190
     310 -> 314        0.47022
     311 -> 315        0.18379
     312 -> 316       -0.19437

 Excited State   4:      Singlet-A      2.1920 eV  565.62 nm  f=0.1748  <S**2>=0.000
     309 -> 313        0.46642
     310 -> 314        0.43760
     311 -> 315       -0.20200
     312 -> 316       -0.19160

 Excited State   5:      Singlet-A      2.3873 eV  519.36 nm  f=0.0000  <S**2>=0.000
     312 -> 313        0.70532

 The electronic state is 1-A.
 Alpha  occ. eigenvalues --  -46.87521 -46.87262 -19.26096 -19.25639 -19.18822
 Alpha  occ. eigenvalues --  -19.18591 -19.18457 -19.18199 -19.17843 -19.17651
 Alpha  occ. eigenvalues --  -14.42371 -14.41909 -14.41219 -14.40982 -14.39213
 Alpha  occ. eigenvalues --  -14.38904 -14.38450 -14.38047 -10.38789 -10.38294
 Alpha  occ. eigenvalues --  -10.35271 -10.35098 -10.33974 -10.33856 -10.31571
 Alpha  occ. eigenvalues --  -10.31210 -10.31170 -10.30895 -10.30859 -10.30361
 Alpha  occ. eigenvalues --  -10.30250 -10.30208 -10.30050 -10.30031 -10.30017
 Alpha  occ. eigenvalues --  -10.29815 -10.29749 -10.29478 -10.29315 -10.29254
 Alpha  occ. eigenvalues --  -10.29160 -10.28807 -10.28615 -10.28567 -10.28255
 Alpha  occ. eigenvalues --  -10.28156 -10.28045 -10.28041 -10.27861 -10.27834
 Alpha  occ. eigenvalues --  -10.27587 -10.27544 -10.27393 -10.27356 -10.27342
 Alpha  occ. eigenvalues --  -10.27323 -10.27320 -10.27251 -10.27240 -10.27238
 Alpha  occ. eigenvalues --  -10.27165 -10.27123 -10.27108 -10.26871 -10.26855
 Alpha  occ. eigenvalues --  -10.26574 -10.26573 -10.26313 -10.26131 -10.26057
 Alpha  occ. eigenvalues --  -10.26027 -10.25971 -10.25913 -10.25795 -10.25789
 Alpha  occ. eigenvalues --  -10.25781 -10.25586 -10.25442 -10.25281 -10.25177
 Alpha  occ. eigenvalues --  -10.24724 -10.24681 -10.24616 -10.24548 -10.24339
 Alpha  occ. eigenvalues --  -10.24330  -3.16271  -3.15993  -1.91153  -1.90873
 Alpha  occ. eigenvalues --   -1.90742  -1.90578  -1.90462  -1.90306  -1.16369
 Alpha  occ. eigenvalues --   -1.15962  -1.08394  -1.08091  -1.06868  -1.06845
 Alpha  occ. eigenvalues --   -1.06619  -1.05852  -1.04362  -1.04043  -1.03526
 Alpha  occ. eigenvalues --   -1.03283  -1.02897  -1.02744  -1.01968  -1.01918
 Alpha  occ. eigenvalues --   -0.91824  -0.91438  -0.89357  -0.89177  -0.89046
 Alpha  occ. eigenvalues --   -0.88629  -0.88090  -0.87936  -0.87672  -0.87555
 Alpha  occ. eigenvalues --   -0.87405  -0.87170  -0.86993  -0.86858  -0.84882
 Alpha  occ. eigenvalues --   -0.84463  -0.83742  -0.83641  -0.82811  -0.82627
 Alpha  occ. eigenvalues --   -0.82527  -0.82173  -0.81429  -0.81084  -0.80293
 Alpha  occ. eigenvalues --   -0.80111  -0.78508  -0.78357  -0.77033  -0.76825
 Alpha  occ. eigenvalues --   -0.76764  -0.76457  -0.75706  -0.75437  -0.74670
 Alpha  occ. eigenvalues --   -0.74535  -0.72571  -0.72321  -0.71449  -0.71217
 Alpha  occ. eigenvalues --   -0.69664  -0.69635  -0.68705  -0.68389  -0.67454
 Alpha  occ. eigenvalues --   -0.67183  -0.67081  -0.66676  -0.65141  -0.64750
 Alpha  occ. eigenvalues --   -0.64628  -0.64503  -0.64384  -0.64159  -0.64066
 Alpha  occ. eigenvalues --   -0.63875  -0.62088  -0.61776  -0.60207  -0.60036
 Alpha  occ. eigenvalues --   -0.59680  -0.59267  -0.58847  -0.58518  -0.58268
 Alpha  occ. eigenvalues --   -0.58031  -0.57349  -0.57084  -0.57050  -0.56836
 Alpha  occ. eigenvalues --   -0.56069  -0.55858  -0.55705  -0.55433  -0.55312
 Alpha  occ. eigenvalues --   -0.55105  -0.55092  -0.54954  -0.54314  -0.54057
 Alpha  occ. eigenvalues --   -0.53797  -0.53337  -0.53096  -0.53003  -0.52891
 Alpha  occ. eigenvalues --   -0.52749  -0.52728  -0.52554  -0.52449  -0.52353
 Alpha  occ. eigenvalues --   -0.52271  -0.52113  -0.51770  -0.51537  -0.51462
 Alpha  occ. eigenvalues --   -0.51093  -0.51038  -0.50736  -0.50361  -0.50224
 Alpha  occ. eigenvalues --   -0.49865  -0.49749  -0.49739  -0.49493  -0.49362
 Alpha  occ. eigenvalues --   -0.49058  -0.49033  -0.48960  -0.48732  -0.48610
 Alpha  occ. eigenvalues --   -0.48400  -0.48236  -0.48167  -0.48154  -0.48045
 Alpha  occ. eigenvalues --   -0.47998  -0.47452  -0.47268  -0.46982  -0.46870
 Alpha  occ. eigenvalues --   -0.46576  -0.46436  -0.46381  -0.46128  -0.46010
 Alpha  occ. eigenvalues --   -0.45945  -0.45927  -0.45698  -0.45658  -0.45340
 Alpha  occ. eigenvalues --   -0.45076  -0.44852  -0.44383  -0.44346  -0.44147
 Alpha  occ. eigenvalues --   -0.44096  -0.43993  -0.43944  -0.43803  -0.43777
 Alpha  occ. eigenvalues --   -0.43609  -0.43536  -0.43396  -0.43247  -0.43016
 Alpha  occ. eigenvalues --   -0.42923  -0.42768  -0.42695  -0.42582  -0.42427
 Alpha  occ. eigenvalues --   -0.42388  -0.42090  -0.41833  -0.41619  -0.41485
 Alpha  occ. eigenvalues --   -0.41339  -0.41223  -0.41039  -0.40854  -0.40692
 Alpha  occ. eigenvalues --   -0.40608  -0.40587  -0.40464  -0.40437  -0.40364
 Alpha  occ. eigenvalues --   -0.40163  -0.40120  -0.39613  -0.39303  -0.39221
 Alpha  occ. eigenvalues --   -0.38228  -0.38109  -0.37537  -0.37215  -0.37133
 Alpha  occ. eigenvalues --   -0.37070  -0.36919  -0.36712  -0.36527  -0.36157
 Alpha  occ. eigenvalues --   -0.36033  -0.35610  -0.34108  -0.33778  -0.33561
 Alpha  occ. eigenvalues --   -0.33018  -0.33018  -0.32650  -0.31150  -0.30987
 Alpha  occ. eigenvalues --   -0.30832  -0.30529  -0.29700  -0.29498  -0.29186
 Alpha  occ. eigenvalues --   -0.29053  -0.28988  -0.28818  -0.23894  -0.23561
 Alpha  occ. eigenvalues --   -0.20979  -0.20648
 Alpha virt. eigenvalues --   -0.08646  -0.08293  -0.01550  -0.01283   0.00109
 Alpha virt. eigenvalues --    0.00402   0.02388   0.02686   0.03380   0.03713
 Alpha virt. eigenvalues --    0.04844   0.05116   0.05468   0.05827   0.06188

 Mulliken charges:
               1
     1  Mg   0.837113
     2  C    0.007353
     3  C   -0.093742
     4  C   -0.047429
     5  C   -0.065781
     6  N   -0.256141
     7  C   -0.046662
     8  C   -0.017513
     9  C   -0.087745
    10  C    0.048831
    11  C    0.105256
    12  C    0.055500
    13  C   -0.069030
    14  H    0.029577
    15  N   -0.432532
    16  C    0.169367
    17  C   -0.177941
    18  C   -0.005269
    19  C    0.148104
    20  C    0.110706
    21  C    0.011013
    22  O   -0.251562
    23  C    0.062926
    24  N   -0.340727
    25  C    0.040596
    26  C   -0.027750
    27  C   -0.024186
    28  C    0.074831
    29  C    0.076624
    30  C    0.037128
    31  C   -0.009196
    32  N   -0.311477
    33  C    0.080806
    34  C   -0.170375
    35  C    0.007451
    36  C    0.087682
    37  C    0.127173
    38  C    0.049255
    39  O   -0.188884
    40  C   -0.008361
    41  C    0.209481
    42  O   -0.244961
    43  O   -0.306567
    44  C    0.158891
    45  H   -0.019067
    46  H   -0.018962
    47  H   -0.043637
    48  H   -0.000829
    49  H   -0.005127
    50  H    0.024843
    51  H    0.015609
    52  H    0.015056
    53  H    0.013639
    54  H    0.054985
    55  H    0.015711
    56  H    0.016241
    57  H    0.005430
    58  H    0.025434
    59  H    0.038189
    60  H    0.037013
    61  H    0.034063
    62  H    0.030904
    63  H    0.014524
    64  H    0.009043
    65  H    0.021935
    66  H    0.012835
    67  H    0.003996
    68  H    0.005342
    69  H    0.004606
    70  H    0.007533
    71  H    0.015298
    72  H    0.032710
    73  H    0.047984
    74  H    0.007730
    75  H    0.045115
    76  H    0.033304
    77  H    0.040856
    78  H    0.043877
    79  H    0.053234
    80  Mg   0.837908
    81  C   -0.016510
    82  C   -0.087901
    83  C   -0.045660
    84  C   -0.065404
    85  N   -0.254318
    86  C   -0.050174
    87  C   -0.014803
    88  C   -0.090427
    89  C    0.045481
    90  C    0.114628
    91  C    0.062644
    92  C   -0.077484
    93  H    0.034887
    94  N   -0.423376
    95  C    0.162678
    96  C   -0.174943
    97  C   -0.008064
    98  C    0.151992
    99  C    0.099522
   100  C    0.015403
   101  O   -0.253497
   102  C    0.061262
   103  N   -0.350127
   104  C    0.037376
   105  C   -0.019754
   106  C   -0.034849
   107  C    0.088970
   108  C    0.073672
   109  C    0.034741
   110  C   -0.007578
   111  N   -0.324451
   112  C    0.079704
   113  C   -0.161878
   114  C    0.003669
   115  C    0.096990
   116  C    0.116630
   117  C    0.043940
   118  O   -0.178156
   119  C   -0.001222
   120  C    0.216073
   121  O   -0.248106
   122  O   -0.307639
   123  C    0.152967
   124  H   -0.020255
   125  H   -0.015876
   126  H   -0.040350
   127  H   -0.001490
   128  H   -0.004615
   129  H    0.021527
   130  H    0.014350
   131  H    0.015585
   132  H    0.013914
   133  H    0.038741
   134  H    0.019839
   135  H    0.019234
   136  H    0.008379
   137  H    0.025670
   138  H    0.039530
   139  H    0.038001
   140  H    0.036088
   141  H    0.033852
   142  H    0.014188
   143  H    0.012854
   144  H    0.024813
   145  H    0.011447
   146  H    0.005875
   147  H    0.005907
   148  H    0.003402
   149  H    0.010785
   150  H    0.017642
   151  H    0.030624
   152  H    0.055965
   153  H    0.011501
   154  H    0.049576
   155  H    0.032630
   156  H    0.040170
   157  H    0.047731
   158  H    0.056702
 Sum of Mulliken charges =  -0.00000

 Dipole moment (field-independent basis, Debye):
    X=             -1.5056    Y=              2.1332    Z=              6.4503  Tot=              6.9588
 Quadrupole moment (field-independent basis, Debye-Ang):
   XX=           -483.9670   YY=           -481.8134   ZZ=           -508.3199
   XY=            -29.3852   XZ=              5.1590   YZ=             47.0243

 Normal termination of Gaussian 16 at Fri Sep 10 18:55:51 2021.
