 Gaussian 16, Revision A.03,
 Gaussian 16:  ES64L-G16RevA.03 25-Dec-2016

 -----------------------------------
 #p cam-b3lyp/Def2SVP td=(nstates=5)
 -----------------------------------

 --------------------------------
 TDDFT excited states in gaussian
 --------------------------------
 Symbolic Z-matrix:
 Charge =  0 Multiplicity = 1

                         Standard orientation:
 ---------------------------------------------------------------------
 Center     Atomic      Atomic             Coordinates (Angstroms)
 Number     Number       Type             X           Y           Z
 ---------------------------------------------------------------------
      1         12           0        5.425052    0.118649   -0.036124
      2          6           0        5.202437   -3.445628   -0.278167
      3          6           0        6.188473    0.147876   -3.361692
      4          6           0        6.071285    3.210065    0.250500
      5          6           0        5.767096   -0.284303    3.408625
      6          7           0        5.636575   -1.507461   -1.523293
      7          6           0        5.466414   -2.825696   -1.501541
      8          6           0        5.520143   -3.478981   -2.914944
      9          6           0        6.380868   -2.370771   -3.671926
     10          6           0        6.020993   -1.163068   -2.824656
     11          6           0        7.885847   -2.602334   -3.582941
     12          6           0        4.098486   -3.634493   -3.552469
     13          6           0        4.028368   -4.551147   -4.777288
     14          1           0        2.841503   -5.370166   -4.971992
     15          7           0        5.560423    1.531968   -1.409825
     16          6           0        5.864721    1.362369   -2.718994
     17          6           0        5.840119    2.712625   -3.321394
     18          6           0        5.683538    3.700424   -2.217841
     19          6           0        5.793219    2.844297   -1.064414
     20          6           0        5.909823    2.956374   -4.797699
     21          6           0        5.479572    5.182436   -2.204707
     22          8           0        5.600558    5.876233   -1.137664
     23          6           0        5.218012    5.821128   -3.507282
     24          7           0        6.077578    1.290637    1.563341
     25          6           0        6.222570    2.614080    1.435051
     26          6           0        6.420726    3.273379    2.767717
     27          6           0        6.137454    2.147739    3.864278
     28          6           0        5.891733    0.949523    2.914452
     29          6           0        7.806684    3.886236    3.011719
     30          6           0        5.069399    2.467145    4.940223
     31          6           0        3.702532    2.548452    4.298226
     32          7           0        5.302970   -1.532221    1.367717
     33          6           0        5.502027   -1.475971    2.754759
     34          6           0        5.423033   -2.859303    3.258961
     35          6           0        5.198547   -3.630969    2.120548
     36          6           0        5.167121   -2.786222    0.974377
     37          6           0        5.611496   -3.266162    4.609287
     38          6           0        5.002473   -4.975350    1.602812
     39          8           0        4.841231   -6.085584    2.111610
     40          6           0        5.118650   -4.922885    0.015494
     41          6           0        3.953394   -5.687435   -0.551032
     42          8           0        2.785989   -5.267933   -0.414835
     43          8           0        4.408506   -6.655932   -1.360617
     44          6           0        3.301886   -7.433832   -1.979015
     45          1           0        6.664547    0.261641   -4.337577
     46          1           0        6.190788    4.283836    0.409160
     47          1           0        5.779950   -0.478137    4.482737
     48          1           0        6.034316   -4.439525   -2.952421
     49          1           0        6.045836   -2.226584   -4.698905
     50          1           0        8.123510   -3.420925   -2.903717
     51          1           0        8.302918   -1.666105   -3.211428
     52          1           0        8.314551   -2.748673   -4.574694
     53          1           0        3.804713   -2.690052   -4.010497
     54          1           0        3.376578   -3.971822   -2.807900
     55          1           0        4.930185   -5.156300   -4.874374
     56          1           0        4.023344   -3.927151   -5.671045
     57          1           0        6.187958    2.053539   -5.339986
     58          1           0        6.739435    3.642180   -4.968357
     59          1           0        4.988274    3.390364   -5.185941
     60          1           0        6.053167    5.622943   -4.179433
     61          1           0        5.009260    6.868493   -3.292112
     62          1           0        4.342718    5.354359   -3.959980
     63          1           0        5.716935    4.092945    2.907058
     64          1           0        7.030464    1.903895    4.440253
     65          1           0        7.778698    4.947733    3.258998
     66          1           0        8.415147    3.706999    2.125752
     67          1           0        8.395996    3.391194    3.783121
     68          1           0        5.268071    3.436741    5.395591
     69          1           0        5.029224    1.727245    5.739713
     70          1           0        3.670682    3.570358    3.922028
     71          1           0        2.922493    2.381677    5.041823
     72          1           0        3.626177    1.882264    3.438662
     73          1           0        4.829926   -3.996081    4.819847
     74          1           0        5.554550   -2.417249    5.290247
     75          1           0        6.613746   -3.690804    4.554227
     76          1           0        6.073140   -5.379634   -0.244217
     77          1           0        3.470268   -8.482405   -1.733300
     78          1           0        3.281017   -7.158300   -3.033553
     79          1           0        2.308953   -7.279995   -1.555036
     80         12           0       -5.089188    1.352071    0.344662
     81          6           0       -6.553581   -1.924147    0.313106
     82          6           0       -5.587195    1.444160   -3.028481
     83          6           0       -3.402795    4.038672    0.269073
     84          6           0       -3.694943    0.547539    3.435698
     85          7           0       -5.966925   -0.111926   -1.061936
     86          6           0       -6.546395   -1.297748   -0.950619
     87          6           0       -7.223301   -1.807467   -2.251213
     88          6           0       -6.365614   -0.964081   -3.315135
     89          6           0       -5.973295    0.217816   -2.430903
     90          6           0       -5.095587   -1.670378   -3.759569
     91          6           0       -8.746324   -1.435994   -2.317522
     92          6           0       -9.538986   -2.163698   -3.405595
     93          1           0      -10.923372   -2.535721   -3.127153
     94          7           0       -4.996610    2.771774   -1.038979
     95          6           0       -5.253394    2.641061   -2.357413
     96          6           0       -5.023143    3.969584   -2.945778
     97          6           0       -4.450537    4.854897   -1.895514
     98          6           0       -4.237058    3.896029   -0.830112
     99          6           0       -5.414622    4.315175   -4.353160
    100          6           0       -4.134052    6.319427   -1.860816
    101          8           0       -3.420560    6.832197   -0.927636
    102          6           0       -4.605326    7.119174   -3.000899
    103          7           0       -3.573619    2.100011    1.555448
    104          6           0       -3.048389    3.317607    1.332923
    105          6           0       -2.176510    3.754584    2.485862
    106          6           0       -2.419826    2.676063    3.641348
    107          6           0       -3.363547    1.710383    2.891522
    108          6           0       -0.680395    3.852783    2.188553
    109          6           0       -2.865599    3.217793    5.027177
    110          6           0       -4.256501    3.802015    4.929863
    111          7           0       -5.249117   -0.286305    1.744008
    112          6           0       -4.557996   -0.434485    2.966496
    113          6           0       -4.909902   -1.763457    3.507266
    114          6           0       -5.770103   -2.309969    2.542972
    115          6           0       -5.926190   -1.395015    1.466867
    116          6           0       -4.409946   -2.329646    4.713738
    117          6           0       -6.573176   -3.457176    2.185655
    118          8           0       -6.895808   -4.501570    2.750366
    119          6           0       -7.016037   -3.310536    0.666194
    120          6           0       -8.489607   -3.600320    0.581832
    121          8           0       -9.314054   -2.848592    1.131186
    122          8           0       -8.694296   -4.587155   -0.309599
    123          6           0      -10.142049   -4.902924   -0.436552
    124          1           0       -5.489184    1.484304   -4.113688
    125          1           0       -2.883191    4.996612    0.345463
    126          1           0       -3.378947    0.262523    4.441478
    127          1           0       -7.107637   -2.868412   -2.437766
    128          1           0       -6.983260   -0.630856   -4.145095
    129          1           0       -4.918743   -2.574136   -3.195570
    130          1           0       -4.293560   -0.961663   -3.599791
    131          1           0       -5.124349   -1.855040   -4.837252
    132          1           0       -8.847580   -0.401855   -2.671145
    133          1           0       -9.217075   -1.586767   -1.365531
    134          1           0       -8.986776   -3.017619   -3.816474
    135          1           0       -9.660712   -1.488825   -4.256320
    136          1           0       -5.660046    3.417718   -4.934319
    137          1           0       -4.522513    4.720346   -4.842882
    138          1           0       -6.211556    5.060553   -4.397726
    139          1           0       -4.181380    6.722294   -3.920251
    140          1           0       -4.362187    8.154049   -2.752308
    141          1           0       -5.692318    7.006939   -3.081451
    142          1           0       -2.474759    4.730842    2.847908
    143          1           0       -1.505270    2.108689    3.868296
    144          1           0       -0.259185    4.854776    2.395115
    145          1           0       -0.519129    3.578280    1.154547
    146          1           0       -0.056224    3.135062    2.718172
    147          1           0       -2.208794    4.031299    5.344913
    148          1           0       -2.849874    2.466774    5.809932
    149          1           0       -4.073824    4.812642    4.552567
    150          1           0       -4.731290    3.825937    5.908666
    151          1           0       -4.854030    3.272684    4.178585
    152          1           0       -5.252484   -2.786103    5.216000
    153          1           0       -3.933665   -1.577028    5.338644
    154          1           0       -3.687990   -3.044163    4.309357
    155          1           0       -6.425575   -4.018316    0.083101
    156          1           0      -10.254348   -5.973058   -0.236835
    157          1           0      -10.439282   -4.543833   -1.439773
    158          1           0      -10.814052   -4.478617    0.300203
 ---------------------------------------------------------------------

 SCF Done:  E(RCAM-B3LYP) =  -4069.81154856     A.U. after   19 cycles

 Excitation energies and oscillator strengths:

 Excited State   1:      Singlet-A      1.6568 eV  748.32 nm  f=0.0033  <S**2>=0.000
     309 -> 315       -0.11220
     310 -> 316        0.12655
     311 -> 313       -0.45433
     312 -> 314        0.51552
 This state for optimization and/or second-order correction.
 Total Energy, E(TD-HF/TD-DFT) =  -4069.75066142
 Copying the excited state density for this state as the 1-particle RhoCI density.

 Excited State   2:      Singlet-A      1.6972 eV  730.54 nm  f=0.7162  <S**2>=0.000
     309 -> 315        0.13512
     310 -> 316        0.11834
     311 -> 313        0.51362
     312 -> 314        0.45268

 Excited State   3:      Singlet-A      2.1831 eV  567.93 nm  f=0.0391  <S**2>=0.000
     309 -> 313       -0.25038
     310 -> 314        0.59331
     311 -> 315        0.10424
     312 -> 316       -0.24930

 Excited State   4:      Singlet-A      2.1950 eV  564.86 nm  f=0.1460  <S**2>=0.000
     309 -> 313        0.58978
     310 -> 314        0.24720
     311 -> 315       -0.25835
     312 -> 316       -0.11000

 Excited State   5:      Singlet-A      2.4922 eV  497.48 nm  f=0.0000  <S**2>=0.000
     312 -> 313        0.70698

 The electronic state is 1-A.
 Alpha  occ. eigenvalues --  -46.87848 -46.87490 -19.26306 -19.26206 -19.19043
 Alpha  occ. eigenvalues --  -19.19013 -19.18820 -19.18577 -19.18196 -19.17864
 Alpha  occ. eigenvalues --  -14.42501 -14.42331 -14.41507 -14.41188 -14.39448
 Alpha  occ. eigenvalues --  -14.39187 -14.38637 -14.38421 -10.39104 -10.38938
 Alpha  occ. eigenvalues --  -10.35452 -10.35259 -10.34418 -10.34041 -10.31695
 Alpha  occ. eigenvalues --  -10.31631 -10.31459 -10.31137 -10.30954 -10.30872
 Alpha  occ. eigenvalues --  -10.30621 -10.30554 -10.30265 -10.30220 -10.30184
 Alpha  occ. eigenvalues --  -10.29981 -10.29978 -10.29710 -10.29674 -10.29299
 Alpha  occ. eigenvalues --  -10.29274 -10.29231 -10.28803 -10.28614 -10.28579
 Alpha  occ. eigenvalues --  -10.28556 -10.28407 -10.28238 -10.28171 -10.27997
 Alpha  occ. eigenvalues --  -10.27833 -10.27827 -10.27779 -10.27624 -10.27590
 Alpha  occ. eigenvalues --  -10.27525 -10.27521 -10.27510 -10.27449 -10.27368
 Alpha  occ. eigenvalues --  -10.27355 -10.27315 -10.27306 -10.27198 -10.27190
 Alpha  occ. eigenvalues --  -10.26870 -10.26771 -10.26573 -10.26394 -10.26330
 Alpha  occ. eigenvalues --  -10.26323 -10.26283 -10.26081 -10.26012 -10.25886
 Alpha  occ. eigenvalues --  -10.25877 -10.25762 -10.25606 -10.25489 -10.25186
 Alpha  occ. eigenvalues --  -10.24902 -10.24872 -10.24836 -10.24690 -10.24610
 Alpha  occ. eigenvalues --  -10.24517  -3.16591  -3.16239  -1.91473  -1.91121
 Alpha  occ. eigenvalues --   -1.91060  -1.90901  -1.90710  -1.90547  -1.16655
 Alpha  occ. eigenvalues --   -1.16498  -1.08653  -1.08470  -1.07218  -1.06832
 Alpha  occ. eigenvalues --   -1.06796  -1.06665  -1.04630  -1.04330  -1.03814
 Alpha  occ. eigenvalues --   -1.03495  -1.03283  -1.02866  -1.02462  -1.01938
 Alpha  occ. eigenvalues --   -0.92016  -0.91814  -0.89601  -0.89333  -0.89244
 Alpha  occ. eigenvalues --   -0.89007  -0.88363  -0.88055  -0.87914  -0.87727
 Alpha  occ. eigenvalues --   -0.87598  -0.87521  -0.87306  -0.86983  -0.85035
 Alpha  occ. eigenvalues --   -0.84853  -0.84026  -0.83713  -0.83001  -0.82803
 Alpha  occ. eigenvalues --   -0.82693  -0.82510  -0.81625  -0.81438  -0.80638
 Alpha  occ. eigenvalues --   -0.80287  -0.78837  -0.78479  -0.77284  -0.76993
 Alpha  occ. eigenvalues --   -0.76992  -0.76747  -0.75970  -0.75686  -0.74963
 Alpha  occ. eigenvalues --   -0.74630  -0.72827  -0.72525  -0.71722  -0.71412
 Alpha  occ. eigenvalues --   -0.70019  -0.69607  -0.68923  -0.68681  -0.67683
 Alpha  occ. eigenvalues --   -0.67439  -0.67267  -0.67068  -0.65341  -0.65122
 Alpha  occ. eigenvalues --   -0.64905  -0.64677  -0.64608  -0.64500  -0.64343
 Alpha  occ. eigenvalues --   -0.64043  -0.62337  -0.62124  -0.60484  -0.60189
 Alpha  occ. eigenvalues --   -0.59855  -0.59642  -0.59039  -0.58825  -0.58553
 Alpha  occ. eigenvalues --   -0.58261  -0.57620  -0.57381  -0.57360  -0.57075
 Alpha  occ. eigenvalues --   -0.56352  -0.56041  -0.56014  -0.55741  -0.55555
 Alpha  occ. eigenvalues --   -0.55406  -0.55305  -0.55082  -0.54584  -0.54331
 Alpha  occ. eigenvalues --   -0.53948  -0.53770  -0.53346  -0.53259  -0.53072
 Alpha  occ. eigenvalues --   -0.52993  -0.52965  -0.52791  -0.52753  -0.52553
 Alpha  occ. eigenvalues --   -0.52546  -0.52261  -0.51958  -0.51665  -0.51659
 Alpha  occ. eigenvalues --   -0.51521  -0.51251  -0.51036  -0.50602  -0.50357
 Alpha  occ. eigenvalues --   -0.50116  -0.49953  -0.49837  -0.49707  -0.49552
 Alpha  occ. eigenvalues --   -0.49346  -0.49253  -0.49144  -0.49048  -0.48942
 Alpha  occ. eigenvalues --   -0.48636  -0.48515  -0.48467  -0.48397  -0.48201
 Alpha  occ. eigenvalues --   -0.48195  -0.47746  -0.47451  -0.47340  -0.46967
 Alpha  occ. eigenvalues --   -0.46863  -0.46606  -0.46550  -0.46414  -0.46412
 Alpha  occ. eigenvalues --   -0.46214  -0.46109  -0.45905  -0.45864  -0.45645
 Alpha  occ. eigenvalues --   -0.45270  -0.45035  -0.44621  -0.44560  -0.44361
 Alpha  occ. eigenvalues --   -0.44318  -0.44216  -0.44136  -0.44052  -0.43975
 Alpha  occ. eigenvalues --   -0.43928  -0.43790  -0.43538  -0.43443  -0.43399
 Alpha  occ. eigenvalues --   -0.43226  -0.43079  -0.42782  -0.42772  -0.42730
 Alpha  occ. eigenvalues --   -0.42708  -0.42400  -0.42092  -0.41816  -0.41752
 Alpha  occ. eigenvalues --   -0.41592  -0.41500  -0.41315  -0.41191  -0.40941
 Alpha  occ. eigenvalues --   -0.40844  -0.40826  -0.40646  -0.40591  -0.40560
 Alpha  occ. eigenvalues --   -0.40334  -0.40290  -0.40102  -0.39567  -0.39278
 Alpha  occ. eigenvalues --   -0.38545  -0.38186  -0.37808  -0.37519  -0.37390
 Alpha  occ. eigenvalues --   -0.37315  -0.37105  -0.37046  -0.36754  -0.36620
 Alpha  occ. eigenvalues --   -0.36245  -0.36057  -0.34337  -0.34083  -0.33798
 Alpha  occ. eigenvalues --   -0.33709  -0.33235  -0.33006  -0.31352  -0.31135
 Alpha  occ. eigenvalues --   -0.31082  -0.30806  -0.30056  -0.29768  -0.29486
 Alpha  occ. eigenvalues --   -0.29363  -0.29168  -0.29025  -0.24131  -0.23863
 Alpha  occ. eigenvalues --   -0.21179  -0.20948
 Alpha virt. eigenvalues --   -0.08818  -0.08623  -0.01799  -0.01519  -0.00086
 Alpha virt. eigenvalues --    0.00122   0.02161   0.02390   0.02999   0.03384
 Alpha virt. eigenvalues --    0.04660   0.04888   0.05072   0.05319   0.06113

 Mulliken charges:
               1
     1  Mg   0.838458
     2  C   -0.002831
     3  C   -0.094267
     4  C   -0.045738
     5  C   -0.064326
     6  N   -0.256726
     7  C   -0.052571
     8  C   -0.013977
     9  C   -0.086990
    10  C    0.046330
    11  C    0.104793
    12  C    0.053562
    13  C   -0.071598
    14  H    0.035703
    15  N   -0.433242
    16  C    0.168538
    17  C   -0.177126
    18  C   -0.003657
    19  C    0.148825
    20  C    0.110248
    21  C    0.013061
    22  O   -0.249047
    23  C    0.062286
    24  N   -0.340995
    25  C    0.041015
    26  C   -0.028356
    27  C   -0.024053
    28  C    0.074417
    29  C    0.076069
    30  C    0.035919
    31  C   -0.006800
    32  N   -0.310440
    33  C    0.080070
    34  C   -0.169970
    35  C    0.008512
    36  C    0.082843
    37  C    0.127326
    38  C    0.046228
    39  O   -0.187973
    40  C   -0.005410
    41  C    0.212998
    42  O   -0.257013
    43  O   -0.304839
    44  C    0.157526
    45  H   -0.017597
    46  H   -0.016537
    47  H   -0.041749
    48  H    0.001091
    49  H   -0.004253
    50  H    0.025620
    51  H    0.016528
    52  H    0.016661
    53  H    0.010837
    54  H    0.044209
    55  H    0.018124
    56  H    0.017589
    57  H    0.005620
    58  H    0.026996
    59  H    0.039451
    60  H    0.036925
    61  H    0.036568
    62  H    0.031718
    63  H    0.016571
    64  H    0.009787
    65  H    0.023501
    66  H    0.012792
    67  H    0.004832
    68  H    0.006665
    69  H    0.004669
    70  H    0.009806
    71  H    0.016356
    72  H    0.029409
    73  H    0.047719
    74  H    0.008720
    75  H    0.046225
    76  H    0.035250
    77  H    0.043306
    78  H    0.046042
    79  H    0.054048
    80  Mg   0.838242
    81  C   -0.016665
    82  C   -0.088139
    83  C   -0.045772
    84  C   -0.063614
    85  N   -0.254513
    86  C   -0.049325
    87  C   -0.015134
    88  C   -0.090633
    89  C    0.045913
    90  C    0.114490
    91  C    0.062636
    92  C   -0.077607
    93  H    0.034505
    94  N   -0.423334
    95  C    0.162782
    96  C   -0.175461
    97  C   -0.008142
    98  C    0.151854
    99  C    0.099777
   100  C    0.015079
   101  O   -0.253059
   102  C    0.061380
   103  N   -0.349855
   104  C    0.037465
   105  C   -0.020099
   106  C   -0.034796
   107  C    0.089070
   108  C    0.072880
   109  C    0.034650
   110  C   -0.007523
   111  N   -0.324410
   112  C    0.078856
   113  C   -0.161907
   114  C    0.002872
   115  C    0.096446
   116  C    0.131148
   117  C    0.043158
   118  O   -0.187433
   119  C    0.000637
   120  C    0.211111
   121  O   -0.251323
   122  O   -0.305487
   123  C    0.152154
   124  H   -0.020658
   125  H   -0.015442
   126  H   -0.040231
   127  H   -0.000572
   128  H   -0.005006
   129  H    0.023536
   130  H    0.014554
   131  H    0.015068
   132  H    0.013729
   133  H    0.037660
   134  H    0.020658
   135  H    0.019205
   136  H    0.008216
   137  H    0.024867
   138  H    0.039317
   139  H    0.037419
   140  H    0.036111
   141  H    0.033728
   142  H    0.014038
   143  H    0.012822
   144  H    0.025831
   145  H    0.011642
   146  H    0.006730
   147  H    0.005606
   148  H    0.003358
   149  H    0.010845
   150  H    0.017515
   151  H    0.030262
   152  H    0.045535
   153  H    0.007972
   154  H    0.050154
   155  H    0.036014
   156  H    0.043831
   157  H    0.049157
   158  H    0.053378
 Sum of Mulliken charges =  -0.00000

 Dipole moment (field-independent basis, Debye):
    X=              3.1143    Y=              2.3993    Z=             -7.9142  Tot=              8.8369
 Quadrupole moment (field-independent basis, Debye-Ang):
   XX=           -501.1830   YY=           -558.3416   ZZ=           -446.5073
   XY=             -8.4638   XZ=             26.0965   YZ=             28.9515

 Normal termination of Gaussian 16 at Fri Sep 10 19:59:26 2021.
