 Gaussian 16, Revision A.03,
 Gaussian 16:  ES64L-G16RevA.03 25-Dec-2016

 -----------------------------------
 #p cam-b3lyp/Def2SVP td=(nstates=5)
 -----------------------------------

 --------------------------------
 TDDFT excited states in gaussian
 --------------------------------
 Symbolic Z-matrix:
 Charge =  0 Multiplicity = 1

                         Standard orientation:
 ---------------------------------------------------------------------
 Center     Atomic      Atomic             Coordinates (Angstroms)
 Number     Number       Type             X           Y           Z
 ---------------------------------------------------------------------
      1         12           0        7.810427   -0.883521    0.267424
      2          6           0        8.315630    2.135447   -1.588058
      3          6           0        8.910217    0.801845    3.022977
      4          6           0        7.805608   -3.645959    1.824836
      5          6           0        7.848168   -2.584761   -2.773960
      6          7           0        8.495688    1.201801    0.554648
      7          6           0        8.584837    2.275024   -0.224720
      8          6           0        8.918344    3.580559    0.557410
      9          6           0        9.623199    2.936082    1.834057
     10          6           0        8.944562    1.577658    1.826329
     11          6           0       11.125668    2.735519    1.664167
     12          6           0        7.632270    4.380052    0.955601
     13          6           0        7.875988    5.815914    1.429156
     14          1           0        6.900194    6.840492    1.089430
     15          7           0        7.815714   -1.261040    2.206574
     16          6           0        8.287693   -0.454463    3.187367
     17          6           0        8.065551   -1.181932    4.455484
     18          6           0        7.600152   -2.555487    4.116597
     19          6           0        7.748871   -2.550849    2.683684
     20          6           0        8.246327   -0.557364    5.804923
     21          6           0        7.110568   -3.695463    4.952596
     22          8           0        6.977088   -4.876397    4.481266
     23          6           0        6.872469   -3.409312    6.378944
     24          7           0        8.043829   -2.863296   -0.351969
     25          6           0        7.940707   -3.874898    0.516944
     26          6           0        7.860317   -5.195574   -0.189662
     27          6           0        7.684817   -4.857317   -1.740318
     28          6           0        7.782461   -3.313973   -1.657717
     29          6           0        9.065065   -6.128372   -0.003973
     30          6           0        6.464486   -5.481561   -2.462490
     31          6           0        5.186066   -4.879933   -1.923245
     32          7           0        7.861197   -0.337177   -1.832570
     33          6           0        7.893514   -1.209473   -2.930172
     34          6           0        8.031809   -0.377240   -4.139441
     35          6           0        8.087366    0.928882   -3.656945
     36          6           0        8.016356    0.911806   -2.234638
     37          6           0        8.148207   -0.858377   -5.473380
     38          6           0        8.214986    2.333333   -4.010624
     39          8           0        8.219292    2.964189   -5.068686
     40          6           0        8.490469    3.162302   -2.679179
     41          6           0        7.565507    4.348784   -2.682917
     42          8           0        6.330914    4.197805   -2.581174
     43          8           0        8.286176    5.474651   -2.566285
     44          6           0        7.426610    6.688013   -2.533858
     45          1           0        9.458089    1.156818    3.898061
     46          1           0        7.695206   -4.615526    2.314928
     47          1           0        7.781821   -3.040193   -3.763724
     48          1           0        9.611125    4.250917    0.048393
     49          1           0        9.380085    3.475928    2.749034
     50          1           0       11.443335    2.949710    0.643809
     51          1           0       11.309035    1.688946    1.908208
     52          1           0       11.679874    3.316703    2.401635
     53          1           0        7.211304    3.953378    1.865985
     54          1           0        6.913564    4.388020    0.135403
     55          1           0        8.883704    6.151360    1.182389
     56          1           0        7.846383    5.825863    2.518754
     57          1           0        8.752627    0.404669    5.736391
     58          1           0        8.939612   -1.190352    6.358450
     59          1           0        7.305534   -0.478289    6.349889
     60          1           0        7.798243   -3.057724    6.834880
     61          1           0        6.441126   -4.316882    6.799789
     62          1           0        6.159630   -2.588205    6.460136
     63          1           0        6.999166   -5.769289    0.150482
     64          1           0        8.540268   -5.187204   -2.330278
     65          1           0        8.803669   -7.105467    0.403045
     66          1           0        9.789412   -5.620722    0.632347
     67          1           0        9.652304   -6.301514   -0.905411
     68          1           0        6.419349   -6.553493   -2.273093
     69          1           0        6.482908   -5.336110   -3.542654
     70          1           0        4.996385   -5.472580   -1.029029
     71          1           0        4.377506   -4.994055   -2.646030
     72          1           0        5.335113   -3.848038   -1.604713
     73          1           0        7.506026   -0.223538   -6.083749
     74          1           0        7.852962   -1.905014   -5.543989
     75          1           0        9.214007   -0.712445   -5.648398
     76          1           0        9.538225    3.459944   -2.706372
     77          1           0        7.768757    7.345215   -3.333393
     78          1           0        7.467066    7.069239   -1.513351
     79          1           0        6.382675    6.546885   -2.816029
     80         12           0       -7.978616    0.825004    0.472531
     81          6           0       -8.142659   -2.419131   -1.053176
     82          6           0       -7.005937    2.038848   -2.563106
     83          6           0       -7.390211    3.605143    1.883915
     84          6           0       -7.842471   -0.786745    3.559509
     85          7           0       -7.653096   -0.161475   -1.480200
     86          6           0       -7.806152   -1.388366   -1.955239
     87          6           0       -7.664800   -1.503501   -3.496769
     88          6           0       -6.763023   -0.199775   -3.753606
     89          6           0       -7.187443    0.632843   -2.545596
     90          6           0       -5.271252   -0.469427   -3.647503
     91          6           0       -9.046556   -1.400341   -4.233062
     92          6           0       -9.022240   -1.811766   -5.706797
     93          1           0      -10.191101   -2.490747   -6.259258
     94          7           0       -7.776409    2.641043   -0.301869
     95          6           0       -7.394775    2.951964   -1.558439
     96          6           0       -7.382215    4.421596   -1.623072
     97          6           0       -7.627957    4.953404   -0.255043
     98          6           0       -7.586127    3.727068    0.515958
     99          6           0       -7.231490    5.178194   -2.910804
    100          6           0       -7.849544    6.338153    0.273721
    101          8           0       -7.805800    6.594690    1.528757
    102          6           0       -8.026484    7.401237   -0.726290
    103          7           0       -7.449329    1.334841    2.417337
    104          6           0       -7.305541    2.621609    2.779904
    105          6           0       -7.195913    2.756690    4.279947
    106          6           0       -7.540032    1.309801    4.867889
    107          6           0       -7.709222    0.532411    3.544097
    108          6           0       -5.835723    3.210544    4.809362
    109          6           0       -8.678116    1.230933    5.922023
    110          6           0      -10.003916    1.563024    5.275971
    111          7           0       -8.173557   -1.208781    1.175213
    112          6           0       -8.056572   -1.666347    2.506014
    113          6           0       -8.151872   -3.140128    2.469639
    114          6           0       -8.295742   -3.441579    1.106949
    115          6           0       -8.270216   -2.241805    0.345768
    116          6           0       -8.054417   -4.008043    3.593631
    117          6           0       -8.452740   -4.502656    0.138367
    118          8           0       -8.625637   -5.719086    0.202808
    119          6           0       -8.233680   -3.896938   -1.314737
    120          6           0       -9.351538   -4.385141   -2.194834
    121          8           0      -10.525139   -4.035158   -1.978542
    122          8           0       -8.828482   -5.004113   -3.268918
    123          6           0       -9.898078   -5.496372   -4.177469
    124          1           0       -6.477822    2.483324   -3.407157
    125          1           0       -7.293203    4.545208    2.431964
    126          1           0       -7.907184   -1.356115    4.489192
    127          1           0       -7.144122   -2.389315   -3.840289
    128          1           0       -7.043529    0.298705   -4.677826
    129          1           0       -5.066626   -1.470932   -3.299269
    130          1           0       -4.889553    0.260526   -2.945704
    131          1           0       -4.780736   -0.255565   -4.601435
    132          1           0       -9.318278   -0.342079   -4.337893
    133          1           0       -9.798091   -1.962247   -3.713372
    134          1           0       -8.104419   -2.352051   -5.968824
    135          1           0       -8.984935   -0.907415   -6.318977
    136          1           0       -6.902892    4.522450   -3.726534
    137          1           0       -6.400906    5.879194   -2.774463
    138          1           0       -8.128991    5.740995   -3.176204
    139          1           0       -7.150767    7.441168   -1.369709
    140          1           0       -8.261153    8.302374   -0.156415
    141          1           0       -8.876253    7.140811   -1.367137
    142          1           0       -7.917788    3.470310    4.657757
    143          1           0       -6.677665    0.864739    5.385657
    144          1           0       -5.891256    4.127225    5.426353
    145          1           0       -5.173645    3.358912    3.966641
    146          1           0       -5.298223    2.468772    5.397650
    147          1           0       -8.520033    1.975173    6.706412
    148          1           0       -8.751762    0.263053    6.406555
    149          1           0      -10.017668    2.656969    5.289073
    150          1           0      -10.826830    1.150960    5.856532
    151          1           0      -10.020935    1.245676    4.226853
    152          1           0       -8.831708   -4.752079    3.480786
    153          1           0       -8.159093   -3.461245    4.528420
    154          1           0       -7.040860   -4.393695    3.454954
    155          1           0       -7.258181   -4.234623   -1.666776
    156          1           0       -9.730480   -6.568858   -4.316665
    157          1           0       -9.842583   -4.856780   -5.078355
    158          1           0      -10.915582   -5.487962   -3.804579
 ---------------------------------------------------------------------

 SCF Done:  E(RCAM-B3LYP) =  -4069.81189323     A.U. after   19 cycles

 Excitation energies and oscillator strengths:

 Excited State   1:      Singlet-A      1.6729 eV  741.15 nm  f=0.1991  <S**2>=0.000
     310 -> 316        0.14726
     311 -> 313        0.35846
     312 -> 314        0.58507
 This state for optimization and/or second-order correction.
 Total Energy, E(TD-HF/TD-DFT) =  -4069.75041655
 Copying the excited state density for this state as the 1-particle RhoCI density.

 Excited State   2:      Singlet-A      1.6823 eV  737.01 nm  f=0.5515  <S**2>=0.000
     309 -> 315        0.15021
     311 -> 313        0.58454
     312 -> 314       -0.35824

 Excited State   3:      Singlet-A      2.1860 eV  567.17 nm  f=0.0899  <S**2>=0.000
     310 -> 314        0.63883
     312 -> 316       -0.27126

 Excited State   4:      Singlet-A      2.1928 eV  565.42 nm  f=0.1081  <S**2>=0.000
     309 -> 313        0.63700
     311 -> 315       -0.27677

 Excited State   5:      Singlet-A      2.7637 eV  448.61 nm  f=0.0000  <S**2>=0.000
     312 -> 313        0.70710

 The electronic state is 1-A.
 Alpha  occ. eigenvalues --  -46.87838 -46.87588 -19.26349 -19.26287 -19.19098
 Alpha  occ. eigenvalues --  -19.19087 -19.18844 -19.18649 -19.18224 -19.17983
 Alpha  occ. eigenvalues --  -14.42491 -14.42420 -14.41489 -14.41290 -14.39443
 Alpha  occ. eigenvalues --  -14.39279 -14.38631 -14.38529 -10.39144 -10.39027
 Alpha  occ. eigenvalues --  -10.35477 -10.35326 -10.34444 -10.34161 -10.31747
 Alpha  occ. eigenvalues --  -10.31698 -10.31449 -10.31228 -10.30948 -10.30943
 Alpha  occ. eigenvalues --  -10.30615 -10.30550 -10.30330 -10.30287 -10.30243
 Alpha  occ. eigenvalues --  -10.30074 -10.29962 -10.29832 -10.29673 -10.29363
 Alpha  occ. eigenvalues --  -10.29330 -10.29293 -10.28790 -10.28630 -10.28578
 Alpha  occ. eigenvalues --  -10.28574 -10.28407 -10.28330 -10.28156 -10.28040
 Alpha  occ. eigenvalues --  -10.27928 -10.27837 -10.27768 -10.27625 -10.27586
 Alpha  occ. eigenvalues --  -10.27533 -10.27513 -10.27479 -10.27472 -10.27447
 Alpha  occ. eigenvalues --  -10.27410 -10.27394 -10.27372 -10.27331 -10.27211
 Alpha  occ. eigenvalues --  -10.26980 -10.26748 -10.26612 -10.26432 -10.26347
 Alpha  occ. eigenvalues --  -10.26270 -10.26216 -10.26104 -10.26060 -10.25901
 Alpha  occ. eigenvalues --  -10.25896 -10.25868 -10.25793 -10.25459 -10.25362
 Alpha  occ. eigenvalues --  -10.24879 -10.24826 -10.24801 -10.24722 -10.24697
 Alpha  occ. eigenvalues --  -10.24622  -3.16581  -3.16338  -1.91463  -1.91220
 Alpha  occ. eigenvalues --   -1.91049  -1.90891  -1.90809  -1.90645  -1.16698
 Alpha  occ. eigenvalues --   -1.16581  -1.08684  -1.08591  -1.07244  -1.06901
 Alpha  occ. eigenvalues --   -1.06882  -1.06708  -1.04622  -1.04418  -1.03800
 Alpha  occ. eigenvalues --   -1.03591  -1.03276  -1.02970  -1.02453  -1.02041
 Alpha  occ. eigenvalues --   -0.92018  -0.91915  -0.89558  -0.89435  -0.89228
 Alpha  occ. eigenvalues --   -0.89060  -0.88322  -0.88166  -0.87919  -0.87726
 Alpha  occ. eigenvalues --   -0.87713  -0.87608  -0.87310  -0.87044  -0.85022
 Alpha  occ. eigenvalues --   -0.84918  -0.83973  -0.83826  -0.82998  -0.82865
 Alpha  occ. eigenvalues --   -0.82689  -0.82575  -0.81637  -0.81530  -0.80641
 Alpha  occ. eigenvalues --   -0.80373  -0.78837  -0.78561  -0.77259  -0.77070
 Alpha  occ. eigenvalues --   -0.76978  -0.76828  -0.75968  -0.75757  -0.74935
 Alpha  occ. eigenvalues --   -0.74746  -0.72817  -0.72628  -0.71712  -0.71508
 Alpha  occ. eigenvalues --   -0.69942  -0.69710  -0.68913  -0.68748  -0.67683
 Alpha  occ. eigenvalues --   -0.67532  -0.67258  -0.67123  -0.65329  -0.65192
 Alpha  occ. eigenvalues --   -0.64899  -0.64701  -0.64663  -0.64583  -0.64307
 Alpha  occ. eigenvalues --   -0.64146  -0.62351  -0.62214  -0.60478  -0.60270
 Alpha  occ. eigenvalues --   -0.59846  -0.59712  -0.59029  -0.58924  -0.58547
 Alpha  occ. eigenvalues --   -0.58357  -0.57638  -0.57487  -0.57350  -0.57174
 Alpha  occ. eigenvalues --   -0.56354  -0.56132  -0.56032  -0.55818  -0.55559
 Alpha  occ. eigenvalues --   -0.55382  -0.55381  -0.55192  -0.54571  -0.54432
 Alpha  occ. eigenvalues --   -0.53936  -0.53825  -0.53339  -0.53262  -0.53160
 Alpha  occ. eigenvalues --   -0.53068  -0.52962  -0.52831  -0.52791  -0.52588
 Alpha  occ. eigenvalues --   -0.52475  -0.52356  -0.51967  -0.51822  -0.51658
 Alpha  occ. eigenvalues --   -0.51578  -0.51241  -0.51134  -0.50603  -0.50400
 Alpha  occ. eigenvalues --   -0.50066  -0.49954  -0.49902  -0.49807  -0.49554
 Alpha  occ. eigenvalues --   -0.49411  -0.49259  -0.49139  -0.49125  -0.49023
 Alpha  occ. eigenvalues --   -0.48640  -0.48498  -0.48484  -0.48483  -0.48321
 Alpha  occ. eigenvalues --   -0.48268  -0.47734  -0.47521  -0.47335  -0.47047
 Alpha  occ. eigenvalues --   -0.46838  -0.46640  -0.46596  -0.46471  -0.46401
 Alpha  occ. eigenvalues --   -0.46207  -0.46203  -0.46024  -0.45874  -0.45756
 Alpha  occ. eigenvalues --   -0.45236  -0.45152  -0.44627  -0.44542  -0.44446
 Alpha  occ. eigenvalues --   -0.44397  -0.44184  -0.44128  -0.44062  -0.44050
 Alpha  occ. eigenvalues --   -0.44016  -0.43866  -0.43546  -0.43489  -0.43424
 Alpha  occ. eigenvalues --   -0.43312  -0.43070  -0.42865  -0.42834  -0.42753
 Alpha  occ. eigenvalues --   -0.42697  -0.42496  -0.42050  -0.41903  -0.41748
 Alpha  occ. eigenvalues --   -0.41599  -0.41573  -0.41384  -0.41180  -0.40912
 Alpha  occ. eigenvalues --   -0.40908  -0.40854  -0.40650  -0.40625  -0.40608
 Alpha  occ. eigenvalues --   -0.40434  -0.40273  -0.40147  -0.39475  -0.39379
 Alpha  occ. eigenvalues --   -0.38504  -0.38293  -0.37789  -0.37576  -0.37358
 Alpha  occ. eigenvalues --   -0.37306  -0.37203  -0.37120  -0.36768  -0.36710
 Alpha  occ. eigenvalues --   -0.36239  -0.36154  -0.34329  -0.34182  -0.33833
 Alpha  occ. eigenvalues --   -0.33797  -0.33230  -0.33104  -0.31374  -0.31208
 Alpha  occ. eigenvalues --   -0.31077  -0.30901  -0.30084  -0.29888  -0.29490
 Alpha  occ. eigenvalues --   -0.29368  -0.29254  -0.29141  -0.24122  -0.23963
 Alpha  occ. eigenvalues --   -0.21169  -0.21044
 Alpha virt. eigenvalues --   -0.08816  -0.08719  -0.01789  -0.01614  -0.00096
 Alpha virt. eigenvalues --    0.00046   0.02153   0.02274   0.03076   0.03290
 Alpha virt. eigenvalues --    0.04677   0.04809   0.05036   0.05230   0.06136

 Mulliken charges:
               1
     1  Mg   0.838676
     2  C   -0.003046
     3  C   -0.094084
     4  C   -0.045801
     5  C   -0.063971
     6  N   -0.256822
     7  C   -0.052476
     8  C   -0.014040
     9  C   -0.087019
    10  C    0.046355
    11  C    0.104791
    12  C    0.053456
    13  C   -0.071851
    14  H    0.036094
    15  N   -0.433178
    16  C    0.168467
    17  C   -0.177060
    18  C   -0.003897
    19  C    0.148744
    20  C    0.110142
    21  C    0.012362
    22  O   -0.249361
    23  C    0.062442
    24  N   -0.341135
    25  C    0.041262
    26  C   -0.028251
    27  C   -0.023950
    28  C    0.074772
    29  C    0.076119
    30  C    0.035129
    31  C   -0.004514
    32  N   -0.310402
    33  C    0.080284
    34  C   -0.169963
    35  C    0.008236
    36  C    0.082840
    37  C    0.127389
    38  C    0.045893
    39  O   -0.188788
    40  C   -0.005221
    41  C    0.212803
    42  O   -0.257416
    43  O   -0.304676
    44  C    0.157790
    45  H   -0.017480
    46  H   -0.016627
    47  H   -0.041582
    48  H    0.000924
    49  H   -0.003940
    50  H    0.025471
    51  H    0.016500
    52  H    0.016770
    53  H    0.011262
    54  H    0.043925
    55  H    0.017908
    56  H    0.018106
    57  H    0.005940
    58  H    0.026983
    59  H    0.039647
    60  H    0.037393
    61  H    0.035887
    62  H    0.031464
    63  H    0.016756
    64  H    0.009492
    65  H    0.023444
    66  H    0.012563
    67  H    0.004798
    68  H    0.006632
    69  H    0.004549
    70  H    0.009127
    71  H    0.017923
    72  H    0.028764
    73  H    0.047139
    74  H    0.009039
    75  H    0.046073
    76  H    0.035212
    77  H    0.042882
    78  H    0.046590
    79  H    0.053340
    80  Mg   0.837921
    81  C   -0.016779
    82  C   -0.087523
    83  C   -0.045481
    84  C   -0.064942
    85  N   -0.254586
    86  C   -0.049745
    87  C   -0.015134
    88  C   -0.090488
    89  C    0.045685
    90  C    0.114191
    91  C    0.062498
    92  C   -0.077856
    93  H    0.034615
    94  N   -0.423559
    95  C    0.162869
    96  C   -0.174202
    97  C   -0.007859
    98  C    0.152244
    99  C    0.099168
   100  C    0.015600
   101  O   -0.253444
   102  C    0.061194
   103  N   -0.350005
   104  C    0.037594
   105  C   -0.019819
   106  C   -0.034743
   107  C    0.088847
   108  C    0.073722
   109  C    0.034805
   110  C   -0.007621
   111  N   -0.324066
   112  C    0.078379
   113  C   -0.163256
   114  C    0.002243
   115  C    0.096115
   116  C    0.131498
   117  C    0.042299
   118  O   -0.188098
   119  C    0.000940
   120  C    0.211262
   121  O   -0.251120
   122  O   -0.305586
   123  C    0.152085
   124  H   -0.018912
   125  H   -0.015767
   126  H   -0.040735
   127  H   -0.000625
   128  H   -0.004202
   129  H    0.022376
   130  H    0.014992
   131  H    0.017005
   132  H    0.013884
   133  H    0.037503
   134  H    0.020910
   135  H    0.019733
   136  H    0.009190
   137  H    0.026676
   138  H    0.039675
   139  H    0.038565
   140  H    0.036161
   141  H    0.033851
   142  H    0.014220
   143  H    0.012197
   144  H    0.024768
   145  H    0.011972
   146  H    0.005351
   147  H    0.005937
   148  H    0.003510
   149  H    0.010839
   150  H    0.017758
   151  H    0.030285
   152  H    0.045834
   153  H    0.008279
   154  H    0.046970
   155  H    0.035130
   156  H    0.043771
   157  H    0.049574
   158  H    0.053463
 Sum of Mulliken charges =  -0.00000

 Dipole moment (field-independent basis, Debye):
    X=              4.4273    Y=              3.0738    Z=              1.2114  Tot=              5.5242
 Quadrupole moment (field-independent basis, Debye-Ang):
   XX=           -519.8995   YY=           -527.9507   ZZ=           -470.6343
   XY=            -18.6167   XZ=             56.9190   YZ=             25.1334

 Normal termination of Gaussian 16 at Sat Sep 11 19:51:40 2021.
