 Gaussian 16, Revision A.03,
 Gaussian 16:  ES64L-G16RevA.03 25-Dec-2016

 -----------------------------------
 #p cam-b3lyp/Def2SVP td=(nstates=5)
 -----------------------------------

 --------------------------------
 TDDFT excited states in gaussian
 --------------------------------
 Symbolic Z-matrix:
 Charge =  0 Multiplicity = 1

                         Standard orientation:
 ---------------------------------------------------------------------
 Center     Atomic      Atomic             Coordinates (Angstroms)
 Number     Number       Type             X           Y           Z
 ---------------------------------------------------------------------
      1         12           0        3.984729   -0.481394    1.099932
      2          6           0        4.592108    2.511647   -0.766886
      3          6           0        4.018255    1.445464    3.915808
      4          6           0        3.903218   -3.156867    2.800469
      5          6           0        5.114564   -2.264440   -1.673131
      6          7           0        4.275849    1.691626    1.406327
      7          6           0        4.440087    2.737913    0.602909
      8          6           0        4.359848    4.105406    1.345135
      9          6           0        4.750344    3.618769    2.812341
     10          6           0        4.289087    2.174930    2.720165
     11          6           0        6.251576    3.638584    3.081432
     12          6           0        2.919213    4.717783    1.309125
     13          6           0        2.824456    6.189768    1.720992
     14          1           0        1.858926    7.044745    1.047112
     15          7           0        3.486694   -0.785110    2.987409
     16          6           0        3.547570    0.116988    3.996269
     17          6           0        3.071667   -0.590178    5.204621
     18          6           0        2.909303   -2.028883    4.855536
     19          6           0        3.458673   -2.052785    3.523995
     20          6           0        2.775172    0.101675    6.499681
     21          6           0        2.357709   -3.198837    5.607256
     22          8           0        2.522558   -4.402389    5.208683
     23          6           0        1.686701   -2.901139    6.885602
     24          7           0        4.646301   -2.424887    0.722050
     25          6           0        4.435056   -3.409198    1.602670
     26          6           0        4.736009   -4.751243    1.004106
     27          6           0        4.966864   -4.497970   -0.555481
     28          6           0        4.830708   -2.955374   -0.566739
     29          6           0        5.950595   -5.486834    1.586942
     30          6           0        4.097643   -5.322323   -1.537987
     31          6           0        2.650345   -4.899347   -1.421720
     32          7           0        4.559406   -0.008176   -0.938905
     33          6           0        5.019257   -0.904156   -1.914830
     34          6           0        5.384851   -0.103885   -3.098036
     35          6           0        5.126203    1.212154   -2.719898
     36          6           0        4.655273    1.234976   -1.376025
     37          6           0        5.939914   -0.609145   -4.306775
     38          6           0        5.161449    2.606542   -3.130138
     39          8           0        5.383509    3.193183   -4.190343
     40          6           0        4.932794    3.513867   -1.841609
     41          6           0        3.898117    4.548294   -2.191913
     42          8           0        2.717341    4.218619   -2.425256
     43          8           0        4.399128    5.772439   -1.966081
     44          6           0        3.412629    6.844457   -2.265662
     45          1           0        4.241389    1.908870    4.878828
     46          1           0        3.787554   -4.114117    3.313043
     47          1           0        5.394556   -2.759378   -2.604847
     48          1           0        5.073479    4.853145    0.998663
     49          1           0        4.186734    4.148339    3.580209
     50          1           0        6.815726    3.861536    2.175922
     51          1           0        6.495190    2.640339    3.445647
     52          1           0        6.489900    4.321608    3.897187
     53          1           0        2.316654    4.265567    2.096834
     54          1           0        2.469998    4.589502    0.323693
     55          1           0        3.806731    6.662777    1.738497
     56          1           0        2.484158    6.233706    2.755626
     57          1           0        3.147332    1.125413    6.501202
     58          1           0        3.359473   -0.400900    7.270213
     59          1           0        1.716205    0.058811    6.754796
     60          1           0        2.388563   -2.399551    7.552196
     61          1           0        1.277924   -3.847425    7.238156
     62          1           0        0.877727   -2.193142    6.703254
     63          1           0        3.897897   -5.434554    1.134801
     64          1           0        5.991023   -4.717271   -0.858265
     65          1           0        5.716318   -6.476973    1.978661
     66          1           0        6.389049   -4.854684    2.358587
     67          1           0        6.788199   -5.602244    0.899543
     68          1           0        4.143334   -6.381629   -1.287530
     69          1           0        4.403967   -5.214032   -2.578511
     70          1           0        2.294001   -5.481662   -0.572744
     71          1           0        2.104290   -5.158230   -2.329472
     72          1           0        2.563689   -3.846154   -1.153836
     73          1           0        5.420090   -0.099130   -5.117724
     74          1           0        5.819030   -1.689937   -4.376613
     75          1           0        6.982055   -0.312214   -4.190027
     76          1           0        5.895454    3.963252   -1.599823
     77          1           0        3.878089    7.516645   -2.986595
     78          1           0        3.109161    7.263292   -1.306032
     79          1           0        2.521043    6.539370   -2.814602
     80         12           0       -3.642771   -0.804288   -1.045158
     81          6           0       -6.120044    1.373658    0.368605
     82          6           0       -2.273001    1.952556   -2.514220
     83          6           0       -1.721930   -2.743304   -2.663192
     84          6           0       -5.820700   -3.454110   -0.428075
     85          7           0       -4.212920    1.332390   -1.002608
     86          6           0       -5.136257    2.050898   -0.381694
     87          6           0       -4.950204    3.586621   -0.510107
     88          6           0       -4.093898    3.612359   -1.868402
     89          6           0       -3.454394    2.228172   -1.780448
     90          6           0       -4.953248    3.662783   -3.120717
     91          6           0       -4.141809    4.193203    0.690134
     92          6           0       -4.187575    5.719516    0.790294
     93          1           0       -4.200707    6.329906    2.116840
     94          7           0       -1.935757   -0.429962   -1.985686
     95          6           0       -1.530661    0.751311   -2.497317
     96          6           0       -0.214651    0.497019   -3.103640
     97          6           0        0.050235   -0.966532   -3.053005
     98          6           0       -1.229219   -1.449559   -2.573675
     99          6           0        0.685887    1.597433   -3.584830
    100          6           0        1.251540   -1.795511   -3.393402
    101          8           0        1.181348   -3.070883   -3.499793
    102          6           0        2.491071   -1.062687   -3.690081
    103          7           0       -3.836040   -2.775403   -1.677376
    104          6           0       -2.830606   -3.397905   -2.317301
    105          6           0       -3.089919   -4.881473   -2.427692
    106          6           0       -4.370338   -5.163126   -1.511836
    107          6           0       -4.697704   -3.716056   -1.082615
    108          6           0       -3.348201   -5.408442   -3.839059
    109          6           0       -4.221676   -6.245795   -0.408031
    110          6           0       -3.252309   -5.773089    0.651339
    111          7           0       -5.530216   -1.061165   -0.025554
    112          6           0       -6.281469   -2.251124    0.091440
    113          6           0       -7.545515   -1.902826    0.772125
    114          6           0       -7.451172   -0.519260    0.985018
    115          6           0       -6.224431   -0.035729    0.455098
    116          6           0       -8.607517   -2.803749    1.066419
    117          6           0       -8.115089    0.643936    1.528044
    118          8           0       -9.141887    0.833354    2.178852
    119          6           0       -7.338992    1.942479    1.040341
    120          6           0       -7.129589    2.834020    2.233581
    121          8           0       -6.398028    2.472497    3.172054
    122          8           0       -7.648503    4.047816    1.973195
    123          6           0       -7.455625    4.971044    3.123094
    124          1           0       -1.899959    2.712422   -3.201495
    125          1           0       -1.047549   -3.474462   -3.114963
    126          1           0       -6.509035   -4.240717   -0.111681
    127          1           0       -5.868850    4.146296   -0.639047
    128          1           0       -3.331903    4.386917   -1.840322
    129          1           0       -6.003262    3.553370   -2.893485
    130          1           0       -4.613777    2.845521   -3.743532
    131          1           0       -4.745633    4.577201   -3.683805
    132          1           0       -3.068976    4.048919    0.508565
    133          1           0       -4.457427    3.760461    1.619503
    134          1           0       -4.975902    6.150432    0.161172
    135          1           0       -3.261510    6.122578    0.373206
    136          1           0        0.154153    2.555062   -3.644898
    137          1           0        0.946816    1.366029   -4.623210
    138          1           0        1.604113    1.676771   -2.998967
    139          1           0        2.320715   -0.388487   -4.526082
    140          1           0        3.258455   -1.827899   -3.822189
    141          1           0        2.742362   -0.436373   -2.826836
    142          1           0       -2.251652   -5.450153   -2.044263
    143          1           0       -5.226322   -5.516052   -2.105607
    144          1           0       -2.649090   -6.211459   -4.139868
    145          1           0       -3.292223   -4.577223   -4.529327
    146          1           0       -4.353980   -5.786632   -4.013941
    147          1           0       -3.798656   -7.160912   -0.829677
    148          1           0       -5.161137   -6.513071    0.064153
    149          1           0       -2.277187   -6.023479    0.222946
    150          1           0       -3.419813   -6.302137    1.587339
    151          1           0       -3.292918   -4.683442    0.763907
    152          1           0       -8.933247   -2.582516    2.074109
    153          1           0       -8.288727   -3.839456    0.969187
    154          1           0       -9.324222   -2.520351    0.290994
    155          1           0       -7.950108    2.420922    0.274051
    156          1           0       -8.444903    5.349473    3.398407
    157          1           0       -6.707616    5.713821    2.787646
    158          1           0       -7.125129    4.540870    4.061263
 ---------------------------------------------------------------------

 SCF Done:  E(RCAM-B3LYP) =  -4069.81496610     A.U. after   17 cycles

 Excitation energies and oscillator strengths:

 Excited State   1:      Singlet-A      1.6145 eV  767.92 nm  f=0.1628  <S**2>=0.000
     309 -> 315       -0.12049
     310 -> 316       -0.10568
     311 -> 313        0.50531
     312 -> 314       -0.45485
 This state for optimization and/or second-order correction.
 Total Energy, E(TD-HF/TD-DFT) =  -4069.75563267
 Copying the excited state density for this state as the 1-particle RhoCI density.

 Excited State   2:      Singlet-A      1.7101 eV  725.02 nm  f=0.5722  <S**2>=0.000
     309 -> 315       -0.12510
     310 -> 316        0.13395
     311 -> 313        0.45798
     312 -> 314        0.50773

 Excited State   3:      Singlet-A      2.1518 eV  576.18 nm  f=0.0001  <S**2>=0.000
     312 -> 313        0.69689

 Excited State   4:      Singlet-A      2.1842 eV  567.65 nm  f=0.0029  <S**2>=0.000
     309 -> 313        0.49149
     310 -> 314       -0.41156
     311 -> 315        0.20650
     312 -> 316        0.17213

 Excited State   5:      Singlet-A      2.2012 eV  563.26 nm  f=0.1614  <S**2>=0.000
     309 -> 313        0.40887
     310 -> 314        0.48543
     311 -> 315        0.18426
     312 -> 316       -0.21425

 The electronic state is 1-A.
 Alpha  occ. eigenvalues --  -46.88062 -46.87241 -19.27092 -19.26164 -19.20086
 Alpha  occ. eigenvalues --  -19.18952 -19.18948 -19.18682 -19.18331 -19.17663
 Alpha  occ. eigenvalues --  -14.42728 -14.42085 -14.41609 -14.40930 -14.39639
 Alpha  occ. eigenvalues --  -14.39062 -14.38918 -14.38174 -10.39978 -10.38869
 Alpha  occ. eigenvalues --  -10.35571 -10.34921 -10.34849 -10.33855 -10.32386
 Alpha  occ. eigenvalues --  -10.31741 -10.31638 -10.31215 -10.30897 -10.30891
 Alpha  occ. eigenvalues --  -10.30778 -10.30548 -10.30292 -10.30106 -10.30021
 Alpha  occ. eigenvalues --  -10.29916 -10.29883 -10.29666 -10.29564 -10.29445
 Alpha  occ. eigenvalues --  -10.29096 -10.28933 -10.28915 -10.28855 -10.28799
 Alpha  occ. eigenvalues --  -10.28503 -10.28422 -10.28377 -10.28088 -10.27984
 Alpha  occ. eigenvalues --  -10.27924 -10.27836 -10.27763 -10.27758 -10.27719
 Alpha  occ. eigenvalues --  -10.27615 -10.27501 -10.27293 -10.27198 -10.27180
 Alpha  occ. eigenvalues --  -10.27174 -10.27105 -10.27086 -10.27075 -10.26886
 Alpha  occ. eigenvalues --  -10.26720 -10.26502 -10.26440 -10.26437 -10.26160
 Alpha  occ. eigenvalues --  -10.26114 -10.25835 -10.25670 -10.25667 -10.25492
 Alpha  occ. eigenvalues --  -10.25484 -10.25350 -10.25339 -10.25282 -10.25227
 Alpha  occ. eigenvalues --  -10.25163 -10.24983 -10.24419 -10.24411 -10.24296
 Alpha  occ. eigenvalues --  -10.23066  -3.16809  -3.15993  -1.91689  -1.91274
 Alpha  occ. eigenvalues --   -1.91122  -1.90876  -1.90464  -1.90300  -1.17462
 Alpha  occ. eigenvalues --   -1.16451  -1.09180  -1.08298  -1.07600  -1.07339
 Alpha  occ. eigenvalues --   -1.06731  -1.06586  -1.04892  -1.04072  -1.03961
 Alpha  occ. eigenvalues --   -1.03568  -1.03246  -1.02702  -1.02609  -1.01674
 Alpha  occ. eigenvalues --   -0.92393  -0.91580  -0.89590  -0.89415  -0.89106
 Alpha  occ. eigenvalues --   -0.88796  -0.88277  -0.88126  -0.87905  -0.87866
 Alpha  occ. eigenvalues --   -0.87464  -0.87374  -0.87244  -0.86268  -0.85277
 Alpha  occ. eigenvalues --   -0.84627  -0.83874  -0.83544  -0.82963  -0.82758
 Alpha  occ. eigenvalues --   -0.82412  -0.82013  -0.81944  -0.81278  -0.80887
 Alpha  occ. eigenvalues --   -0.80032  -0.79030  -0.77955  -0.77431  -0.77150
 Alpha  occ. eigenvalues --   -0.76649  -0.76573  -0.76209  -0.75373  -0.74847
 Alpha  occ. eigenvalues --   -0.74399  -0.73020  -0.72231  -0.71919  -0.71187
 Alpha  occ. eigenvalues --   -0.69468  -0.69404  -0.69099  -0.68422  -0.67937
 Alpha  occ. eigenvalues --   -0.67499  -0.67195  -0.66776  -0.65625  -0.65225
 Alpha  occ. eigenvalues --   -0.64913  -0.64843  -0.64385  -0.64297  -0.64095
 Alpha  occ. eigenvalues --   -0.63833  -0.62711  -0.61971  -0.60594  -0.60122
 Alpha  occ. eigenvalues --   -0.59760  -0.59403  -0.59255  -0.58793  -0.58593
 Alpha  occ. eigenvalues --   -0.58177  -0.58002  -0.57419  -0.57225  -0.56812
 Alpha  occ. eigenvalues --   -0.56720  -0.56405  -0.55833  -0.55748  -0.55596
 Alpha  occ. eigenvalues --   -0.55479  -0.55006  -0.54881  -0.54607  -0.54219
 Alpha  occ. eigenvalues --   -0.54192  -0.53565  -0.53534  -0.53495  -0.53317
 Alpha  occ. eigenvalues --   -0.53120  -0.52893  -0.52810  -0.52609  -0.52382
 Alpha  occ. eigenvalues --   -0.52059  -0.51963  -0.51878  -0.51561  -0.51500
 Alpha  occ. eigenvalues --   -0.51310  -0.51120  -0.50806  -0.50653  -0.50206
 Alpha  occ. eigenvalues --   -0.49986  -0.49818  -0.49684  -0.49579  -0.49475
 Alpha  occ. eigenvalues --   -0.49347  -0.49171  -0.49108  -0.48843  -0.48745
 Alpha  occ. eigenvalues --   -0.48672  -0.48573  -0.48383  -0.48186  -0.48038
 Alpha  occ. eigenvalues --   -0.47862  -0.47770  -0.47494  -0.47045  -0.46975
 Alpha  occ. eigenvalues --   -0.46798  -0.46572  -0.46401  -0.46309  -0.46285
 Alpha  occ. eigenvalues --   -0.46244  -0.46034  -0.45774  -0.45565  -0.45495
 Alpha  occ. eigenvalues --   -0.45158  -0.44929  -0.44837  -0.44670  -0.44494
 Alpha  occ. eigenvalues --   -0.44270  -0.44150  -0.44104  -0.44077  -0.43829
 Alpha  occ. eigenvalues --   -0.43746  -0.43644  -0.43471  -0.43374  -0.43295
 Alpha  occ. eigenvalues --   -0.43230  -0.43095  -0.42986  -0.42636  -0.42572
 Alpha  occ. eigenvalues --   -0.42480  -0.42187  -0.41959  -0.41890  -0.41614
 Alpha  occ. eigenvalues --   -0.41421  -0.41379  -0.41268  -0.41075  -0.41001
 Alpha  occ. eigenvalues --   -0.40962  -0.40591  -0.40539  -0.40342  -0.40288
 Alpha  occ. eigenvalues --   -0.40157  -0.40112  -0.39580  -0.39083  -0.38870
 Alpha  occ. eigenvalues --   -0.38369  -0.38061  -0.38018  -0.37636  -0.37403
 Alpha  occ. eigenvalues --   -0.37359  -0.37179  -0.36884  -0.36770  -0.36534
 Alpha  occ. eigenvalues --   -0.36232  -0.35874  -0.34731  -0.34525  -0.33844
 Alpha  occ. eigenvalues --   -0.33610  -0.33427  -0.32749  -0.31488  -0.31317
 Alpha  occ. eigenvalues --   -0.30841  -0.30574  -0.30540  -0.29824  -0.29617
 Alpha  occ. eigenvalues --   -0.29586  -0.28828  -0.28685  -0.24368  -0.23618
 Alpha  occ. eigenvalues --   -0.21360  -0.20653
 Alpha virt. eigenvalues --   -0.09062  -0.08300  -0.02003  -0.01291  -0.00331
 Alpha virt. eigenvalues --    0.00459   0.01784   0.02389   0.02662   0.04056
 Alpha virt. eigenvalues --    0.04276   0.04411   0.05090   0.05407   0.05800

 Mulliken charges:
               1
     1  Mg   0.836978
     2  C   -0.007022
     3  C   -0.093739
     4  C   -0.044745
     5  C   -0.046518
     6  N   -0.257434
     7  C   -0.055990
     8  C   -0.014472
     9  C   -0.087236
    10  C    0.047915
    11  C    0.104557
    12  C    0.053281
    13  C   -0.071803
    14  H    0.033713
    15  N   -0.432993
    16  C    0.169897
    17  C   -0.175747
    18  C   -0.002601
    19  C    0.150146
    20  C    0.109738
    21  C    0.013616
    22  O   -0.247783
    23  C    0.061710
    24  N   -0.342522
    25  C    0.044804
    26  C   -0.028011
    27  C   -0.023319
    28  C    0.071707
    29  C    0.076443
    30  C    0.033176
    31  C    0.006545
    32  N   -0.301025
    33  C    0.037385
    34  C   -0.167545
    35  C    0.009680
    36  C    0.072727
    37  C    0.133662
    38  C    0.033759
    39  O   -0.186921
    40  C   -0.005807
    41  C    0.220107
    42  O   -0.259003
    43  O   -0.302124
    44  C    0.157210
    45  H   -0.016650
    46  H   -0.014965
    47  H   -0.038394
    48  H    0.000530
    49  H   -0.003063
    50  H    0.025514
    51  H    0.017244
    52  H    0.017608
    53  H    0.013201
    54  H    0.040595
    55  H    0.018627
    56  H    0.019939
    57  H    0.006320
    58  H    0.027815
    59  H    0.042651
    60  H    0.037309
    61  H    0.037007
    62  H    0.033703
    63  H    0.019331
    64  H    0.007767
    65  H    0.023491
    66  H    0.010918
    67  H    0.005112
    68  H    0.001382
    69  H    0.005578
    70  H   -0.007431
    71  H    0.037202
    72  H    0.023343
    73  H    0.042658
    74  H    0.013838
    75  H    0.046722
    76  H    0.036747
    77  H    0.045176
    78  H    0.048561
    79  H    0.051055
    80  Mg   0.834694
    81  C   -0.016888
    82  C   -0.082432
    83  C   -0.047236
    84  C   -0.065352
    85  N   -0.254136
    86  C   -0.051953
    87  C   -0.014894
    88  C   -0.090246
    89  C    0.043854
    90  C    0.114436
    91  C    0.062283
    92  C   -0.076671
    93  H    0.031185
    94  N   -0.423844
    95  C    0.159554
    96  C   -0.173843
    97  C   -0.009551
    98  C    0.152101
    99  C    0.108012
   100  C    0.027367
   101  O   -0.258671
   102  C    0.058911
   103  N   -0.350384
   104  C    0.038822
   105  C   -0.019802
   106  C   -0.034176
   107  C    0.088015
   108  C    0.074092
   109  C    0.035070
   110  C   -0.007107
   111  N   -0.323525
   112  C    0.076566
   113  C   -0.164869
   114  C    0.001553
   115  C    0.094531
   116  C    0.131874
   117  C    0.041000
   118  O   -0.190584
   119  C    0.001165
   120  C    0.211166
   121  O   -0.252475
   122  O   -0.305385
   123  C    0.152588
   124  H   -0.016029
   125  H   -0.017260
   126  H   -0.042031
   127  H   -0.001787
   128  H   -0.002955
   129  H    0.021618
   130  H    0.015005
   131  H    0.015983
   132  H    0.014755
   133  H    0.036198
   134  H    0.020745
   135  H    0.019231
   136  H    0.011368
   137  H    0.021501
   138  H    0.054578
   139  H    0.038022
   140  H    0.016359
   141  H    0.061435
   142  H    0.013137
   143  H    0.011407
   144  H    0.023161
   145  H    0.011908
   146  H    0.005341
   147  H    0.004757
   148  H    0.003003
   149  H    0.010514
   150  H    0.017746
   151  H    0.030372
   152  H    0.044306
   153  H    0.007466
   154  H    0.045671
   155  H    0.034266
   156  H    0.043264
   157  H    0.048993
   158  H    0.052297
 Sum of Mulliken charges =  -0.00000

 Dipole moment (field-independent basis, Debye):
    X=              4.0051    Y=              3.4286    Z=              1.5454  Tot=              5.4940
 Quadrupole moment (field-independent basis, Debye-Ang):
   XX=           -543.7047   YY=           -464.5453   ZZ=           -511.7748
   XY=              5.5715   XZ=             40.8033   YZ=             23.6499

 Normal termination of Gaussian 16 at Wed Sep  8 15:42:08 2021.
