 Gaussian 16, Revision A.03,
 Gaussian 16:  ES64L-G16RevA.03 25-Dec-2016

 -----------------------------------
 #p cam-b3lyp/Def2SVP td=(nstates=5)
 -----------------------------------

 --------------------------------
 TDDFT excited states in gaussian
 --------------------------------
 Symbolic Z-matrix:
 Charge =  0 Multiplicity = 1

                         Standard orientation:
 ---------------------------------------------------------------------
 Center     Atomic      Atomic             Coordinates (Angstroms)
 Number     Number       Type             X           Y           Z
 ---------------------------------------------------------------------
      1         12           0       15.513170    0.820894    0.452288
      2          6           0       15.783483   -2.566178   -0.673274
      3          6           0       16.429772    1.781839   -2.690878
      4          6           0       15.723398    3.792446    1.539626
      5          6           0       15.734920   -0.399134    3.709283
      6          7           0       16.014649   -0.338518   -1.365659
      7          6           0       16.022180   -1.629750   -1.681624
      8          6           0       16.233196   -1.892350   -3.202771
      9          6           0       16.973791   -0.535184   -3.592152
     10          6           0       16.413417    0.367283   -2.507044
     11          6           0       18.489951   -0.603142   -3.440021
     12          6           0       14.878690   -2.047177   -3.972883
     13          6           0       14.993145   -2.625025   -5.386511
     14          1           0       13.938146   -3.501586   -5.872273
     15          7           0       15.525503    2.542090   -0.517342
     16          6           0       15.914384    2.746936   -1.798784
     17          6           0       15.738600    4.193227   -2.051816
     18          6           0       15.396242    4.843477   -0.756417
     19          6           0       15.562541    3.741929    0.156991
     20          6           0       15.848089    4.809746   -3.412576
     21          6           0       14.994713    6.239130   -0.397168
     22          8           0       14.968355    6.648982    0.813576
     23          6           0       14.714697    7.151864   -1.520355
     24          7           0       15.922251    1.617391    2.337992
     25          6           0       15.894395    2.937676    2.550256
     26          6           0       15.935868    3.256133    4.015454
     27          6           0       15.752274    1.864028    4.775777
     28          6           0       15.717103    0.925473    3.544458
     29          6           0       17.213150    3.945656    4.514574
     30          6           0       14.598954    1.772355    5.806248
     31          6           0       13.267094    1.852486    5.094331
     32          7           0       15.544393   -1.134467    1.393900
     33          6           0       15.665039   -1.408711    2.763903
     34          6           0       15.747608   -2.874044    2.905503
     35          6           0       15.685530   -3.352736    1.598274
     36          6           0       15.597848   -2.254754    0.695479
     37          6           0       15.921781   -3.584882    4.125670
     38          6           0       15.697689   -4.535343    0.752610
     39          8           0       15.661955   -5.749293    0.958864
     40          6           0       15.884364   -4.068878   -0.758479
     41          6           0       14.861881   -4.796333   -1.588327
     42          8           0       13.643411   -4.565326   -1.449288
     43          8           0       15.482521   -5.467481   -2.570624
     44          6           0       14.522435   -6.187709   -3.449066
     45          1           0       16.934076    2.194457   -3.566871
     46          1           0       15.689608    4.797259    1.965826
     47          1           0       15.720387   -0.856052    4.700478
     48          1           0       16.872919   -2.744671   -3.432397
     49          1           0       16.673793   -0.175761   -4.576295
     50          1           0       18.801397   -1.533379   -2.965067
     51          1           0       18.758576    0.250629   -2.817599
     52          1           0       18.983088   -0.441810   -4.398960
     53          1           0       14.483840   -1.058781   -4.207888
     54          1           0       14.172580   -2.644710   -3.395225
     55          1           0       15.971753   -3.075427   -5.554960
     56          1           0       14.948716   -1.799888   -6.097408
     57          1           0       16.271497    4.113068   -4.135010
     58          1           0       16.585528    5.609030   -3.341601
     59          1           0       14.897012    5.216529   -3.756541
     60          1           0       15.601206    7.230173   -2.150051
     61          1           0       14.356775    8.078404   -1.072845
     62          1           0       13.933554    6.715558   -2.143575
     63          1           0       15.122358    3.924974    4.293446
     64          1           0       16.640259    1.588864    5.345375
     65          1           0       17.030642    4.898876    5.011330
     66          1           0       17.883364    4.069715    3.664448
     67          1           0       17.824602    3.344049    5.186595
     68          1           0       14.642789    2.611227    6.500019
     69          1           0       14.618891    0.854517    6.393979
     70          1           0       13.117007    2.925309    4.978757
     71          1           0       12.480597    1.412125    5.708103
     72          1           0       13.323624    1.421789    4.094436
     73          1           0       15.235832   -4.430989    4.086355
     74          1           0       15.717645   -2.949131    4.986920
     75          1           0       16.973462   -3.860812    4.050264
     76          1           0       16.903242   -4.329366   -1.043359
     77          1           0       14.817702   -7.237003   -3.454929
     78          1           0       14.517093   -5.658252   -4.401984
     79          1           0       13.498039   -6.264230   -3.082874
     80         12           0      -16.226559    0.368729   -0.111615
     81          6           0      -13.827090   -2.285824    0.162246
     82          6           0      -13.733037    2.285228   -1.432206
     83          6           0      -18.188764    2.856915    0.049896
     84          6           0      -18.168938   -1.332611    2.228963
     85          7           0      -14.097281   -0.057737   -0.531800
     86          6           0      -13.312111   -1.120780   -0.443484
     87          6           0      -11.920804   -0.949942   -1.110312
     88          6           0      -11.817811    0.651307   -1.044955
     89          6           0      -13.306635    0.991907   -1.037717
     90          6           0      -11.204576    1.162647    0.248034
     91          6           0      -11.900445   -1.466853   -2.591663
     92          6           0      -10.504898   -1.616646   -3.201381
     93          1           0      -10.266272   -2.716498   -4.131901
     94          7           0      -16.160258    2.119217   -1.044316
     95          6           0      -15.066499    2.738554   -1.535637
     96          6           0      -15.545030    4.006677   -2.107500
     97          6           0      -16.985614    4.160629   -1.767306
     98          6           0      -17.166128    3.037035   -0.870071
     99          6           0      -14.681654    4.893273   -2.957171
    100          6           0      -18.025138    5.161835   -2.171275
    101          8           0      -19.153179    5.241975   -1.567998
    102          6           0      -17.647610    6.107157   -3.232092
    103          7           0      -17.828965    0.822246    1.132947
    104          6           0      -18.545549    1.946084    0.955654
    105          6           0      -19.807832    1.924568    1.784245
    106          6           0      -19.910344    0.441006    2.372545
    107          6           0      -18.584837   -0.138064    1.831167
    108          6           0      -19.867368    2.932184    2.932092
    109          6           0      -21.225388   -0.337263    2.093916
    110          6           0      -21.341792   -0.642178    0.617821
    111          7           0      -16.150134   -1.554638    0.869666
    112          6           0      -17.050737   -2.056219    1.834751
    113          6           0      -16.519505   -3.356811    2.291565
    114          6           0      -15.325306   -3.512134    1.571663
    115          6           0      -15.116051   -2.378376    0.740824
    116          6           0      -17.104520   -4.191774    3.284902
    117          6           0      -14.188760   -4.372510    1.333537
    118          8           0      -13.867586   -5.505783    1.688888
    119          6           0      -13.103920   -3.558838    0.504419
    120          6           0      -12.639872   -4.428176   -0.631994
    121          8           0      -13.423993   -4.751293   -1.541586
    122          8           0      -11.301563   -4.553790   -0.572641
    123          6           0      -10.792662   -5.398525   -1.685854
    124          1           0      -12.974617    3.039739   -1.642934
    125          1           0      -18.952841    3.637590    0.064399
    126          1           0      -18.765946   -1.970110    2.884593
    127          1           0      -11.098113   -1.397971   -0.566043
    128          1           0      -11.339102    1.052938   -1.934274
    129          1           0      -11.047176    0.367367    0.961399
    130          1           0      -11.905460    1.888483    0.639133
    131          1           0      -10.284893    1.715510    0.036245
    132          1           0      -12.309762   -0.688321   -3.248226
    133          1           0      -12.434425   -2.393029   -2.679378
    134          1           0       -9.716277   -1.579424   -2.440046
    135          1           0      -10.307658   -0.747980   -3.834263
    136          1           0      -13.625085    4.604781   -2.895256
    137          1           0      -14.716419    5.894036   -2.513171
    138          1           0      -15.028244    4.953108   -3.991077
    139          1           0      -16.768697    6.666820   -2.921053
    140          1           0      -18.549914    6.683987   -3.444179
    141          1           0      -17.358980    5.537103   -4.122222
    142          1           0      -20.677651    2.119519    1.169012
    143          1           0      -19.832567    0.431467    3.469673
    144          1           0      -20.742381    3.606889    2.875655
    145          1           0      -18.947517    3.501751    2.934342
    146          1           0      -19.871529    2.496136    3.929611
    147          1           0      -22.091186    0.277017    2.353160
    148          1           0      -21.307106   -1.262149    2.655079
    149          1           0      -21.758637    0.282242    0.206995
    150          1           0      -22.010498   -1.484466    0.452212
    151          1           0      -20.353270   -0.787041    0.166721
    152          1           0      -17.052128   -5.205280    2.909988
    153          1           0      -18.130409   -3.898139    3.497254
    154          1           0      -16.437127   -3.990023    4.127023
    155          1           0      -12.290658   -3.308088    1.186549
    156          1           0      -10.215749   -6.210633   -1.232708
    157          1           0      -10.249210   -4.709490   -2.359391
    158          1           0      -11.519897   -5.954057   -2.266344
 ---------------------------------------------------------------------

 SCF Done:  E(RCAM-B3LYP) =  -4069.81177089     A.U. after   19 cycles

 Excitation energies and oscillator strengths:

 Excited State   1:      Singlet-A      1.6753 eV  740.08 nm  f=0.2059  <S**2>=0.000
     310 -> 316        0.16816
     311 -> 313       -0.16892
     312 -> 314        0.66493
     310 <- 316        0.10138
 This state for optimization and/or second-order correction.
 Total Energy, E(TD-HF/TD-DFT) =  -4069.75020512
 Copying the excited state density for this state as the 1-particle RhoCI density.

 Excited State   2:      Singlet-A      1.6801 eV  737.95 nm  f=0.5712  <S**2>=0.000
     309 -> 315        0.17019
     311 -> 313        0.66457
     312 -> 314        0.16887
     309 <- 315        0.10189

 Excited State   3:      Singlet-A      2.1861 eV  567.16 nm  f=0.1015  <S**2>=0.000
     310 -> 314        0.64242
     312 -> 316       -0.27304

 Excited State   4:      Singlet-A      2.1925 eV  565.49 nm  f=0.0998  <S**2>=0.000
     309 -> 313        0.64064
     311 -> 315       -0.27825

 Excited State   5:      Singlet-A      3.0612 eV  405.02 nm  f=0.0000  <S**2>=0.000
     312 -> 313        0.70710

 The electronic state is 1-A.
 Alpha  occ. eigenvalues --  -46.87813 -46.87659 -19.26337 -19.26297 -19.19151
 Alpha  occ. eigenvalues --  -19.19034 -19.18835 -19.18715 -19.18184 -19.18046
 Alpha  occ. eigenvalues --  -14.42495 -14.42466 -14.41466 -14.41358 -14.39420
 Alpha  occ. eigenvalues --  -14.39351 -14.38603 -14.38598 -10.39093 -10.39081
 Alpha  occ. eigenvalues --  -10.35468 -10.35392 -10.34404 -10.34223 -10.31740
 Alpha  occ. eigenvalues --  -10.31691 -10.31420 -10.31305 -10.31020 -10.30925
 Alpha  occ. eigenvalues --  -10.30586 -10.30524 -10.30396 -10.30358 -10.30224
 Alpha  occ. eigenvalues --  -10.30141 -10.29937 -10.29894 -10.29647 -10.29436
 Alpha  occ. eigenvalues --  -10.29399 -10.29271 -10.28764 -10.28712 -10.28643
 Alpha  occ. eigenvalues --  -10.28554 -10.28402 -10.28381 -10.28134 -10.28132
 Alpha  occ. eigenvalues --  -10.27999 -10.27809 -10.27743 -10.27667 -10.27601
 Alpha  occ. eigenvalues --  -10.27519 -10.27517 -10.27500 -10.27481 -10.27467
 Alpha  occ. eigenvalues --  -10.27466 -10.27464 -10.27420 -10.27377 -10.27172
 Alpha  occ. eigenvalues --  -10.27044 -10.26721 -10.26685 -10.26433 -10.26417
 Alpha  occ. eigenvalues --  -10.26248 -10.26201 -10.26140 -10.26036 -10.26017
 Alpha  occ. eigenvalues --  -10.25933 -10.25856 -10.25849 -10.25451 -10.25400
 Alpha  occ. eigenvalues --  -10.24870 -10.24848 -10.24804 -10.24733 -10.24706
 Alpha  occ. eigenvalues --  -10.24689  -3.16556  -3.16409  -1.91438  -1.91291
 Alpha  occ. eigenvalues --   -1.91024  -1.90879  -1.90866  -1.90716  -1.16646
 Alpha  occ. eigenvalues --   -1.16632  -1.08653  -1.08641  -1.07236  -1.06967
 Alpha  occ. eigenvalues --   -1.06936  -1.06656  -1.04597  -1.04492  -1.03777
 Alpha  occ. eigenvalues --   -1.03661  -1.03250  -1.03037  -1.02428  -1.02110
 Alpha  occ. eigenvalues --   -0.91988  -0.91984  -0.89536  -0.89494  -0.89203
 Alpha  occ. eigenvalues --   -0.89145  -0.88303  -0.88220  -0.87885  -0.87792
 Alpha  occ. eigenvalues --   -0.87689  -0.87681  -0.87292  -0.87120  -0.84998
 Alpha  occ. eigenvalues --   -0.84995  -0.83953  -0.83876  -0.82986  -0.82932
 Alpha  occ. eigenvalues --   -0.82665  -0.82649  -0.81600  -0.81590  -0.80612
 Alpha  occ. eigenvalues --   -0.80438  -0.78814  -0.78634  -0.77235  -0.77141
 Alpha  occ. eigenvalues --   -0.76950  -0.76893  -0.75938  -0.75833  -0.74914
 Alpha  occ. eigenvalues --   -0.74802  -0.72790  -0.72697  -0.71688  -0.71578
 Alpha  occ. eigenvalues --   -0.69924  -0.69758  -0.68889  -0.68823  -0.67658
 Alpha  occ. eigenvalues --   -0.67599  -0.67237  -0.67195  -0.65302  -0.65266
 Alpha  occ. eigenvalues --   -0.64869  -0.64767  -0.64649  -0.64636  -0.64286
 Alpha  occ. eigenvalues --   -0.64203  -0.62312  -0.62271  -0.60460  -0.60339
 Alpha  occ. eigenvalues --   -0.59820  -0.59792  -0.59003  -0.58990  -0.58520
 Alpha  occ. eigenvalues --   -0.58423  -0.57599  -0.57548  -0.57325  -0.57235
 Alpha  occ. eigenvalues --   -0.56326  -0.56202  -0.55993  -0.55879  -0.55537
 Alpha  occ. eigenvalues --   -0.55448  -0.55355  -0.55245  -0.54539  -0.54484
 Alpha  occ. eigenvalues --   -0.53910  -0.53907  -0.53316  -0.53238  -0.53226
 Alpha  occ. eigenvalues --   -0.53138  -0.52930  -0.52897  -0.52774  -0.52666
 Alpha  occ. eigenvalues --   -0.52455  -0.52402  -0.51929  -0.51883  -0.51654
 Alpha  occ. eigenvalues --   -0.51633  -0.51211  -0.51198  -0.50592  -0.50475
 Alpha  occ. eigenvalues --   -0.50048  -0.49977  -0.49936  -0.49867  -0.49531
 Alpha  occ. eigenvalues --   -0.49485  -0.49230  -0.49198  -0.49111  -0.49099
 Alpha  occ. eigenvalues --   -0.48608  -0.48553  -0.48478  -0.48462  -0.48375
 Alpha  occ. eigenvalues --   -0.48337  -0.47711  -0.47591  -0.47313  -0.47116
 Alpha  occ. eigenvalues --   -0.46813  -0.46707  -0.46571  -0.46549  -0.46375
 Alpha  occ. eigenvalues --   -0.46269  -0.46178  -0.46083  -0.45836  -0.45817
 Alpha  occ. eigenvalues --   -0.45218  -0.45208  -0.44593  -0.44524  -0.44510
 Alpha  occ. eigenvalues --   -0.44472  -0.44161  -0.44124  -0.44104  -0.44076
 Alpha  occ. eigenvalues --   -0.44035  -0.43936  -0.43547  -0.43509  -0.43402
 Alpha  occ. eigenvalues --   -0.43382  -0.43043  -0.42924  -0.42896  -0.42714
 Alpha  occ. eigenvalues --   -0.42670  -0.42553  -0.42026  -0.41962  -0.41720
 Alpha  occ. eigenvalues --   -0.41666  -0.41550  -0.41455  -0.41157  -0.40986
 Alpha  occ. eigenvalues --   -0.40885  -0.40842  -0.40720  -0.40695  -0.40588
 Alpha  occ. eigenvalues --   -0.40492  -0.40250  -0.40221  -0.39458  -0.39427
 Alpha  occ. eigenvalues --   -0.38485  -0.38350  -0.37764  -0.37648  -0.37337
 Alpha  occ. eigenvalues --   -0.37279  -0.37265  -0.37195  -0.36763  -0.36727
 Alpha  occ. eigenvalues --   -0.36214  -0.36208  -0.34302  -0.34251  -0.33854
 Alpha  occ. eigenvalues --   -0.33785  -0.33202  -0.33173  -0.31364  -0.31274
 Alpha  occ. eigenvalues --   -0.31052  -0.30971  -0.30043  -0.29950  -0.29466
 Alpha  occ. eigenvalues --   -0.29338  -0.29326  -0.29209  -0.24097  -0.24034
 Alpha  occ. eigenvalues --   -0.21144  -0.21115
 Alpha virt. eigenvalues --   -0.08791  -0.08790  -0.01766  -0.01682  -0.00075
 Alpha virt. eigenvalues --   -0.00027   0.02185   0.02210   0.03105   0.03228
 Alpha virt. eigenvalues --    0.04702   0.04733   0.05084   0.05174   0.06163

 Mulliken charges:
               1
     1  Mg   0.838761
     2  C   -0.002970
     3  C   -0.094117
     4  C   -0.045885
     5  C   -0.063954
     6  N   -0.256779
     7  C   -0.052460
     8  C   -0.014010
     9  C   -0.086998
    10  C    0.046298
    11  C    0.104806
    12  C    0.053467
    13  C   -0.071802
    14  H    0.036125
    15  N   -0.433144
    16  C    0.168389
    17  C   -0.177173
    18  C   -0.004038
    19  C    0.148708
    20  C    0.110178
    21  C    0.012252
    22  O   -0.249651
    23  C    0.062495
    24  N   -0.341153
    25  C    0.041240
    26  C   -0.028163
    27  C   -0.024001
    28  C    0.074844
    29  C    0.076168
    30  C    0.035127
    31  C   -0.004495
    32  N   -0.310488
    33  C    0.080423
    34  C   -0.169694
    35  C    0.008391
    36  C    0.082957
    37  C    0.127309
    38  C    0.046126
    39  O   -0.188368
    40  C   -0.005323
    41  C    0.212880
    42  O   -0.257129
    43  O   -0.304783
    44  C    0.157688
    45  H   -0.017597
    46  H   -0.016856
    47  H   -0.041462
    48  H    0.000972
    49  H   -0.004042
    50  H    0.025498
    51  H    0.016449
    52  H    0.016677
    53  H    0.011163
    54  H    0.044114
    55  H    0.017910
    56  H    0.017932
    57  H    0.005884
    58  H    0.026830
    59  H    0.039485
    60  H    0.037371
    61  H    0.035600
    62  H    0.031441
    63  H    0.016517
    64  H    0.009497
    65  H    0.023199
    66  H    0.012559
    67  H    0.004781
    68  H    0.006370
    69  H    0.004770
    70  H    0.008737
    71  H    0.018140
    72  H    0.028965
    73  H    0.047608
    74  H    0.009125
    75  H    0.046048
    76  H    0.035188
    77  H    0.043000
    78  H    0.046391
    79  H    0.053682
    80  Mg   0.837808
    81  C   -0.016841
    82  C   -0.087793
    83  C   -0.045528
    84  C   -0.064895
    85  N   -0.254570
    86  C   -0.049810
    87  C   -0.015111
    88  C   -0.090491
    89  C    0.045753
    90  C    0.114370
    91  C    0.062539
    92  C   -0.077937
    93  H    0.034950
    94  N   -0.423494
    95  C    0.162930
    96  C   -0.174623
    97  C   -0.007822
    98  C    0.152115
    99  C    0.099363
   100  C    0.015560
   101  O   -0.253209
   102  C    0.061207
   103  N   -0.350058
   104  C    0.037515
   105  C   -0.019835
   106  C   -0.034807
   107  C    0.088923
   108  C    0.073665
   109  C    0.034734
   110  C   -0.007679
   111  N   -0.324101
   112  C    0.078450
   113  C   -0.163133
   114  C    0.002263
   115  C    0.096201
   116  C    0.131489
   117  C    0.042392
   118  O   -0.187784
   119  C    0.000931
   120  C    0.211271
   121  O   -0.251047
   122  O   -0.305596
   123  C    0.152006
   124  H   -0.019638
   125  H   -0.015594
   126  H   -0.040463
   127  H   -0.000555
   128  H   -0.004309
   129  H    0.022513
   130  H    0.014392
   131  H    0.016347
   132  H    0.013874
   133  H    0.037677
   134  H    0.020888
   135  H    0.019572
   136  H    0.008779
   137  H    0.026136
   138  H    0.039777
   139  H    0.038250
   140  H    0.036376
   141  H    0.033891
   142  H    0.014387
   143  H    0.012413
   144  H    0.025123
   145  H    0.011643
   146  H    0.005666
   147  H    0.006248
   148  H    0.003656
   149  H    0.010923
   150  H    0.017931
   151  H    0.030117
   152  H    0.046032
   153  H    0.008493
   154  H    0.046972
   155  H    0.035103
   156  H    0.044028
   157  H    0.049521
   158  H    0.053560
 Sum of Mulliken charges =  -0.00000

 Dipole moment (field-independent basis, Debye):
    X=              4.3892    Y=              6.4060    Z=             -3.9208  Tot=              8.6991
 Quadrupole moment (field-independent basis, Debye-Ang):
   XX=           -502.1441   YY=           -564.6115   ZZ=           -459.8539
   XY=             -0.6760   XZ=            -59.5410   YZ=             -3.5874

 Normal termination of Gaussian 16 at Sun Sep 12 17:31:16 2021.
