 Gaussian 16, Revision A.03,
 Gaussian 16:  ES64L-G16RevA.03 25-Dec-2016

 -----------------------------------
 #p cam-b3lyp/Def2SVP td=(nstates=5)
 -----------------------------------

 --------------------------------
 TDDFT excited states in gaussian
 --------------------------------
 Symbolic Z-matrix:
 Charge =  0 Multiplicity = 1

                         Standard orientation:
 ---------------------------------------------------------------------
 Center     Atomic      Atomic             Coordinates (Angstroms)
 Number     Number       Type             X           Y           Z
 ---------------------------------------------------------------------
      1         12           0       -6.505178   -0.761140   -0.103699
      2          6           0       -6.806166    1.976547    2.182496
      3          6           0       -7.365892    1.413186   -2.588562
      4          6           0       -6.689767   -3.245976   -2.065367
      5          6           0       -6.787671   -2.891255    2.640106
      6          7           0       -6.997634    1.397010   -0.080860
      7          6           0       -7.018413    2.343988    0.851863
      8          6           0       -7.212307    3.777338    0.272825
      9          6           0       -7.929046    3.399306   -1.100265
     10          6           0       -7.371248    1.999480   -1.288077
     11          6           0       -9.447915    3.312228   -0.990907
     12          6           0       -5.849699    4.508030    0.025601
     13          6           0       -5.952792    6.014997   -0.226938
     14          1           0       -4.903299    6.884025    0.283652
     15          7           0       -6.480969   -0.839750   -2.077549
     16          6           0       -6.849601    0.144929   -2.931835
     17          6           0       -6.650770   -0.399991   -4.292059
     18          6           0       -6.317228   -1.845370   -4.158935
     19          6           0       -6.510858   -2.043514   -2.745208
     20          6           0       -6.733393    0.434775   -5.533062
     21          6           0       -5.901694   -2.885758   -5.150427
     22          8           0       -5.886210   -4.131459   -4.863090
     23          6           0       -5.594085   -2.410440   -6.511490
     24          7           0       -6.928964   -2.782354    0.200827
     25          6           0       -6.886062   -3.656426   -0.810677
     26          6           0       -6.943092   -5.070378   -0.313258
     27          6           0       -6.788760   -4.987215    1.273884
     28          6           0       -6.749629   -3.446643    1.426778
     29          6           0       -8.217548   -5.851573   -0.661836
     30          6           0       -5.650887   -5.821121    1.914402
     31          6           0       -4.308520   -5.263235    1.497375
     32          7           0       -6.575735   -0.535530    2.053884
     33          6           0       -6.718682   -1.556880    3.004191
     34          6           0       -6.823061   -0.907542    4.323863
     35          6           0       -6.749751    0.456027    4.046104
     36          6           0       -6.634916    0.647360    2.639513
     37          6           0       -7.023419   -1.571879    5.566017
     38          6           0       -6.766490    1.796766    4.608237
     39          8           0       -6.750050    2.258552    5.750155
     40          6           0       -6.926282    2.838603    3.414558
     41          6           0       -5.902603    3.922298    3.617031
     42          8           0       -4.683107    3.677280    3.516223
     43          8           0       -6.518910    5.113426    3.660856
     44          6           0       -5.556858    6.234957    3.830503
     45          1           0       -7.852607    1.944225   -3.408956
     46          1           0       -6.648122   -4.136476   -2.696011
     47          1           0       -6.792802   -3.494905    3.549520
     48          1           0       -7.860371    4.423153    0.865581
     49          1           0       -7.610862    4.046762   -1.917138
     50          1           0       -9.778385    3.397898    0.044163
     51          1           0       -9.713343    2.335392   -1.395669
     52          1           0       -9.925752    4.045763   -1.640811
     53          1           0       -5.438307    4.187251   -0.931435
     54          1           0       -5.159677    4.327089    0.850498
     55          1           0       -6.935050    6.399192    0.049600
     56          1           0       -5.887514    6.186489   -1.301429
     57          1           0       -7.156378    1.417290   -5.327410
     58          1           0       -7.460804   -0.042086   -6.189711
     59          1           0       -5.772297    0.509680   -6.041999
     60          1           0       -6.470820   -1.911761   -6.925259
     61          1           0       -5.229721   -3.279407   -7.058286
     62          1           0       -4.810553   -1.654410   -6.452799
     63          1           0       -6.124421   -5.661773   -0.721250
     64          1           0       -7.688051   -5.323532    1.790450
     65          1           0       -8.028871   -6.775683   -1.208760
     66          1           0       -8.874413   -5.190285   -1.226209
     67          1           0       -8.846182   -6.104855    0.191443
     68          1           0       -5.692738   -6.851847    1.563974
     69          1           0       -5.691265   -5.839227    3.003573
     70          1           0       -4.142321   -5.728904    0.526621
     71          1           0       -3.536481   -5.557800    2.208993
     72          1           0       -4.357316   -4.185890    1.337899
     73          1           0       -6.348556   -1.097146    6.278166
     74          1           0       -6.822378   -2.639565    5.480984
     75          1           0       -8.077630   -1.358162    5.741573
     76          1           0       -7.944643    3.222332    3.467621
     77          1           0       -5.866242    6.792257    4.714772
     78          1           0       -5.531390    6.767853    2.879831
     79          1           0       -4.538662    5.958975    4.106997
     80         12           0        6.713582   -0.517457    0.187864
     81          6           0        5.921280    1.894837   -2.348307
     82          6           0        8.365328    1.973870    1.830924
     83          6           0        7.806998   -2.708532    2.205563
     84          6           0        6.012559   -3.002611   -2.152700
     85          7           0        7.031379    1.617163   -0.296573
     86          6           0        6.631014    2.437087   -1.256663
     87          6           0        6.943110    3.934971   -0.994931
     88          6           0        8.177700    3.750400    0.015304
     89          6           0        7.825321    2.377259    0.583624
     90          6           0        9.520610    3.645838   -0.688270
     91          6           0        5.746842    4.683840   -0.309271
     92          6           0        5.861188    6.209841   -0.304806
     93          1           0        4.641398    6.999641   -0.448975
     94          7           0        7.481053   -0.318812    2.007236
     95          6           0        8.095098    0.769465    2.517007
     96          6           0        8.496289    0.401789    3.883763
     97          6           0        8.215488   -1.046224    4.081543
     98          6           0        7.834594   -1.427033    2.736183
     99          6           0        9.009039    1.402498    4.878299
    100          6           0        8.291166   -1.942936    5.280037
    101          8           0        8.231148   -3.218642    5.171379
    102          6           0        8.531256   -1.288393    6.574420
    103          7           0        7.091096   -2.552392   -0.009267
    104          6           0        7.513185   -3.281884    1.038400
    105          6           0        7.451879   -4.759733    0.734145
    106          6           0        6.669255   -4.880209   -0.655304
    107          6           0        6.483642   -3.380021   -0.972098
    108          6           0        8.799489   -5.472363    0.622342
    109          6           0        5.418848   -5.801351   -0.681166
    110          6           0        4.323283   -5.208496    0.175368
    111          7           0        5.906297   -0.584493   -1.815096
    112          6           0        5.721274   -1.728254   -2.622336
    113          6           0        5.253412   -1.258373   -3.942460
    114          6           0        5.220456    0.138727   -3.817971
    115          6           0        5.657594    0.514229   -2.518968
    116          6           0        4.971198   -2.083875   -5.067191
    117          6           0        4.925432    1.381813   -4.493556
    118          8           0        4.436448    1.684605   -5.581192
    119          6           0        5.486654    2.580697   -3.613732
    120          6           0        4.408976    3.624919   -3.510090
    121          8           0        3.347987    3.380725   -2.909025
    122          8           0        4.893065    4.802441   -3.945372
    123          6           0        3.864319    5.872364   -3.851756
    124          1           0        9.098764    2.621225    2.312485
    125          1           0        8.069694   -3.511432    2.898240
    126          1           0        5.678575   -3.720746   -2.904636
    127          1           0        7.257871    4.492814   -1.868723
    128          1           0        8.162377    4.502957    0.799388
    129          1           0        9.410334    3.594214   -1.761268
    130          1           0        9.980612    2.741780   -0.311284
    131          1           0       10.173085    4.467458   -0.379190
    132          1           0        5.774982    4.490160    0.770746
    133          1           0        4.812789    4.392748   -0.749085
    134          1           0        6.634368    6.567271   -0.995727
    135          1           0        6.213105    6.528576    0.679363
    136          1           0        9.262958    2.354717    4.396415
    137          1           0        9.966753    1.022220    5.249818
    138          1           0        8.331853    1.541035    5.723810
    139          1           0        9.465540   -0.733702    6.530805
    140          1           0        8.463696   -2.082569    7.320479
    141          1           0        7.736920   -0.553803    6.747671
    142          1           0        6.895485   -5.289055    1.497913
    143          1           0        7.309488   -5.292166   -1.449181
    144          1           0        8.900986   -6.325903    1.318928
    145          1           0        9.584210   -4.747257    0.792536
    146          1           0        9.042696   -5.847260   -0.370387
    147          1           0        5.657588   -6.776166   -0.248863
    148          1           0        5.032826   -5.977664   -1.679613
    149          1           0        4.591609   -5.539367    1.183139
    150          1           0        3.351581   -5.597511   -0.122147
    151          1           0        4.365519   -4.113154    0.165857
    152          1           0        4.050171   -1.716400   -5.499828
    153          1           0        4.887300   -3.130290   -4.781288
    154          1           0        5.859453   -1.894589   -5.675829
    155          1           0        6.379539    2.961822   -4.110795
    156          1           0        3.765618    6.308941   -4.850435
    157          1           0        4.203804    6.543030   -3.040145
    158          1           0        2.843202    5.569692   -3.651382
 ---------------------------------------------------------------------

 SCF Done:  E(RCAM-B3LYP) =  -4069.81186836     A.U. after   19 cycles

 Excitation energies and oscillator strengths:

 Excited State   1:      Singlet-A      1.6664 eV  744.03 nm  f=0.0464  <S**2>=0.000
     309 -> 315        0.13386
     310 -> 316        0.10731
     311 -> 313        0.53637
     312 -> 314        0.42864
 This state for optimization and/or second-order correction.
 Total Energy, E(TD-HF/TD-DFT) =  -4069.75062957
 Copying the excited state density for this state as the 1-particle RhoCI density.

 Excited State   2:      Singlet-A      1.6889 eV  734.12 nm  f=0.7039  <S**2>=0.000
     309 -> 315       -0.11053
     310 -> 316        0.13892
     311 -> 313       -0.42778
     312 -> 314        0.53523

 Excited State   3:      Singlet-A      2.1851 eV  567.41 nm  f=0.0418  <S**2>=0.000
     309 -> 313        0.61172
     310 -> 314       -0.19837
     311 -> 315       -0.25897

 Excited State   4:      Singlet-A      2.1936 eV  565.22 nm  f=0.1470  <S**2>=0.000
     309 -> 313        0.19682
     310 -> 314        0.60935
     312 -> 316       -0.26534

 Excited State   5:      Singlet-A      2.6718 eV  464.05 nm  f=0.0000  <S**2>=0.000
     312 -> 313        0.70704

 The electronic state is 1-A.
 Alpha  occ. eigenvalues --  -46.87579 -46.87567 -19.26334 -19.26111 -19.19129
 Alpha  occ. eigenvalues --  -19.18829 -19.18627 -19.18577 -19.18010 -19.17972
 Alpha  occ. eigenvalues --  -14.42419 -14.42225 -14.41283 -14.41231 -14.39271
 Alpha  occ. eigenvalues --  -14.39171 -14.38524 -14.38364 -10.39057 -10.38889
 Alpha  occ. eigenvalues --  -10.35303 -10.35208 -10.34193 -10.34187 -10.31765
 Alpha  occ. eigenvalues --  -10.31530 -10.31239 -10.31189 -10.30946 -10.30679
 Alpha  occ. eigenvalues --  -10.30350 -10.30323 -10.30289 -10.30289 -10.30060
 Alpha  occ. eigenvalues --  -10.29987 -10.29824 -10.29716 -10.29409 -10.29356
 Alpha  occ. eigenvalues --  -10.29326 -10.29026 -10.28649 -10.28586 -10.28528
 Alpha  occ. eigenvalues --  -10.28331 -10.28323 -10.28139 -10.28073 -10.27931
 Alpha  occ. eigenvalues --  -10.27903 -10.27593 -10.27573 -10.27504 -10.27443
 Alpha  occ. eigenvalues --  -10.27411 -10.27388 -10.27375 -10.27354 -10.27314
 Alpha  occ. eigenvalues --  -10.27305 -10.27266 -10.27217 -10.27184 -10.27005
 Alpha  occ. eigenvalues --  -10.26961 -10.26608 -10.26459 -10.26313 -10.26136
 Alpha  occ. eigenvalues --  -10.26055 -10.26043 -10.26009 -10.25971 -10.25858
 Alpha  occ. eigenvalues --  -10.25804 -10.25802 -10.25661 -10.25337 -10.25270
 Alpha  occ. eigenvalues --  -10.24805 -10.24634 -10.24616 -10.24616 -10.24572
 Alpha  occ. eigenvalues --  -10.24504  -3.16329  -3.16309  -1.91211  -1.91190
 Alpha  occ. eigenvalues --   -1.90800  -1.90777  -1.90636  -1.90619  -1.16624
 Alpha  occ. eigenvalues --   -1.16456  -1.08621  -1.08433  -1.06978  -1.06916
 Alpha  occ. eigenvalues --   -1.06878  -1.06454  -1.04419  -1.04357  -1.03586
 Alpha  occ. eigenvalues --   -1.03541  -1.03011  -1.02963  -1.02190  -1.02036
 Alpha  occ. eigenvalues --   -0.91922  -0.91759  -0.89420  -0.89317  -0.89081
 Alpha  occ. eigenvalues --   -0.88970  -0.88146  -0.88089  -0.87730  -0.87662
 Alpha  occ. eigenvalues --   -0.87609  -0.87452  -0.87035  -0.87032  -0.84928
 Alpha  occ. eigenvalues --   -0.84763  -0.83805  -0.83746  -0.82846  -0.82731
 Alpha  occ. eigenvalues --   -0.82581  -0.82431  -0.81550  -0.81391  -0.80384
 Alpha  occ. eigenvalues --   -0.80381  -0.78567  -0.78559  -0.77073  -0.77008
 Alpha  occ. eigenvalues --   -0.76839  -0.76733  -0.75782  -0.75720  -0.74738
 Alpha  occ. eigenvalues --   -0.74705  -0.72628  -0.72561  -0.71515  -0.71466
 Alpha  occ. eigenvalues --   -0.69717  -0.69679  -0.68757  -0.68655  -0.67532
 Alpha  occ. eigenvalues --   -0.67424  -0.67121  -0.66989  -0.65205  -0.65070
 Alpha  occ. eigenvalues --   -0.64704  -0.64646  -0.64592  -0.64415  -0.64132
 Alpha  occ. eigenvalues --   -0.64067  -0.62235  -0.62108  -0.60259  -0.60213
 Alpha  occ. eigenvalues --   -0.59726  -0.59585  -0.58924  -0.58777  -0.58361
 Alpha  occ. eigenvalues --   -0.58293  -0.57508  -0.57386  -0.57166  -0.57101
 Alpha  occ. eigenvalues --   -0.56138  -0.56095  -0.55841  -0.55787  -0.55387
 Alpha  occ. eigenvalues --   -0.55298  -0.55187  -0.55150  -0.54432  -0.54335
 Alpha  occ. eigenvalues --   -0.53842  -0.53676  -0.53157  -0.53083  -0.53076
 Alpha  occ. eigenvalues --   -0.52997  -0.52840  -0.52709  -0.52584  -0.52518
 Alpha  occ. eigenvalues --   -0.52322  -0.52249  -0.51830  -0.51719  -0.51585
 Alpha  occ. eigenvalues --   -0.51390  -0.51142  -0.50993  -0.50385  -0.50318
 Alpha  occ. eigenvalues --   -0.49904  -0.49830  -0.49793  -0.49688  -0.49412
 Alpha  occ. eigenvalues --   -0.49293  -0.49138  -0.49046  -0.49000  -0.48890
 Alpha  occ. eigenvalues --   -0.48503  -0.48394  -0.48316  -0.48266  -0.48261
 Alpha  occ. eigenvalues --   -0.48219  -0.47526  -0.47480  -0.47082  -0.47048
 Alpha  occ. eigenvalues --   -0.46639  -0.46589  -0.46483  -0.46338  -0.46201
 Alpha  occ. eigenvalues --   -0.46146  -0.46025  -0.45964  -0.45774  -0.45631
 Alpha  occ. eigenvalues --   -0.45140  -0.45006  -0.44458  -0.44405  -0.44379
 Alpha  occ. eigenvalues --   -0.44283  -0.44066  -0.44006  -0.43935  -0.43881
 Alpha  occ. eigenvalues --   -0.43868  -0.43801  -0.43509  -0.43320  -0.43301
 Alpha  occ. eigenvalues --   -0.43173  -0.42891  -0.42843  -0.42821  -0.42512
 Alpha  occ. eigenvalues --   -0.42475  -0.42465  -0.41889  -0.41809  -0.41609
 Alpha  occ. eigenvalues --   -0.41496  -0.41386  -0.41319  -0.40933  -0.40923
 Alpha  occ. eigenvalues --   -0.40658  -0.40644  -0.40618  -0.40585  -0.40422
 Alpha  occ. eigenvalues --   -0.40374  -0.40147  -0.40001  -0.39344  -0.39251
 Alpha  occ. eigenvalues --   -0.38277  -0.38270  -0.37581  -0.37527  -0.37192
 Alpha  occ. eigenvalues --   -0.37126  -0.37115  -0.37041  -0.36735  -0.36525
 Alpha  occ. eigenvalues --   -0.36154  -0.35993  -0.34180  -0.34067  -0.33821
 Alpha  occ. eigenvalues --   -0.33573  -0.33102  -0.32968  -0.31187  -0.31109
 Alpha  occ. eigenvalues --   -0.30899  -0.30817  -0.29916  -0.29833  -0.29249
 Alpha  occ. eigenvalues --   -0.29219  -0.29142  -0.29102  -0.23961  -0.23859
 Alpha  occ. eigenvalues --   -0.21041  -0.20906
 Alpha virt. eigenvalues --   -0.08717  -0.08550  -0.01606  -0.01527   0.00050
 Alpha virt. eigenvalues --    0.00174   0.02268   0.02408   0.03353   0.03413
 Alpha virt. eigenvalues --    0.04802   0.04935   0.05200   0.05290   0.06246

 Mulliken charges:
               1
     1  Mg   0.840034
     2  C   -0.002647
     3  C   -0.093481
     4  C   -0.045936
     5  C   -0.064159
     6  N   -0.256753
     7  C   -0.052350
     8  C   -0.014240
     9  C   -0.087175
    10  C    0.046741
    11  C    0.104905
    12  C    0.053307
    13  C   -0.071523
    14  H    0.035588
    15  N   -0.433160
    16  C    0.169067
    17  C   -0.176477
    18  C   -0.003623
    19  C    0.149037
    20  C    0.110106
    21  C    0.012730
    22  O   -0.250155
    23  C    0.062055
    24  N   -0.341165
    25  C    0.041330
    26  C   -0.028094
    27  C   -0.023842
    28  C    0.074773
    29  C    0.076327
    30  C    0.035234
    31  C   -0.004472
    32  N   -0.310345
    33  C    0.080323
    34  C   -0.170017
    35  C    0.008069
    36  C    0.083090
    37  C    0.127379
    38  C    0.045935
    39  O   -0.189299
    40  C   -0.005347
    41  C    0.212614
    42  O   -0.256588
    43  O   -0.304921
    44  C    0.157952
    45  H   -0.017748
    46  H   -0.017151
    47  H   -0.041995
    48  H    0.000396
    49  H   -0.003802
    50  H    0.025169
    51  H    0.016307
    52  H    0.016345
    53  H    0.012657
    54  H    0.044548
    55  H    0.017172
    56  H    0.018155
    57  H    0.005795
    58  H    0.026345
    59  H    0.041330
    60  H    0.036944
    61  H    0.035396
    62  H    0.033407
    63  H    0.016358
    64  H    0.009041
    65  H    0.022841
    66  H    0.012492
    67  H    0.004412
    68  H    0.005793
    69  H    0.004462
    70  H    0.008481
    71  H    0.017841
    72  H    0.029772
    73  H    0.047167
    74  H    0.008845
    75  H    0.045538
    76  H    0.034715
    77  H    0.042245
    78  H    0.046401
    79  H    0.053498
    80  Mg   0.838811
    81  C   -0.016662
    82  C   -0.087605
    83  C   -0.045440
    84  C   -0.064839
    85  N   -0.254585
    86  C   -0.049738
    87  C   -0.015263
    88  C   -0.090585
    89  C    0.046010
    90  C    0.114424
    91  C    0.062447
    92  C   -0.077802
    93  H    0.034691
    94  N   -0.423504
    95  C    0.163307
    96  C   -0.174435
    97  C   -0.007581
    98  C    0.152352
    99  C    0.099374
   100  C    0.015889
   101  O   -0.253212
   102  C    0.061003
   103  N   -0.350111
   104  C    0.037616
   105  C   -0.019840
   106  C   -0.034769
   107  C    0.088914
   108  C    0.073723
   109  C    0.034732
   110  C   -0.007741
   111  N   -0.324058
   112  C    0.078473
   113  C   -0.163198
   114  C    0.001868
   115  C    0.096429
   116  C    0.131548
   117  C    0.042238
   118  O   -0.188981
   119  C    0.000937
   120  C    0.210847
   121  O   -0.250580
   122  O   -0.305669
   123  C    0.152339
   124  H   -0.019734
   125  H   -0.015586
   126  H   -0.040540
   127  H   -0.001050
   128  H   -0.004195
   129  H    0.022236
   130  H    0.014383
   131  H    0.016134
   132  H    0.014689
   133  H    0.038008
   134  H    0.020310
   135  H    0.019810
   136  H    0.008731
   137  H    0.025986
   138  H    0.040440
   139  H    0.038049
   140  H    0.036463
   141  H    0.034579
   142  H    0.014506
   143  H    0.012187
   144  H    0.025057
   145  H    0.011530
   146  H    0.005508
   147  H    0.006022
   148  H    0.003671
   149  H    0.010862
   150  H    0.018164
   151  H    0.030497
   152  H    0.045493
   153  H    0.008725
   154  H    0.046584
   155  H    0.034708
   156  H    0.043102
   157  H    0.049716
   158  H    0.053184
 Sum of Mulliken charges =  -0.00000

 Dipole moment (field-independent basis, Debye):
    X=              1.3067    Y=              3.0930    Z=             -1.5071  Tot=              3.6804
 Quadrupole moment (field-independent basis, Debye-Ang):
   XX=           -454.2416   YY=           -461.2182   ZZ=           -539.4157
   XY=             14.2261   XZ=             35.9030   YZ=             -7.5919

 Normal termination of Gaussian 16 at Sat Sep 11 07:57:13 2021.
