 Gaussian 16, Revision A.03,
 Gaussian 16:  ES64L-G16RevA.03 25-Dec-2016

 -----------------------------------
 #p cam-b3lyp/Def2SVP td=(nstates=5)
 -----------------------------------

 --------------------------------
 TDDFT excited states in gaussian
 --------------------------------
 Symbolic Z-matrix:
 Charge =  0 Multiplicity = 1

                         Standard orientation:
 ---------------------------------------------------------------------
 Center     Atomic      Atomic             Coordinates (Angstroms)
 Number     Number       Type             X           Y           Z
 ---------------------------------------------------------------------
      1         12           0        4.987798   -1.008974    0.026379
      2          6           0        5.408123    1.971243   -1.911106
      3          6           0        5.979334    0.797420    2.746096
      4          6           0        5.062489   -3.722613    1.665649
      5          6           0        5.137974   -2.796187   -2.961761
      6          7           0        5.589244    1.108534    0.261044
      7          6           0        5.650196    2.161008   -0.548742
      8          6           0        5.921749    3.500749    0.198738
      9          6           0        6.630065    2.921459    1.504384
     10          6           0        6.003374    1.538472    1.527369
     11          6           0        8.141539    2.773508    1.362757
     12          6           0        4.600267    4.261908    0.553779
     13          6           0        4.782088    5.719327    0.987627
     14          1           0        3.773846    6.695469    0.602991
     15          7           0        4.976542   -1.328858    1.975839
     16          6           0        5.402124   -0.476368    2.938869
     17          6           0        5.187485   -1.174203    4.224808
     18          6           0        4.779681   -2.573895    3.920416
     19          6           0        4.950847   -2.605698    2.490357
     20          6           0        5.323125   -0.503796    5.557439
     21          6           0        4.320250   -3.706670    4.782898
     22          8           0        4.238920   -4.905182    4.345258
     23          6           0        4.048912   -3.388021    6.196362
     24          7           0        5.305534   -2.995742   -0.529888
     25          6           0        5.226874   -3.984568    0.367341
     26          6           0        5.207598   -5.327547   -0.300472
     27          6           0        5.044097   -5.041961   -1.862989
     28          6           0        5.082117   -3.494253   -1.825252
     29          6           0        6.443583   -6.207800   -0.069162
     30          6           0        3.859806   -5.733304   -2.584043
     31          6           0        2.551198   -5.165343   -2.081984
     32          7           0        5.051245   -0.523048   -2.088071
     33          6           0        5.133871   -1.425357   -3.158438
     34          6           0        5.259845   -0.624352   -4.389937
     35          6           0        5.258415    0.696556   -3.946040
     36          6           0        5.165532    0.718591   -2.525062
     37          6           0        5.415475   -1.139692   -5.706994
     38          6           0        5.338552    2.093853   -4.339735
     39          8           0        5.335848    2.693042   -5.416052
     40          6           0        5.561392    2.971512   -3.029817
     41          6           0        4.592497    4.121186   -3.082755
     42          8           0        3.363021    3.926229   -2.994750
     43          8           0        5.268232    5.276691   -2.989307
     44          6           0        4.363090    6.456774   -3.005942
     45          1           0        6.499462    1.198621    3.618131
     46          1           0        4.980982   -4.680864    2.182900
     47          1           0        5.104578   -3.282714   -3.938300
     48          1           0        6.596737    4.181822   -0.319871
     49          1           0        6.352261    3.478287    2.399085
     50          1           0        8.467055    2.969591    0.341233
     51          1           0        8.360366    1.742326    1.640735
     52          1           0        8.661646    3.396854    2.090565
     53          1           0        4.181302    3.846412    1.470236
     54          1           0        3.894883    4.218316   -0.276798
     55          1           0        5.780219    6.085611    0.745804
     56          1           0        4.734836    5.760159    2.075882
     57          1           0        5.793790    0.474439    5.467577
     58          1           0        6.030925   -1.093306    6.139853
     59          1           0        4.371486   -0.444720    6.085857
     60          1           0        4.953406   -2.988089    6.655157
     61          1           0        3.645493   -4.298638    6.637813
     62          1           0        3.304400   -2.592701    6.242385
     63          1           0        4.363416   -5.923482    0.043979
     64          1           0        5.920643   -5.356138   -2.430117
     65          1           0        6.212813   -7.181778    0.363060
     66          1           0        7.138069   -5.654379    0.562269
     67          1           0        7.051172   -6.384812   -0.956247
     68          1           0        3.852145   -6.800148   -2.363289
     69          1           0        3.889871   -5.619067   -3.667693
     70          1           0        2.369842   -5.738262   -1.173301
     71          1           0        1.759095   -5.331451   -2.812869
     72          1           0        2.656130   -4.119593   -1.792360
     73          1           0        4.759567   -0.548052   -6.345520
     74          1           0        5.161088   -2.198462   -5.750547
     75          1           0        6.477653   -0.958376   -5.870572
     76          1           0        6.597470    3.308018   -3.050465
     77          1           0        4.692845    7.102778   -3.819683
     78          1           0        4.372929    6.869096   -1.996834
     79          1           0        3.329834    6.267653   -3.299120
     80         12           0       -5.570757   -0.261724   -0.027699
     81          6           0       -3.085056    1.951509    1.314669
     82          6           0       -7.873491    2.167358    0.629232
     83          6           0       -7.839616   -2.347342   -0.782599
     84          6           0       -3.319423   -2.873292    0.479196
     85          7           0       -5.381263    1.756037    0.858296
     86          6           0       -4.377860    2.514046    1.274165
     87          6           0       -4.769789    3.981802    1.593019
     88          6           0       -6.331426    3.754487    1.890482
     89          6           0       -6.560822    2.501310    1.048121
     90          6           0       -6.624218    3.414286    3.342335
     91          6           0       -4.551590    4.938237    0.368428
     92          6           0       -4.618971    6.431018    0.698326
     93          1           0       -3.738806    7.344211   -0.025458
     94          7           0       -7.468851    0.030484   -0.528137
     95          6           0       -8.245305    1.082994   -0.195538
     96          6           0       -9.564014    0.813665   -0.789369
     97          6           0       -9.549705   -0.560770   -1.359837
     98          6           0       -8.264162   -1.030481   -0.883558
     99          6           0      -10.655444    1.842624   -0.848135
    100          6           0      -10.536066   -1.330156   -2.185266
    101          8           0      -10.420201   -2.593362   -2.368877
    102          6           0      -11.692323   -0.578408   -2.694619
    103          7           0       -5.663688   -2.336878    0.058579
    104          6           0       -6.748518   -2.999143   -0.380137
    105          6           0       -6.480357   -4.482120   -0.476382
    106          6           0       -4.907587   -4.650518   -0.240535
    107          6           0       -4.536793   -3.180144    0.052570
    108          6           0       -7.240573   -5.361407    0.516257
    109          6           0       -4.109144   -5.410052   -1.335195
    110          6           0       -4.088006   -4.602075   -2.612731
    111          7           0       -3.503928   -0.438318    0.576517
    112          6           0       -2.764442   -1.628890    0.749103
    113          6           0       -1.439824   -1.245696    1.279176
    114          6           0       -1.509207    0.150324    1.400868
    115          6           0       -2.793852    0.603112    0.995669
    116          6           0       -0.390335   -2.143372    1.623945
    117          6           0       -0.791463    1.342842    1.790031
    118          8           0        0.364258    1.587928    2.133510
    119          6           0       -1.822803    2.549542    1.871187
    120          6           0       -1.223580    3.722374    1.144624
    121          8           0       -1.029131    3.673296   -0.082727
    122          8           0       -1.181355    4.780289    1.974927
    123          6           0       -0.604815    5.971494    1.296356
    124          1           0       -8.704926    2.767161    1.000499
    125          1           0       -8.548237   -3.099653   -1.136657
    126          1           0       -2.527652   -3.619819    0.571146
    127          1           0       -4.282769    4.402980    2.464336
    128          1           0       -6.929386    4.580914    1.515196
    129          1           0       -5.718830    3.264917    3.911631
    130          1           0       -7.210740    2.505170    3.318926
    131          1           0       -7.269611    4.177988    3.785694
    132          1           0       -5.412265    4.856223   -0.307769
    133          1           0       -3.625288    4.718889   -0.126022
    134          1           0       -4.562576    6.617579    1.777663
    135          1           0       -5.605062    6.805343    0.412800
    136          1           0      -10.433901    2.701331   -0.202431
    137          1           0      -11.546704    1.389284   -0.400904
    138          1           0      -10.889968    2.150027   -1.869485
    139          1           0      -12.240507   -0.149294   -1.859270
    140          1           0      -12.235718   -1.276293   -3.334589
    141          1           0      -11.326324    0.261530   -3.295592
    142          1           0       -6.730156   -4.857171   -1.461283
    143          1           0       -4.691559   -5.217910    0.676651
    144          1           0       -7.851558   -6.143644    0.027523
    145          1           0       -7.860961   -4.723564    1.131745
    146          1           0       -6.620719   -5.864574    1.256400
    147          1           0       -4.600608   -6.356284   -1.574492
    148          1           0       -3.089852   -5.641122   -1.044275
    149          1           0       -5.043444   -4.856301   -3.081338
    150          1           0       -3.249579   -4.898659   -3.239729
    151          1           0       -4.101517   -3.527042   -2.398773
    152          1           0        0.525533   -1.713509    1.240663
    153          1           0       -0.566005   -3.136209    1.215085
    154          1           0       -0.470999   -2.128231    2.714142
    155          1           0       -1.992402    2.765107    2.926813
    156          1           0        0.237859    6.310330    1.906923
    157          1           0       -1.446804    6.676711    1.164200
    158          1           0       -0.123203    5.818054    0.337728
 ---------------------------------------------------------------------

 SCF Done:  E(RCAM-B3LYP) =  -4069.81120257     A.U. after   19 cycles

 Excitation energies and oscillator strengths:

 Excited State   1:      Singlet-A      1.6643 eV  744.99 nm  f=0.3187  <S**2>=0.000
     309 -> 315        0.13704
     310 -> 316        0.10073
     311 -> 313        0.55059
     312 -> 314        0.41037
 This state for optimization and/or second-order correction.
 Total Energy, E(TD-HF/TD-DFT) =  -4069.75004248
 Copying the excited state density for this state as the 1-particle RhoCI density.

 Excited State   2:      Singlet-A      1.6870 eV  734.94 nm  f=0.4680  <S**2>=0.000
     309 -> 315       -0.10520
     310 -> 316        0.14105
     311 -> 313       -0.40950
     312 -> 314        0.54944

 Excited State   3:      Singlet-A      2.1790 eV  569.01 nm  f=0.0052  <S**2>=0.000
     309 -> 313        0.51590
     310 -> 314       -0.38748
     311 -> 315       -0.21481
     312 -> 316        0.15959

 Excited State   4:      Singlet-A      2.1923 eV  565.54 nm  f=0.1712  <S**2>=0.000
     309 -> 313        0.38396
     310 -> 314        0.51169
     311 -> 315       -0.16640
     312 -> 316       -0.22280

 Excited State   5:      Singlet-A      2.3667 eV  523.86 nm  f=0.0000  <S**2>=0.000
     312 -> 313        0.70559

 The electronic state is 1-A.
 Alpha  occ. eigenvalues --  -46.87564 -46.87196 -19.26220 -19.25731 -19.18936
 Alpha  occ. eigenvalues --  -19.18632 -19.18381 -19.18362 -19.18055 -19.17633
 Alpha  occ. eigenvalues --  -14.42407 -14.41844 -14.41267 -14.40914 -14.39261
 Alpha  occ. eigenvalues --  -14.38806 -14.38505 -14.38003 -10.38890 -10.38439
 Alpha  occ. eigenvalues --  -10.35310 -10.35019 -10.34201 -10.33848 -10.31679
 Alpha  occ. eigenvalues --  -10.31237 -10.31225 -10.30934 -10.30810 -10.30309
 Alpha  occ. eigenvalues --  -10.30303 -10.30274 -10.30047 -10.29986 -10.29975
 Alpha  occ. eigenvalues --  -10.29805 -10.29708 -10.29434 -10.29346 -10.29315
 Alpha  occ. eigenvalues --  -10.29104 -10.28700 -10.28639 -10.28571 -10.28317
 Alpha  occ. eigenvalues --  -10.28146 -10.28114 -10.28071 -10.27921 -10.27776
 Alpha  occ. eigenvalues --  -10.27585 -10.27541 -10.27423 -10.27392 -10.27390
 Alpha  occ. eigenvalues --  -10.27380 -10.27288 -10.27238 -10.27151 -10.27145
 Alpha  occ. eigenvalues --  -10.27103 -10.27046 -10.26976 -10.26941 -10.26832
 Alpha  occ. eigenvalues --  -10.26596 -10.26579 -10.26337 -10.26038 -10.26020
 Alpha  occ. eigenvalues --  -10.25987 -10.25958 -10.25950 -10.25834 -10.25797
 Alpha  occ. eigenvalues --  -10.25748 -10.25502 -10.25390 -10.25322 -10.25125
 Alpha  occ. eigenvalues --  -10.24795 -10.24624 -10.24602 -10.24541 -10.24277
 Alpha  occ. eigenvalues --  -10.24273  -3.16313  -3.15929  -1.91195  -1.90810
 Alpha  occ. eigenvalues --   -1.90784  -1.90621  -1.90398  -1.90241  -1.16498
 Alpha  occ. eigenvalues --   -1.16063  -1.08636  -1.08089  -1.06885  -1.06792
 Alpha  occ. eigenvalues --   -1.06743  -1.06003  -1.04406  -1.03982  -1.03573
 Alpha  occ. eigenvalues --   -1.03215  -1.02948  -1.02670  -1.02021  -1.01853
 Alpha  occ. eigenvalues --   -0.91900  -0.91406  -0.89401  -0.89098  -0.89073
 Alpha  occ. eigenvalues --   -0.88602  -0.88130  -0.87867  -0.87717  -0.87595
 Alpha  occ. eigenvalues --   -0.87345  -0.87104  -0.87037  -0.86755  -0.84915
 Alpha  occ. eigenvalues --   -0.84434  -0.83783  -0.83568  -0.82848  -0.82569
 Alpha  occ. eigenvalues --   -0.82529  -0.82136  -0.81506  -0.81071  -0.80355
 Alpha  occ. eigenvalues --   -0.80071  -0.78553  -0.78269  -0.77063  -0.76814
 Alpha  occ. eigenvalues --   -0.76754  -0.76437  -0.75762  -0.75406  -0.74718
 Alpha  occ. eigenvalues --   -0.74475  -0.72614  -0.72255  -0.71499  -0.71164
 Alpha  occ. eigenvalues --   -0.69663  -0.69574  -0.68745  -0.68348  -0.67517
 Alpha  occ. eigenvalues --   -0.67122  -0.67112  -0.66663  -0.65187  -0.64719
 Alpha  occ. eigenvalues --   -0.64678  -0.64562  -0.64332  -0.64123  -0.64113
 Alpha  occ. eigenvalues --   -0.63808  -0.62175  -0.61779  -0.60255  -0.59949
 Alpha  occ. eigenvalues --   -0.59716  -0.59227  -0.58904  -0.58466  -0.58335
 Alpha  occ. eigenvalues --   -0.57982  -0.57452  -0.57147  -0.57033  -0.56823
 Alpha  occ. eigenvalues --   -0.56115  -0.55791  -0.55789  -0.55452  -0.55365
 Alpha  occ. eigenvalues --   -0.55151  -0.55035  -0.54910  -0.54381  -0.54056
 Alpha  occ. eigenvalues --   -0.53828  -0.53314  -0.53144  -0.53051  -0.52817
 Alpha  occ. eigenvalues --   -0.52784  -0.52698  -0.52588  -0.52405  -0.52305
 Alpha  occ. eigenvalues --   -0.52269  -0.52079  -0.51812  -0.51574  -0.51418
 Alpha  occ. eigenvalues --   -0.51128  -0.51060  -0.50696  -0.50394  -0.50099
 Alpha  occ. eigenvalues --   -0.49899  -0.49787  -0.49650  -0.49415  -0.49401
 Alpha  occ. eigenvalues --   -0.49108  -0.49045  -0.49000  -0.48688  -0.48583
 Alpha  occ. eigenvalues --   -0.48468  -0.48299  -0.48262  -0.48111  -0.48002
 Alpha  occ. eigenvalues --   -0.47961  -0.47511  -0.47206  -0.47029  -0.46804
 Alpha  occ. eigenvalues --   -0.46619  -0.46470  -0.46316  -0.46179  -0.46004
 Alpha  occ. eigenvalues --   -0.45984  -0.45851  -0.45737  -0.45668  -0.45326
 Alpha  occ. eigenvalues --   -0.45122  -0.44793  -0.44437  -0.44399  -0.44087
 Alpha  occ. eigenvalues --   -0.44060  -0.44049  -0.43990  -0.43863  -0.43710
 Alpha  occ. eigenvalues --   -0.43579  -0.43508  -0.43460  -0.43299  -0.42992
 Alpha  occ. eigenvalues --   -0.42873  -0.42835  -0.42796  -0.42534  -0.42464
 Alpha  occ. eigenvalues --   -0.42304  -0.42147  -0.41875  -0.41601  -0.41570
 Alpha  occ. eigenvalues --   -0.41372  -0.41185  -0.41020  -0.40914  -0.40642
 Alpha  occ. eigenvalues --   -0.40638  -0.40614  -0.40411  -0.40406  -0.40362
 Alpha  occ. eigenvalues --   -0.40137  -0.40126  -0.39605  -0.39328  -0.39132
 Alpha  occ. eigenvalues --   -0.38261  -0.38049  -0.37563  -0.37214  -0.37172
 Alpha  occ. eigenvalues --   -0.37109  -0.36851  -0.36690  -0.36619  -0.36176
 Alpha  occ. eigenvalues --   -0.36099  -0.35659  -0.34160  -0.33725  -0.33652
 Alpha  occ. eigenvalues --   -0.33121  -0.33073  -0.32620  -0.31190  -0.30912
 Alpha  occ. eigenvalues --   -0.30880  -0.30483  -0.29937  -0.29490  -0.29244
 Alpha  occ. eigenvalues --   -0.29132  -0.28895  -0.28762  -0.23942  -0.23505
 Alpha  occ. eigenvalues --   -0.21029  -0.20572
 Alpha virt. eigenvalues --   -0.08707  -0.08218  -0.01592  -0.01208   0.00050
 Alpha virt. eigenvalues --    0.00477   0.02266   0.02723   0.03380   0.03652
 Alpha virt. eigenvalues --    0.04809   0.05152   0.05348   0.05705   0.06158

 Mulliken charges:
               1
     1  Mg   0.841251
     2  C    0.000752
     3  C   -0.089765
     4  C   -0.047548
     5  C   -0.065279
     6  N   -0.256194
     7  C   -0.049307
     8  C   -0.015947
     9  C   -0.088672
    10  C    0.050699
    11  C    0.105196
    12  C    0.052476
    13  C   -0.069589
    14  H    0.027056
    15  N   -0.433112
    16  C    0.174117
    17  C   -0.175439
    18  C   -0.004191
    19  C    0.148042
    20  C    0.111053
    21  C    0.011242
    22  O   -0.252123
    23  C    0.062299
    24  N   -0.340497
    25  C    0.040609
    26  C   -0.027603
    27  C   -0.023706
    28  C    0.074177
    29  C    0.076651
    30  C    0.035835
    31  C   -0.004826
    32  N   -0.310568
    33  C    0.080672
    34  C   -0.170470
    35  C    0.007746
    36  C    0.084735
    37  C    0.127382
    38  C    0.046953
    39  O   -0.189928
    40  C   -0.006313
    41  C    0.211009
    42  O   -0.250941
    43  O   -0.305868
    44  C    0.158369
    45  H   -0.019180
    46  H   -0.019256
    47  H   -0.043407
    48  H   -0.000999
    49  H   -0.003953
    50  H    0.024645
    51  H    0.015794
    52  H    0.015145
    53  H    0.021205
    54  H    0.048991
    55  H    0.016459
    56  H    0.017700
    57  H    0.005889
    58  H    0.024625
    59  H    0.041125
    60  H    0.036953
    61  H    0.033470
    62  H    0.032736
    63  H    0.014257
    64  H    0.008733
    65  H    0.021755
    66  H    0.012787
    67  H    0.003971
    68  H    0.004876
    69  H    0.004680
    70  H    0.006008
    71  H    0.016009
    72  H    0.030824
    73  H    0.047132
    74  H    0.007841
    75  H    0.044818
    76  H    0.033611
    77  H    0.041112
    78  H    0.044548
    79  H    0.054380
    80  Mg   0.839063
    81  C   -0.015922
    82  C   -0.087860
    83  C   -0.045499
    84  C   -0.065043
    85  N   -0.254540
    86  C   -0.049840
    87  C   -0.015148
    88  C   -0.090548
    89  C    0.045965
    90  C    0.114550
    91  C    0.062413
    92  C   -0.077709
    93  H    0.035091
    94  N   -0.423402
    95  C    0.163142
    96  C   -0.174720
    97  C   -0.007769
    98  C    0.152200
    99  C    0.099455
   100  C    0.015634
   101  O   -0.253263
   102  C    0.061151
   103  N   -0.350114
   104  C    0.037557
   105  C   -0.019820
   106  C   -0.034840
   107  C    0.088858
   108  C    0.073698
   109  C    0.034556
   110  C   -0.007532
   111  N   -0.324233
   112  C    0.078720
   113  C   -0.164357
   114  C    0.001135
   115  C    0.097718
   116  C    0.131205
   117  C    0.044951
   118  O   -0.189989
   119  C    0.000346
   120  C    0.209975
   121  O   -0.244562
   122  O   -0.307390
   123  C    0.150907
   124  H   -0.019994
   125  H   -0.015687
   126  H   -0.039738
   127  H   -0.001469
   128  H   -0.004371
   129  H    0.021785
   130  H    0.014344
   131  H    0.015892
   132  H    0.014237
   133  H    0.039443
   134  H    0.019819
   135  H    0.019405
   136  H    0.008607
   137  H    0.025874
   138  H    0.039916
   139  H    0.038053
   140  H    0.036296
   141  H    0.034113
   142  H    0.014388
   143  H    0.012626
   144  H    0.024968
   145  H    0.011414
   146  H    0.005690
   147  H    0.005882
   148  H    0.004055
   149  H    0.010768
   150  H    0.017522
   151  H    0.030868
   152  H    0.047449
   153  H    0.011262
   154  H    0.046533
   155  H    0.033156
   156  H    0.040326
   157  H    0.048842
   158  H    0.057810
 Sum of Mulliken charges =  -0.00000

 Dipole moment (field-independent basis, Debye):
    X=             -2.1097    Y=              2.6932    Z=              5.3210  Tot=              6.3259
 Quadrupole moment (field-independent basis, Debye-Ang):
   XX=           -473.1438   YY=           -471.4997   ZZ=           -520.0405
   XY=            -27.5493   XZ=              8.7545   YZ=             34.3053

 Normal termination of Gaussian 16 at Fri Sep 10 17:24:18 2021.
