 Gaussian 16, Revision A.03,
 Gaussian 16:  ES64L-G16RevA.03 25-Dec-2016

 -----------------------------------
 #p cam-b3lyp/Def2SVP td=(nstates=5)
 -----------------------------------

 --------------------------------
 TDDFT excited states in gaussian
 --------------------------------
 Symbolic Z-matrix:
 Charge =  0 Multiplicity = 1

                         Standard orientation:
 ---------------------------------------------------------------------
 Center     Atomic      Atomic             Coordinates (Angstroms)
 Number     Number       Type             X           Y           Z
 ---------------------------------------------------------------------
      1         12           0       -7.796568   -0.958705    0.094752
      2          6           0       -8.432624    2.560284    0.250836
      3          6           0       -8.730951   -0.831302   -3.184540
      4          6           0       -7.679885   -4.127474    0.051070
      5          6           0       -8.015248   -1.002929    3.572666
      6          7           0       -8.473545    0.711879   -1.190354
      7          6           0       -8.616870    2.023114   -1.025152
      8          6           0       -8.907753    2.784929   -2.352706
      9          6           0       -9.528068    1.585554   -3.200472
     10          6           0       -8.844078    0.419733   -2.508415
     11          6           0      -11.037136    1.438633   -3.034249
     12          6           0       -7.603554    3.341421   -3.016870
     13          6           0       -7.824789    4.368007   -4.131558
     14          1           0       -6.877545    5.463517   -4.272749
     15          7           0       -7.678713   -2.215588   -1.424855
     16          6           0       -8.092752   -1.991503   -2.695148
     17          6           0       -7.787987   -3.227701   -3.447220
     18          6           0       -7.337424   -4.256171   -2.468784
     19          6           0       -7.575389   -3.573583   -1.222661
     20          6           0       -7.887406   -3.329285   -4.938376
     21          6           0       -6.790561   -5.639227   -2.630742
     22          8           0       -6.680553   -6.446807   -1.645711
     23          6           0       -6.465337   -6.060237   -4.005523
     24          7           0       -8.057753   -2.409822    1.572479
     25          6           0       -7.895214   -3.709184    1.300035
     26          6           0       -7.852152   -4.529062    2.555377
     27          6           0       -7.775652   -3.486136    3.762111
     28          6           0       -7.876091   -2.173597    2.946376
     29          6           0       -9.038006   -5.478383    2.775717
     30          6           0       -6.599540   -3.647667    4.757645
     31          6           0       -5.293124   -3.332495    4.064073
     32          7           0       -7.981307    0.521240    1.671674
     33          6           0       -8.077523    0.277771    3.049403
     34          6           0       -8.295482    1.580786    3.704165
     35          6           0       -8.327682    2.495665    2.653545
     36          6           0       -8.167871    1.804532    1.418601
     37          6           0       -8.492443    1.790676    5.097574
     38          6           0       -8.484559    3.893349    2.285131
     39          8           0       -8.558284    4.952003    2.910677
     40          6           0       -8.680701    3.976581    0.707022
     41          6           0       -7.764055    5.052215    0.191193
     42          8           0       -6.524738    4.913691    0.238839
     43          8           0       -8.481964    5.960402   -0.487294
     44          6           0       -7.628467    7.040131   -1.051106
     45          1           0       -9.224953   -0.955987   -4.150127
     46          1           0       -7.533967   -5.208932    0.090986
     47          1           0       -8.008458   -0.928366    4.661632
     48          1           0       -9.634509    3.592564   -2.263396
     49          1           0       -9.231123    1.631481   -4.248058
     50          1           0      -11.419050    2.102584   -2.258857
     51          1           0      -11.199372    0.396805   -2.757182
     52          1           0      -11.547251    1.578039   -3.987730
     53          1           0       -7.124293    2.546908   -3.588814
     54          1           0       -6.937542    3.764538   -2.264059
     55          1           0       -8.847709    4.745544   -4.128432
     56          1           0       -7.727229    3.857914   -5.089936
     57          1           0       -8.402069   -2.469231   -5.364960
     58          1           0       -8.541407   -4.173168   -5.157126
     59          1           0       -6.914837   -3.487383   -5.404688
     60          1           0       -7.362663   -6.000958   -4.621835
     61          1           0       -6.003762   -7.043139   -3.917760
     62          1           0       -5.753162   -5.353304   -4.432139
     63          1           0       -6.968419   -5.165448    2.576692
     64          1           0       -8.664534   -3.523881    4.392300
     65          1           0       -8.746541   -6.521607    2.899961
     66          1           0       -9.723858   -5.361167    1.937172
     67          1           0       -9.679489   -5.220617    3.618020
     68          1           0       -6.537002   -4.677809    5.106705
     69          1           0       -6.686171   -3.005222    5.634007
     70          1           0       -5.044827   -4.273028    3.573584
     71          1           0       -4.530705   -3.059969    4.794591
     72          1           0       -5.427427   -2.583432    3.283461
     73          1           0       -7.893005    2.661542    5.362593
     74          1           0       -8.196664    0.915428    5.675552
     75          1           0       -9.567849    1.965552    5.125412
     76          1           0       -9.729665    4.214779    0.533652
     77          1           0       -8.023357    7.986920   -0.682476
     78          1           0       -7.607105    6.886629   -2.130173
     79          1           0       -6.603468    7.086845   -0.681603
     80         12           0        7.966132    0.981243   -0.074994
     81          6           0        8.195701   -2.590418   -0.338847
     82          6           0        7.173872    0.537915    3.212920
     83          6           0        7.316442    4.082861    0.084023
     84          6           0        7.645983    1.077894   -3.543984
     85          7           0        7.745138   -0.839497    1.161260
     86          6           0        7.917064   -2.138490    0.967892
     87          6           0        7.862192   -2.994191    2.261848
     88          6           0        6.984502   -2.001767    3.169394
     89          6           0        7.345308   -0.676439    2.501544
     90          6           0        5.487470   -2.218267    3.023274
     91          6           0        9.283897   -3.232859    2.881365
     92          6           0        9.340187   -4.311438    3.965454
     93          1           0       10.534086   -5.147637    4.054004
     94          7           0        7.819296    2.183667    1.497003
     95          6           0        7.511111    1.833486    2.763357
     96          6           0        7.511414    3.084120    3.538019
     97          6           0        7.682902    4.221067    2.593218
     98          6           0        7.589978    3.526173    1.324920
     99          6           0        7.438306    3.112740    5.037107
    100          6           0        7.882967    5.692298    2.797280
    101          8           0        7.770088    6.527517    1.831617
    102          6           0        8.122685    6.135991    4.178285
    103          7           0        7.331168    2.363294   -1.492423
    104          6           0        7.175210    3.659889   -1.172343
    105          6           0        6.981975    4.507192   -2.407300
    106          6           0        7.283327    3.539055   -3.644023
    107          6           0        7.522072    2.218562   -2.879379
    108          6           0        5.596951    5.131463   -2.575715
    109          6           0        8.359618    4.009693   -4.660273
    110          6           0        9.721796    4.013578   -4.004652
    111          7           0        8.108398   -0.446341   -1.690489
    112          6           0        7.913676   -0.198927   -3.067060
    113          6           0        8.001651   -1.500617   -3.760079
    114          6           0        8.220278   -2.425334   -2.727809
    115          6           0        8.245243   -1.750331   -1.477511
    116          6           0        7.835513   -1.711748   -5.157909
    117          6           0        8.425029   -3.820353   -2.410484
    118          8           0        8.586403   -4.846577   -3.069702
    119          6           0        8.292087   -4.005585   -0.837458
    120          6           0        9.454734   -4.836288   -0.367674
    121          8           0       10.616438   -4.399425   -0.446515
    122          8           0        8.989248   -5.912018    0.293007
    123          6           0       10.105291   -6.761211    0.788114
    124          1           0        6.697004    0.502302    4.192826
    125          1           0        7.194554    5.168428    0.070780
    126          1           0        7.654575    1.036065   -4.635250
    127          1           0        7.356189   -3.946275    2.155712
    128          1           0        7.319823   -2.011491    4.203237
    129          1           0        5.257272   -2.926828    2.241555
    130          1           0        5.071367   -1.247325    2.788387
    131          1           0        5.052902   -2.507909    3.984314
    132          1           0        9.567719   -2.354532    3.475283
    133          1           0       10.001385   -3.453025    2.114974
    134          1           0        8.435263   -4.931035    3.977837
    135          1           0        9.343141   -3.821782    4.942305
    136          1           0        7.152161    2.135267    5.444611
    137          1           0        6.605752    3.772609    5.304102
    138          1           0        8.352848    3.494193    5.496209
    139          1           0        7.284932    5.837567    4.804038
    140          1           0        8.330460    7.205570    4.109682
    141          1           0        9.005610    5.614860    4.564902
    142          1           0        7.685836    5.330202   -2.425646
    143          1           0        6.390360    3.384233   -4.267306
    144          1           0        5.623322    6.233644   -2.668393
    145          1           0        4.984418    4.835152   -1.734563
    146          1           0        5.022497    4.759315   -3.422299
    147          1           0        8.162188    5.038346   -4.971827
    148          1           0        8.399751    3.403130   -5.558860
    149          1           0        9.741631    4.974880   -3.482541
    150          1           0       10.508064    3.955449   -4.754620
    151          1           0        9.795991    3.225181   -3.246647
    152          1           0        8.613267   -2.398887   -5.463604
    153          1           0        7.890703   -0.776216   -5.710637
    154          1           0        6.829005   -2.138348   -5.172460
    155          1           0        7.335905   -4.493575   -0.644713
    156          1           0        9.939116   -7.768702    0.394371
    157          1           0       10.104716   -6.643847    1.888103
    158          1           0       11.100180   -6.549456    0.414209
 ---------------------------------------------------------------------

 SCF Done:  E(RCAM-B3LYP) =  -4069.81179902     A.U. after   19 cycles

 Excitation energies and oscillator strengths:

 Excited State   1:      Singlet-A      1.6700 eV  742.43 nm  f=0.0179  <S**2>=0.000
     309 -> 315        0.10308
     310 -> 316        0.13838
     311 -> 313        0.40884
     312 -> 314        0.55131
 This state for optimization and/or second-order correction.
 Total Energy, E(TD-HF/TD-DFT) =  -4069.75042844
 Copying the excited state density for this state as the 1-particle RhoCI density.

 Excited State   2:      Singlet-A      1.6856 eV  735.56 nm  f=0.7387  <S**2>=0.000
     309 -> 315        0.14217
     310 -> 316       -0.10495
     311 -> 313        0.55048
     312 -> 314       -0.40830

 Excited State   3:      Singlet-A      2.1859 eV  567.21 nm  f=0.0563  <S**2>=0.000
     309 -> 313        0.14348
     310 -> 314        0.62654
     312 -> 316       -0.26589

 Excited State   4:      Singlet-A      2.1933 eV  565.30 nm  f=0.1367  <S**2>=0.000
     309 -> 313        0.62451
     310 -> 314       -0.14239
     311 -> 315       -0.27163

 Excited State   5:      Singlet-A      2.7658 eV  448.27 nm  f=0.0000  <S**2>=0.000
     312 -> 313        0.70710

 The electronic state is 1-A.
 Alpha  occ. eigenvalues --  -46.87835 -46.87590 -19.26312 -19.26300 -19.19110
 Alpha  occ. eigenvalues --  -19.19051 -19.18837 -19.18632 -19.18206 -19.17992
 Alpha  occ. eigenvalues --  -14.42487 -14.42426 -14.41490 -14.41289 -14.39439
 Alpha  occ. eigenvalues --  -14.39280 -14.38626 -14.38532 -10.39111 -10.39038
 Alpha  occ. eigenvalues --  -10.35469 -10.35309 -10.34426 -10.34170 -10.31713
 Alpha  occ. eigenvalues --  -10.31703 -10.31442 -10.31241 -10.30949 -10.30941
 Alpha  occ. eigenvalues --  -10.30609 -10.30547 -10.30330 -10.30295 -10.30247
 Alpha  occ. eigenvalues --  -10.30068 -10.29965 -10.29827 -10.29667 -10.29363
 Alpha  occ. eigenvalues --  -10.29333 -10.29290 -10.28778 -10.28650 -10.28600
 Alpha  occ. eigenvalues --  -10.28561 -10.28399 -10.28333 -10.28146 -10.28067
 Alpha  occ. eigenvalues --  -10.27932 -10.27829 -10.27763 -10.27618 -10.27596
 Alpha  occ. eigenvalues --  -10.27556 -10.27501 -10.27500 -10.27455 -10.27440
 Alpha  occ. eigenvalues --  -10.27414 -10.27394 -10.27379 -10.27306 -10.27192
 Alpha  occ. eigenvalues --  -10.26990 -10.26732 -10.26632 -10.26415 -10.26324
 Alpha  occ. eigenvalues --  -10.26261 -10.26259 -10.26089 -10.26062 -10.25940
 Alpha  occ. eigenvalues --  -10.25894 -10.25868 -10.25809 -10.25480 -10.25311
 Alpha  occ. eigenvalues --  -10.24870 -10.24826 -10.24806 -10.24776 -10.24685
 Alpha  occ. eigenvalues --  -10.24618  -3.16578  -3.16340  -1.91460  -1.91222
 Alpha  occ. eigenvalues --   -1.91046  -1.90888  -1.90810  -1.90647  -1.16662
 Alpha  occ. eigenvalues --   -1.16594  -1.08663  -1.08601  -1.07238  -1.06894
 Alpha  occ. eigenvalues --   -1.06883  -1.06673  -1.04617  -1.04424  -1.03800
 Alpha  occ. eigenvalues --   -1.03593  -1.03272  -1.02969  -1.02450  -1.02041
 Alpha  occ. eigenvalues --   -0.92008  -0.91920  -0.89570  -0.89430  -0.89219
 Alpha  occ. eigenvalues --   -0.89081  -0.88336  -0.88154  -0.87912  -0.87734
 Alpha  occ. eigenvalues --   -0.87709  -0.87614  -0.87301  -0.87042  -0.85014
 Alpha  occ. eigenvalues --   -0.84931  -0.83990  -0.83812  -0.82994  -0.82853
 Alpha  occ. eigenvalues --   -0.82679  -0.82582  -0.81620  -0.81538  -0.80630
 Alpha  occ. eigenvalues --   -0.80377  -0.78829  -0.78564  -0.77259  -0.77077
 Alpha  occ. eigenvalues --   -0.76970  -0.76835  -0.75956  -0.75772  -0.74942
 Alpha  occ. eigenvalues --   -0.74732  -0.72814  -0.72633  -0.71709  -0.71510
 Alpha  occ. eigenvalues --   -0.69967  -0.69697  -0.68905  -0.68759  -0.67676
 Alpha  occ. eigenvalues --   -0.67534  -0.67247  -0.67131  -0.65320  -0.65205
 Alpha  occ. eigenvalues --   -0.64892  -0.64705  -0.64659  -0.64589  -0.64317
 Alpha  occ. eigenvalues --   -0.64139  -0.62332  -0.62220  -0.60475  -0.60265
 Alpha  occ. eigenvalues --   -0.59837  -0.59727  -0.59026  -0.58925  -0.58542
 Alpha  occ. eigenvalues --   -0.58359  -0.57620  -0.57496  -0.57348  -0.57169
 Alpha  occ. eigenvalues --   -0.56345  -0.56138  -0.56009  -0.55827  -0.55550
 Alpha  occ. eigenvalues --   -0.55385  -0.55383  -0.55186  -0.54566  -0.54428
 Alpha  occ. eigenvalues --   -0.53925  -0.53843  -0.53334  -0.53250  -0.53160
 Alpha  occ. eigenvalues --   -0.53073  -0.52951  -0.52838  -0.52781  -0.52588
 Alpha  occ. eigenvalues --   -0.52501  -0.52346  -0.51959  -0.51834  -0.51644
 Alpha  occ. eigenvalues --   -0.51589  -0.51236  -0.51140  -0.50594  -0.50394
 Alpha  occ. eigenvalues --   -0.50080  -0.49946  -0.49906  -0.49796  -0.49543
 Alpha  occ. eigenvalues --   -0.49414  -0.49248  -0.49134  -0.49128  -0.49038
 Alpha  occ. eigenvalues --   -0.48628  -0.48502  -0.48494  -0.48473  -0.48309
 Alpha  occ. eigenvalues --   -0.48262  -0.47729  -0.47525  -0.47330  -0.47045
 Alpha  occ. eigenvalues --   -0.46839  -0.46644  -0.46585  -0.46485  -0.46398
 Alpha  occ. eigenvalues --   -0.46204  -0.46203  -0.46022  -0.45860  -0.45765
 Alpha  occ. eigenvalues --   -0.45246  -0.45136  -0.44615  -0.44539  -0.44452
 Alpha  occ. eigenvalues --   -0.44408  -0.44187  -0.44120  -0.44059  -0.44050
 Alpha  occ. eigenvalues --   -0.44012  -0.43867  -0.43531  -0.43496  -0.43422
 Alpha  occ. eigenvalues --   -0.43318  -0.43065  -0.42872  -0.42839  -0.42740
 Alpha  occ. eigenvalues --   -0.42701  -0.42487  -0.42058  -0.41903  -0.41741
 Alpha  occ. eigenvalues --   -0.41604  -0.41567  -0.41393  -0.41177  -0.40918
 Alpha  occ. eigenvalues --   -0.40908  -0.40847  -0.40651  -0.40626  -0.40618
 Alpha  occ. eigenvalues --   -0.40428  -0.40261  -0.40160  -0.39505  -0.39367
 Alpha  occ. eigenvalues --   -0.38516  -0.38283  -0.37779  -0.37590  -0.37366
 Alpha  occ. eigenvalues --   -0.37296  -0.37200  -0.37131  -0.36749  -0.36717
 Alpha  occ. eigenvalues --   -0.36232  -0.36153  -0.34325  -0.34185  -0.33807
 Alpha  occ. eigenvalues --   -0.33803  -0.33224  -0.33107  -0.31368  -0.31192
 Alpha  occ. eigenvalues --   -0.31072  -0.30902  -0.30065  -0.29898  -0.29483
 Alpha  occ. eigenvalues --   -0.29359  -0.29254  -0.29145  -0.24119  -0.23966
 Alpha  occ. eigenvalues --   -0.21166  -0.21047
 Alpha virt. eigenvalues --   -0.08810  -0.08721  -0.01787  -0.01612  -0.00087
 Alpha virt. eigenvalues --    0.00047   0.02162   0.02270   0.03075   0.03289
 Alpha virt. eigenvalues --    0.04683   0.04800   0.05066   0.05219   0.06148

 Mulliken charges:
               1
     1  Mg   0.838576
     2  C   -0.002924
     3  C   -0.094007
     4  C   -0.045917
     5  C   -0.064074
     6  N   -0.256774
     7  C   -0.052472
     8  C   -0.014014
     9  C   -0.087008
    10  C    0.046328
    11  C    0.104780
    12  C    0.053451
    13  C   -0.071859
    14  H    0.036182
    15  N   -0.433178
    16  C    0.168446
    17  C   -0.177002
    18  C   -0.003914
    19  C    0.148730
    20  C    0.110137
    21  C    0.012375
    22  O   -0.249580
    23  C    0.062415
    24  N   -0.341092
    25  C    0.041253
    26  C   -0.028228
    27  C   -0.023860
    28  C    0.074697
    29  C    0.076141
    30  C    0.035197
    31  C   -0.004431
    32  N   -0.310418
    33  C    0.080271
    34  C   -0.169951
    35  C    0.008351
    36  C    0.082864
    37  C    0.127373
    38  C    0.046030
    39  O   -0.188496
    40  C   -0.005311
    41  C    0.212908
    42  O   -0.257181
    43  O   -0.304781
    44  C    0.157651
    45  H   -0.017429
    46  H   -0.016790
    47  H   -0.041744
    48  H    0.000991
    49  H   -0.003924
    50  H    0.025496
    51  H    0.016461
    52  H    0.016787
    53  H    0.011204
    54  H    0.044078
    55  H    0.017928
    56  H    0.018015
    57  H    0.005943
    58  H    0.026995
    59  H    0.039823
    60  H    0.037406
    61  H    0.035972
    62  H    0.031687
    63  H    0.016463
    64  H    0.009467
    65  H    0.023247
    66  H    0.012705
    67  H    0.004745
    68  H    0.006273
    69  H    0.004520
    70  H    0.008822
    71  H    0.017368
    72  H    0.029137
    73  H    0.047353
    74  H    0.008837
    75  H    0.046067
    76  H    0.035216
    77  H    0.043016
    78  H    0.046457
    79  H    0.053722
    80  Mg   0.837929
    81  C   -0.016847
    82  C   -0.087657
    83  C   -0.045233
    84  C   -0.064914
    85  N   -0.254572
    86  C   -0.049868
    87  C   -0.015101
    88  C   -0.090534
    89  C    0.045804
    90  C    0.114297
    91  C    0.062544
    92  C   -0.077830
    93  H    0.034663
    94  N   -0.423595
    95  C    0.163008
    96  C   -0.174234
    97  C   -0.007566
    98  C    0.152206
    99  C    0.099194
   100  C    0.015772
   101  O   -0.253035
   102  C    0.061159
   103  N   -0.349990
   104  C    0.037655
   105  C   -0.019929
   106  C   -0.034675
   107  C    0.088846
   108  C    0.073532
   109  C    0.034791
   110  C   -0.007640
   111  N   -0.324043
   112  C    0.078363
   113  C   -0.163366
   114  C    0.002167
   115  C    0.096114
   116  C    0.131513
   117  C    0.042210
   118  O   -0.188257
   119  C    0.000976
   120  C    0.211192
   121  O   -0.251110
   122  O   -0.305587
   123  C    0.152090
   124  H   -0.019358
   125  H   -0.015363
   126  H   -0.040808
   127  H   -0.000684
   128  H   -0.004391
   129  H    0.022496
   130  H    0.014911
   131  H    0.016313
   132  H    0.013892
   133  H    0.037571
   134  H    0.020802
   135  H    0.019586
   136  H    0.008810
   137  H    0.026792
   138  H    0.039717
   139  H    0.038668
   140  H    0.036446
   141  H    0.033683
   142  H    0.014297
   143  H    0.012225
   144  H    0.025136
   145  H    0.012457
   146  H    0.005550
   147  H    0.006119
   148  H    0.003349
   149  H    0.010958
   150  H    0.017690
   151  H    0.030182
   152  H    0.045769
   153  H    0.008274
   154  H    0.046651
   155  H    0.035049
   156  H    0.043791
   157  H    0.049508
   158  H    0.053466
 Sum of Mulliken charges =  -0.00000

 Dipole moment (field-independent basis, Debye):
    X=             -3.9920    Y=             -0.7046    Z=             -0.0101  Tot=              4.0538
 Quadrupole moment (field-independent basis, Debye-Ang):
   XX=           -521.3333   YY=           -550.3676   ZZ=           -447.3464
   XY=             23.7574   XZ=             70.0336   YZ=            -46.2388

 Normal termination of Gaussian 16 at Sat Sep  4 13:13:41 2021.
