 Gaussian 16, Revision A.03,
 Gaussian 16:  ES64L-G16RevA.03 25-Dec-2016

 -----------------------------------
 #p cam-b3lyp/Def2SVP td=(nstates=5)
 -----------------------------------

 --------------------------------
 TDDFT excited states in gaussian
 --------------------------------
 Symbolic Z-matrix:
 Charge =  0 Multiplicity = 1

                         Standard orientation:
 ---------------------------------------------------------------------
 Center     Atomic      Atomic             Coordinates (Angstroms)
 Number     Number       Type             X           Y           Z
 ---------------------------------------------------------------------
      1         12           0       -3.292092   -2.052864    0.330066
      2          6           0       -5.336025    0.756213   -0.532278
      3          6           0       -3.727175   -3.162037   -2.867355
      4          6           0       -1.875794   -4.756539    1.190799
      5          6           0       -3.957319   -1.323489    3.672393
      6          7           0       -4.409957   -1.219421   -1.389351
      7          6           0       -5.102183   -0.105449   -1.606289
      8          6           0       -5.492160    0.098430   -3.100855
      9          6           0       -5.438134   -1.419855   -3.584478
     10          6           0       -4.438888   -1.960329   -2.576847
     11          6           0       -6.759700   -2.161619   -3.411996
     12          6           0       -4.454098    0.982259   -3.870921
     13          6           0       -4.920191    1.498446   -5.235349
     14          1           0       -4.498711    2.823566   -5.664023
     15          7           0       -2.455717   -3.466806   -0.767246
     16          6           0       -2.743124   -3.767814   -2.056462
     17          6           0       -1.854339   -4.892236   -2.420355
     18          6           0       -1.161913   -5.344193   -1.181657
     19          6           0       -1.831647   -4.547514   -0.185597
     20          6           0       -1.693420   -5.393273   -3.822788
     21          6           0       -0.077199   -6.344180   -0.933552
     22          8           0        0.216676   -6.751247    0.242248
     23          6           0        0.581368   -6.908376   -2.125615
     24          7           0       -3.136324   -3.056206    2.153984
     25          6           0       -2.416686   -4.178149    2.265111
     26          6           0       -2.215840   -4.557906    3.702256
     27          6           0       -2.745319   -3.322358    4.564129
     28          6           0       -3.262240   -2.431941    3.407314
     29          6           0       -2.923458   -5.840513    4.160740
     30          6           0       -1.759039   -2.704172    5.586634
     31          6           0       -0.615474   -2.035610    4.856989
     32          7           0       -4.288583   -0.460643    1.417670
     33          6           0       -4.467676   -0.371507    2.805710
     34          6           0       -5.292204    0.824350    3.058982
     35          6           0       -5.551037    1.341861    1.791294
     36          6           0       -4.949720    0.506593    0.806896
     37          6           0       -5.750930    1.266117    4.331321
     38          6           0       -6.216421    2.392428    1.038014
     39          8           0       -6.806343    3.432148    1.335448
     40          6           0       -6.206551    1.987805   -0.502119
     41          6           0       -5.752027    3.189490   -1.284851
     42          8           0       -4.585708    3.619939   -1.176325
     43          8           0       -6.677602    3.495528   -2.206911
     44          6           0       -6.274914    4.661414   -3.038000
     45          1           0       -3.985562   -3.724180   -3.766895
     46          1           0       -1.304566   -5.619562    1.539120
     47          1           0       -4.134253   -0.985864    4.695211
     48          1           0       -6.491695    0.504017   -3.258505
     49          1           0       -5.043119   -1.510903   -4.596108
     50          1           0       -7.485524   -1.560396   -2.864609
     51          1           0       -6.515446   -3.065418   -2.853444
     52          1           0       -7.143061   -2.499110   -4.375277
     53          1           0       -3.615305    0.360764   -4.184340
     54          1           0       -4.133975    1.824759   -3.256884
     55          1           0       -5.997203    1.381570   -5.359017
     56          1           0       -4.488182    0.861475   -6.007253
     57          1           0       -2.451398   -4.978100   -4.485845
     58          1           0       -1.904136   -6.462382   -3.805091
     59          1           0       -0.687330   -5.223179   -4.206432
     60          1           0       -0.164819   -7.399876   -2.750261
     61          1           0        1.389540   -7.537026   -1.753448
     62          1           0        0.991155   -6.092643   -2.721939
     63          1           0       -1.160964   -4.719567    3.920266
     64          1           0       -3.618317   -3.584997    5.162101
     65          1           0       -2.248719   -6.586265    4.581793
     66          1           0       -3.471999   -6.245075    3.310609
     67          1           0       -3.725073   -5.687170    4.882763
     68          1           0       -1.327273   -3.482316    6.215137
     69          1           0       -2.224245   -1.968203    6.242519
     70          1           0        0.064097   -2.863695    4.658765
     71          1           0       -0.143400   -1.287128    5.494273
     72          1           0       -0.935720   -1.639060    3.893311
     73          1           0       -5.606930    2.346353    4.349276
     74          1           0       -5.204965    0.780223    5.139673
     75          1           0       -6.795190    0.957096    4.287931
     76          1           0       -7.224935    1.695190   -0.755878
     77          1           0       -7.072012    5.400983   -2.961146
     78          1           0       -6.041503    4.270131   -4.028365
     79          1           0       -5.422894    5.238944   -2.677642
     80         12           0        3.422444    2.189080    0.124572
     81          6           0        5.014675   -0.775682   -1.122034
     82          6           0        3.415311    0.712296    3.199252
     83          6           0        1.622098    4.586855    1.162308
     84          6           0        2.535176    2.927727   -3.163720
     85          7           0        4.150304    0.220355    0.822140
     86          6           0        4.793470   -0.797837    0.270808
     87          6           0        5.294782   -1.864722    1.280757
     88          6           0        4.252587   -1.579673    2.468793
     89          6           0        3.940617   -0.113945    2.173844
     90          6           0        2.964739   -2.376634    2.343737
     91          6           0        6.772985   -1.606005    1.739011
     92          6           0        7.429845   -2.772320    2.480618
     93          1           0        8.855661   -3.012555    2.276170
     94          7           0        3.062984    2.819140    1.971837
     95          6           0        3.129207    2.092137    3.106902
     96          6           0        2.754581    3.009202    4.194476
     97          6           0        2.302404    4.292319    3.591271
     98          6           0        2.291675    3.934148    2.187104
     99          6           0        2.919067    2.661015    5.645385
    100          6           0        1.927780    5.617953    4.181645
    101          8           0        1.336252    6.520225    3.489664
    102          6           0        2.189562    5.793600    5.617648
    103          7           0        2.068360    3.449038   -0.824794
    104          6           0        1.461008    4.443062   -0.153245
    105          6           0        0.748692    5.382920   -1.096471
    106          6           0        1.208029    4.947430   -2.565120
    107          6           0        2.074660    3.720538   -2.205838
    108          6           0       -0.777761    5.374215   -1.017406
    109          6           0        1.827086    6.051589   -3.465266
    110          6           0        3.160447    6.488677   -2.902707
    111          7           0        3.860779    1.370102   -1.826112
    112          6           0        3.364044    1.817046   -3.070128
    113          6           0        3.851911    0.874514   -4.097762
    114          6           0        4.585384   -0.075932   -3.371705
    115          6           0        4.539842    0.239841   -1.986895
    116          6           0        3.560850    0.937577   -5.489679
    117          6           0        5.378958   -1.280514   -3.460725
    118          8           0        5.828396   -1.958440   -4.383840
    119          6           0        5.586862   -1.858190   -1.994620
    120          6           0        7.043805   -2.193943   -1.829948
    121          8           0        7.904682   -1.296550   -1.843576
    122          8           0        7.160381   -3.484598   -1.468036
    123          6           0        8.586744   -3.862262   -1.281807
    124          1           0        3.157379    0.253485    4.154157
    125          1           0        1.076063    5.486959    1.454079
    126          1           0        2.383569    3.143725   -4.223445
    127          1           0        5.201653   -2.889711    0.942399
    128          1           0        4.725855   -1.680408    3.442054
    129          1           0        2.914110   -2.916501    1.409860
    130          1           0        2.163267   -1.652188    2.405873
    131          1           0        2.843467   -3.035169    3.208588
    132          1           0        6.773843   -0.851888    2.536532
    133          1           0        7.384743   -1.316532    0.906788
    134          1           0        6.862960   -3.704408    2.367381
    135          1           0        7.394409   -2.565685    3.553030
    136          1           0        3.117342    1.590807    5.782264
    137          1           0        1.947156    2.820672    6.124715
    138          1           0        3.665887    3.281441    6.145399
    139          1           0        1.653899    5.031226    6.178280
    140          1           0        1.938452    6.833495    5.835424
    141          1           0        3.256944    5.627742    5.801528
    142          1           0        1.051868    6.408151   -0.922994
    143          1           0        0.363594    4.571871   -3.161550
    144          1           0       -1.209483    6.370442   -0.804743
    145          1           0       -1.076291    4.660994   -0.260628
    146          1           0       -1.283962    4.995926   -1.903893
    147          1           0        1.187497    6.937615   -3.471799
    148          1           0        1.960768    5.743310   -4.496819
    149          1           0        2.878353    7.218696   -2.138131
    150          1           0        3.772133    6.945541   -3.678047
    151          1           0        3.664849    5.658146   -2.395311
    152          1           0        4.487962    0.739425   -6.010920
    153          1           0        3.147506    1.905342   -5.765982
    154          1           0        2.820818    0.136904   -5.570661
    155          1           0        4.950232   -2.738265   -1.895945
    156          1           0        8.775970   -4.724607   -1.928523
    157          1           0        8.716804   -4.010766   -0.193333
    158          1           0        9.339471   -3.165838   -1.632292
 ---------------------------------------------------------------------

 SCF Done:  E(RCAM-B3LYP) =  -4069.81292073     A.U. after   19 cycles

 Excitation energies and oscillator strengths:

 Excited State   1:      Singlet-A      1.6426 eV  754.81 nm  f=0.0534  <S**2>=0.000
     309 -> 315        0.10891
     310 -> 316        0.12508
     311 -> 313        0.45296
     312 -> 314        0.51781
 This state for optimization and/or second-order correction.
 Total Energy, E(TD-HF/TD-DFT) =  -4069.75255677
 Copying the excited state density for this state as the 1-particle RhoCI density.

 Excited State   2:      Singlet-A      1.7029 eV  728.09 nm  f=0.6183  <S**2>=0.000
     309 -> 315        0.13655
     310 -> 316       -0.11910
     311 -> 313        0.51475
     312 -> 314       -0.45027

 Excited State   3:      Singlet-A      2.1784 eV  569.15 nm  f=0.0309  <S**2>=0.000
     309 -> 313        0.31256
     310 -> 314        0.56571
     311 -> 315       -0.12775
     312 -> 316       -0.23216

 Excited State   4:      Singlet-A      2.1982 eV  564.04 nm  f=0.1442  <S**2>=0.000
     309 -> 313        0.55882
     310 -> 314       -0.30728
     311 -> 315       -0.24769
     312 -> 316        0.13771

 Excited State   5:      Singlet-A      2.2260 eV  556.97 nm  f=0.0001  <S**2>=0.000
     312 -> 313        0.70686

 The electronic state is 1-A.
 Alpha  occ. eigenvalues --  -46.87944 -46.87372 -19.26504 -19.26197 -19.19304
 Alpha  occ. eigenvalues --  -19.18998 -19.18935 -19.18430 -19.18293 -19.17875
 Alpha  occ. eigenvalues --  -14.42595 -14.42209 -14.41621 -14.41028 -14.39543
 Alpha  occ. eigenvalues --  -14.39069 -14.38728 -14.38335 -10.39327 -10.38923
 Alpha  occ. eigenvalues --  -10.35557 -10.35108 -10.34520 -10.34054 -10.31891
 Alpha  occ. eigenvalues --  -10.31625 -10.31549 -10.31058 -10.31049 -10.30733
 Alpha  occ. eigenvalues --  -10.30710 -10.30664 -10.30385 -10.30130 -10.30120
 Alpha  occ. eigenvalues --  -10.30110 -10.29784 -10.29765 -10.29531 -10.29388
 Alpha  occ. eigenvalues --  -10.29167 -10.29141 -10.28898 -10.28718 -10.28498
 Alpha  occ. eigenvalues --  -10.28442 -10.28439 -10.28248 -10.28138 -10.27918
 Alpha  occ. eigenvalues --  -10.27864 -10.27850 -10.27779 -10.27752 -10.27714
 Alpha  occ. eigenvalues --  -10.27708 -10.27557 -10.27508 -10.27394 -10.27323
 Alpha  occ. eigenvalues --  -10.27289 -10.27222 -10.27205 -10.27043 -10.26882
 Alpha  occ. eigenvalues --  -10.26863 -10.26742 -10.26590 -10.26459 -10.26417
 Alpha  occ. eigenvalues --  -10.26348 -10.26192 -10.26174 -10.25961 -10.25791
 Alpha  occ. eigenvalues --  -10.25747 -10.25665 -10.25656 -10.25639 -10.25235
 Alpha  occ. eigenvalues --  -10.24960 -10.24959 -10.24636 -10.24426 -10.24338
 Alpha  occ. eigenvalues --  -10.24273  -3.16686  -3.16123  -1.91568  -1.91155
 Alpha  occ. eigenvalues --   -1.91006  -1.90996  -1.90593  -1.90431  -1.16857
 Alpha  occ. eigenvalues --   -1.16489  -1.08756  -1.08496  -1.07338  -1.06888
 Alpha  occ. eigenvalues --   -1.06784  -1.06675  -1.04726  -1.04216  -1.03925
 Alpha  occ. eigenvalues --   -1.03381  -1.03368  -1.02728  -1.02563  -1.01811
 Alpha  occ. eigenvalues --   -0.92125  -0.91735  -0.89767  -0.89334  -0.89161
 Alpha  occ. eigenvalues --   -0.88864  -0.88524  -0.87998  -0.87824  -0.87790
 Alpha  occ. eigenvalues --   -0.87584  -0.87369  -0.87367  -0.86881  -0.85137
 Alpha  occ. eigenvalues --   -0.84716  -0.84218  -0.83429  -0.83097  -0.82789
 Alpha  occ. eigenvalues --   -0.82624  -0.82361  -0.81764  -0.81379  -0.80752
 Alpha  occ. eigenvalues --   -0.80193  -0.78907  -0.78399  -0.77408  -0.77117
 Alpha  occ. eigenvalues --   -0.76868  -0.76580  -0.76081  -0.75582  -0.75113
 Alpha  occ. eigenvalues --   -0.74264  -0.72931  -0.72425  -0.71837  -0.71186
 Alpha  occ. eigenvalues --   -0.70227  -0.69331  -0.69021  -0.68552  -0.67789
 Alpha  occ. eigenvalues --   -0.67359  -0.67309  -0.66952  -0.65451  -0.65032
 Alpha  occ. eigenvalues --   -0.65008  -0.64818  -0.64498  -0.64487  -0.64377
 Alpha  occ. eigenvalues --   -0.63820  -0.62497  -0.62043  -0.60576  -0.60038
 Alpha  occ. eigenvalues --   -0.59944  -0.59526  -0.59159  -0.58683  -0.58672
 Alpha  occ. eigenvalues --   -0.58140  -0.57758  -0.57497  -0.57359  -0.56906
 Alpha  occ. eigenvalues --   -0.56446  -0.56165  -0.55972  -0.55668  -0.55655
 Alpha  occ. eigenvalues --   -0.55577  -0.55223  -0.54901  -0.54768  -0.54128
 Alpha  occ. eigenvalues --   -0.54045  -0.53635  -0.53467  -0.53352  -0.53122
 Alpha  occ. eigenvalues --   -0.52953  -0.52890  -0.52866  -0.52750  -0.52646
 Alpha  occ. eigenvalues --   -0.52417  -0.52057  -0.52041  -0.51747  -0.51723
 Alpha  occ. eigenvalues --   -0.51413  -0.51380  -0.50953  -0.50656  -0.50266
 Alpha  occ. eigenvalues --   -0.50222  -0.50034  -0.49698  -0.49648  -0.49389
 Alpha  occ. eigenvalues --   -0.49356  -0.49238  -0.49218  -0.48968  -0.48828
 Alpha  occ. eigenvalues --   -0.48766  -0.48657  -0.48564  -0.48319  -0.48089
 Alpha  occ. eigenvalues --   -0.47904  -0.47857  -0.47439  -0.47300  -0.46989
 Alpha  occ. eigenvalues --   -0.46781  -0.46707  -0.46525  -0.46404  -0.46348
 Alpha  occ. eigenvalues --   -0.46252  -0.45994  -0.45986  -0.45734  -0.45552
 Alpha  occ. eigenvalues --   -0.45426  -0.44755  -0.44661  -0.44641  -0.44354
 Alpha  occ. eigenvalues --   -0.44248  -0.44239  -0.44181  -0.44142  -0.43863
 Alpha  occ. eigenvalues --   -0.43748  -0.43705  -0.43673  -0.43555  -0.43321
 Alpha  occ. eigenvalues --   -0.43208  -0.43054  -0.42959  -0.42894  -0.42731
 Alpha  occ. eigenvalues --   -0.42579  -0.42247  -0.42167  -0.41866  -0.41698
 Alpha  occ. eigenvalues --   -0.41654  -0.41378  -0.41302  -0.41158  -0.41073
 Alpha  occ. eigenvalues --   -0.40945  -0.40793  -0.40641  -0.40441  -0.40411
 Alpha  occ. eigenvalues --   -0.40388  -0.40045  -0.39970  -0.39784  -0.39032
 Alpha  occ. eigenvalues --   -0.38704  -0.37917  -0.37891  -0.37534  -0.37413
 Alpha  occ. eigenvalues --   -0.37381  -0.36958  -0.36943  -0.36884  -0.36539
 Alpha  occ. eigenvalues --   -0.36409  -0.35831  -0.34440  -0.34012  -0.33961
 Alpha  occ. eigenvalues --   -0.33674  -0.33347  -0.32889  -0.31468  -0.31196
 Alpha  occ. eigenvalues --   -0.30979  -0.30672  -0.30157  -0.29784  -0.29572
 Alpha  occ. eigenvalues --   -0.29448  -0.29080  -0.28978  -0.24236  -0.23748
 Alpha  occ. eigenvalues --   -0.21276  -0.20826
 Alpha virt. eigenvalues --   -0.08912  -0.08525  -0.01909  -0.01367  -0.00179
 Alpha virt. eigenvalues --    0.00229   0.02051   0.02337   0.02560   0.03622
 Alpha virt. eigenvalues --    0.04555   0.04856   0.05030   0.05342   0.05952

 Mulliken charges:
               1
     1  Mg   0.838948
     2  C   -0.003183
     3  C   -0.093229
     4  C   -0.046978
     5  C   -0.064079
     6  N   -0.256621
     7  C   -0.052527
     8  C   -0.014093
     9  C   -0.087158
    10  C    0.046316
    11  C    0.104680
    12  C    0.053460
    13  C   -0.071614
    14  H    0.034435
    15  N   -0.433383
    16  C    0.168827
    17  C   -0.175966
    18  C   -0.003690
    19  C    0.148781
    20  C    0.109674
    21  C    0.011267
    22  O   -0.251145
    23  C    0.062068
    24  N   -0.340895
    25  C    0.041633
    26  C   -0.028342
    27  C   -0.023527
    28  C    0.073892
    29  C    0.076144
    30  C    0.036881
    31  C   -0.009662
    32  N   -0.310623
    33  C    0.080354
    34  C   -0.169206
    35  C    0.008826
    36  C    0.083091
    37  C    0.127199
    38  C    0.046418
    39  O   -0.187774
    40  C   -0.005857
    41  C    0.214485
    42  O   -0.258173
    43  O   -0.304120
    44  C    0.157334
    45  H   -0.016863
    46  H   -0.017541
    47  H   -0.042174
    48  H    0.001105
    49  H   -0.003521
    50  H    0.025552
    51  H    0.016620
    52  H    0.017194
    53  H    0.011861
    54  H    0.042513
    55  H    0.018544
    56  H    0.018741
    57  H    0.006144
    58  H    0.027179
    59  H    0.042433
    60  H    0.037829
    61  H    0.036003
    62  H    0.034355
    63  H    0.014624
    64  H    0.010098
    65  H    0.022848
    66  H    0.013479
    67  H    0.005064
    68  H    0.005480
    69  H    0.004850
    70  H    0.007793
    71  H    0.014172
    72  H    0.033551
    73  H    0.048547
    74  H    0.008268
    75  H    0.046125
    76  H    0.035686
    77  H    0.043940
    78  H    0.046530
    79  H    0.052883
    80  Mg   0.836612
    81  C   -0.017550
    82  C   -0.089077
    83  C   -0.043747
    84  C   -0.064897
    85  N   -0.255065
    86  C   -0.050132
    87  C   -0.015050
    88  C   -0.091848
    89  C    0.045858
    90  C    0.112438
    91  C    0.062614
    92  C   -0.077712
    93  H    0.033626
    94  N   -0.423972
    95  C    0.164277
    96  C   -0.174872
    97  C   -0.006512
    98  C    0.152280
    99  C    0.099460
   100  C    0.015844
   101  O   -0.251148
   102  C    0.061296
   103  N   -0.350486
   104  C    0.040148
   105  C   -0.022081
   106  C   -0.032646
   107  C    0.088990
   108  C    0.073169
   109  C    0.034591
   110  C   -0.007239
   111  N   -0.323740
   112  C    0.078054
   113  C   -0.164449
   114  C    0.001066
   115  C    0.096074
   116  C    0.131868
   117  C    0.040493
   118  O   -0.190592
   119  C    0.001602
   120  C    0.211045
   121  O   -0.251188
   122  O   -0.305613
   123  C    0.152335
   124  H   -0.020046
   125  H   -0.012983
   126  H   -0.041996
   127  H    0.000218
   128  H   -0.005364
   129  H    0.026169
   130  H    0.015016
   131  H    0.018213
   132  H    0.013467
   133  H    0.037141
   134  H    0.021804
   135  H    0.019119
   136  H    0.007730
   137  H    0.025368
   138  H    0.039489
   139  H    0.037728
   140  H    0.036494
   141  H    0.033112
   142  H    0.012390
   143  H    0.011982
   144  H    0.023122
   145  H    0.022352
   146  H    0.011497
   147  H    0.006028
   148  H    0.001396
   149  H    0.011164
   150  H    0.016326
   151  H    0.029595
   152  H    0.045135
   153  H    0.008178
   154  H    0.043718
   155  H    0.033415
   156  H    0.043022
   157  H    0.049935
   158  H    0.053160
 Sum of Mulliken charges =  -0.00000

 Dipole moment (field-independent basis, Debye):
    X=             -2.7089    Y=             -3.9787    Z=              0.7689  Tot=              4.8743
 Quadrupole moment (field-independent basis, Debye-Ang):
   XX=           -533.1177   YY=           -528.8876   ZZ=           -458.5526
   XY=             16.9703   XZ=             53.3019   YZ=            -19.3611

 Normal termination of Gaussian 16 at Wed Sep  8 20:38:32 2021.
