 Gaussian 16, Revision A.03,
 Gaussian 16:  ES64L-G16RevA.03 25-Dec-2016

 -----------------------------------
 #p cam-b3lyp/Def2SVP td=(nstates=5)
 -----------------------------------

 --------------------------------
 TDDFT excited states in gaussian
 --------------------------------
 Symbolic Z-matrix:
 Charge =  0 Multiplicity = 1

                         Standard orientation:
 ---------------------------------------------------------------------
 Center     Atomic      Atomic             Coordinates (Angstroms)
 Number     Number       Type             X           Y           Z
 ---------------------------------------------------------------------
      1         12           0       16.095764    0.505539    0.723540
      2          6           0       16.389390   -2.381510   -1.371918
      3          6           0       17.075474    2.369889   -1.961126
      4          6           0       16.283431    3.005432    2.665689
      5          6           0       16.251924   -1.646994    3.459939
      6          7           0       16.634072   -0.050205   -1.350591
      7          6           0       16.648225   -1.184592   -2.043510
      8          6           0       16.889967   -0.974244   -3.568203
      9          6           0       17.638019    0.432645   -3.512730
     10          6           0       17.055676    0.966409   -2.215850
     11          6           0       19.150810    0.312685   -3.359187
     12          6           0       15.551319   -0.879900   -4.374956
     13          6           0       15.694407   -1.001984   -5.894816
     14          1           0       14.649598   -1.683405   -6.644073
     15          7           0       16.127352    2.439764    0.322758
     16          6           0       16.541994    3.021656   -0.828224
     17          6           0       16.371083    4.477523   -0.633489
     18          6           0       16.002512    4.705840    0.791334
     19          6           0       16.150539    3.378011    1.330163
     20          6           0       16.507914    5.477394   -1.740415
     21          6           0       15.593548    5.928922    1.549589
     22          8           0       15.542667    5.952011    2.826872
     23          6           0       15.336099    7.141216    0.751400
     24          7           0       16.466530    0.689514    2.769590
     25          6           0       16.434145    1.883185    3.372155
     26          6           0       16.445960    1.741540    4.865385
     27          6           0       16.247310    0.185432    5.163408
     28          6           0       16.237190   -0.334784    3.704798
     29          6           0       17.712771    2.239376    5.574863
     30          6           0       15.073433   -0.207888    6.094929
     31          6           0       13.756206    0.092519    5.415394
     32          7           0       16.108332   -1.643547    1.027371
     33          6           0       16.201339   -2.321480    2.251475
     34          6           0       16.281307   -3.761105    1.943009
     35          6           0       16.245731   -3.819965    0.551207
     36          6           0       16.176092   -2.499223    0.022922
     37          6           0       16.430937   -4.809847    2.892844
     38          6           0       16.275188   -4.690072   -0.613226
     39          8           0       16.235525   -5.909109   -0.786053
     40          6           0       16.492254   -3.787992   -1.907428
     41          6           0       15.486875   -4.223079   -2.938554
     42          8           0       14.265802   -4.037937   -2.759477
     43          8           0       16.127352   -4.568018   -4.066095
     44          6           0       15.185337   -4.981839   -5.140113
     45          1           0       17.597288    3.025966   -2.660564
     46          1           0       16.240852    3.833613    3.376140
     47          1           0       16.217463   -2.383168    4.265117
     48          1           0       17.534357   -1.720419   -4.033402
     49          1           0       17.357889    1.075659   -4.346866
     50          1           0       19.452776   -0.719675   -3.183206
     51          1           0       19.406649    0.935585   -2.501845
     52          1           0       19.663182    0.754588   -4.214158
     53          1           0       15.161109    0.135524   -4.306315
     54          1           0       14.833799   -1.620388   -4.019752
     55          1           0       16.676302   -1.385805   -6.173157
     56          1           0       15.664188    0.000280   -6.322314
     57          1           0       16.945956    5.030414   -2.631972
     58          1           0       17.243619    6.213002   -1.415873
     59          1           0       15.563901    5.975057   -1.962908
     60          1           0       16.235130    7.401720    0.192445
     61          1           0       14.969039    7.890280    1.452128
     62          1           0       14.567784    6.919363    0.010169
     63          1           0       15.626876    2.299249    5.317590
     64          1           0       17.123663   -0.254950    5.639584
     65          1           0       17.520090    2.997866    6.333989
     66          1           0       18.399994    2.611677    4.815647
     67          1           0       18.310641    1.458516    6.044147
     68          1           0       15.103090    0.380494    7.011375
     69          1           0       15.081669   -1.260937    6.376480
     70          1           0       13.608283    1.150668    5.628164
     71          1           0       12.957558   -0.508704    5.851174
     72          1           0       13.832999   -0.014621    4.333216
     73          1           0       15.746081   -5.599986    2.585236
     74          1           0       16.209330   -4.464365    3.902366
     75          1           0       17.483978   -5.056117    2.757523
     76          1           0       17.516726   -3.955759   -2.238236
     77          1           0       15.480859   -5.981567   -5.458616
     78          1           0       15.199140   -4.188053   -5.887186
     79          1           0       14.153769   -5.159821   -4.834287
     80         12           0      -15.630471    0.438168   -0.544368
     81          6           0      -17.868843   -1.785794    1.165224
     82          6           0      -18.058847    2.822038   -0.310370
     83          6           0      -13.868466    2.277253   -2.436603
     84          6           0      -13.888597   -2.376521   -1.634822
     85          7           0      -17.658890    0.402513    0.336824
     86          6           0      -18.378624   -0.479391    1.013988
     87          6           0      -19.684245    0.092291    1.628880
     88          6           0      -19.897797    1.331638    0.630229
     89          6           0      -18.446571    1.563287    0.214340
     90          6           0      -20.698883    0.973637   -0.610508
     91          6           0      -19.486699    0.574599    3.108871
     92          6           0      -20.782927    0.856364    3.871870
     93          1           0      -20.832363    0.546853    5.298134
     94          7           0      -15.693131    2.397836   -0.851558
     95          6           0      -16.754961    3.214015   -0.685295
     96          6           0      -16.291918    4.558477   -1.062364
     97          6           0      -14.917839    4.441596   -1.621786
     98          6           0      -14.778169    3.000299   -1.678835
     99          6           0      -17.098324    5.798420   -0.806145
    100          6           0      -13.902987    5.458616   -2.048335
    101          8           0      -12.866335    5.131613   -2.727476
    102          6           0      -14.205860    6.861208   -1.728184
    103          7           0      -14.228038    0.010511   -2.018345
    104          6           0      -13.569067    0.996210   -2.652460
    105          6           0      -12.420955    0.449013   -3.466588
    106          6           0      -12.296821   -1.090937   -3.053397
    107          6           0      -13.504476   -1.194236   -2.096161
    108          6           0      -12.569926    0.558134   -4.983922
    109          6           0      -10.909823   -1.574488   -2.548331
    110          6           0      -10.591212   -0.929618   -1.218659
    111          7           0      -15.703992   -1.685189   -0.151928
    112          6           0      -14.899963   -2.688787   -0.735371
    113          6           0      -15.398775   -3.988448   -0.240912
    114          6           0      -16.481572   -3.649409    0.584373
    115          6           0      -16.658621   -2.239398    0.586995
    116          6           0      -14.889205   -5.267305   -0.602841
    117          6           0      -17.521688   -4.164436    1.445536
    118          8           0      -17.810703   -5.274516    1.890440
    119          6           0      -18.545217   -2.989722    1.759951
    120          6           0      -18.807118   -2.985894    3.241137
    121          8           0      -17.896692   -2.713271    4.043263
    122          8           0      -20.131482   -3.089945    3.454700
    123          6           0      -20.442279   -3.079423    4.909044
    124          1           0      -18.832284    3.568668   -0.492610
    125          1           0      -13.164171    2.872558   -3.022303
    126          1           0      -13.337878   -3.294494   -1.850966
    127          1           0      -20.537598   -0.573631    1.582833
    128          1           0      -20.287069    2.199794    1.155704
    129          1           0      -20.892126   -0.086965   -0.673177
    130          1           0      -20.100471    1.299500   -1.451199
    131          1           0      -21.618853    1.564024   -0.648571
    132          1           0      -19.050027    1.581578    3.102028
    133          1           0      -18.887254   -0.123436    3.660267
    134          1           0      -21.660891    0.445428    3.358777
    135          1           0      -20.955586    1.935344    3.876065
    136          1           0      -18.133522    5.556282   -0.535728
    137          1           0      -17.183785    6.327383   -1.761530
    138          1           0      -16.630376    6.461726   -0.075571
    139          1           0      -15.150947    7.140569   -2.187775
    140          1           0      -13.323338    7.427465   -2.032120
    141          1           0      -14.344056    6.950817   -0.644913
    142          1           0      -11.495773    0.954919   -3.219203
    143          1           0      -12.509732   -1.758689   -3.901098
    144          1           0      -11.740113    1.109137   -5.465453
    145          1           0      -13.517759    1.032684   -5.200583
    146          1           0      -12.661752   -0.391439   -5.508404
    147          1           0      -10.124523   -1.261909   -3.240969
    148          1           0      -10.838996   -2.652243   -2.446320
    149          1           0      -10.187084    0.045183   -1.507692
    150          1           0       -9.854098   -1.516991   -0.674891
    151          1           0      -11.504491   -0.749330   -0.639804
    152          1           0      -14.828959   -5.847674    0.308221
    153          1           0      -13.918828   -5.185824   -1.088137
    154          1           0      -15.667814   -5.598720   -1.295085
    155          1           0      -19.451508   -3.182085    1.184457
    156          1           0      -21.017416   -3.986427    5.119404
    157          1           0      -20.941066   -2.110852    5.100939
    158          1           0      -19.614116   -3.189293    5.599341
 ---------------------------------------------------------------------

 SCF Done:  E(RCAM-B3LYP) =  -4069.81176767     A.U. after   19 cycles

 Excitation energies and oscillator strengths:

 Excited State   1:      Singlet-A      1.6753 eV  740.07 nm  f=0.2137  <S**2>=0.000
     310 -> 316        0.16865
     311 -> 313        0.66672
     312 -> 314       -0.16173
     310 <- 316        0.10167
 This state for optimization and/or second-order correction.
 Total Energy, E(TD-HF/TD-DFT) =  -4069.75020173
 Copying the excited state density for this state as the 1-particle RhoCI density.

 Excited State   2:      Singlet-A      1.6801 eV  737.95 nm  f=0.5638  <S**2>=0.000
     309 -> 315        0.17067
     311 -> 313        0.16168
     312 -> 314        0.66635
     309 <- 315        0.10218

 Excited State   3:      Singlet-A      2.1861 eV  567.15 nm  f=0.1007  <S**2>=0.000
     310 -> 313        0.64238
     311 -> 316       -0.27308

 Excited State   4:      Singlet-A      2.1925 eV  565.48 nm  f=0.1004  <S**2>=0.000
     309 -> 314        0.64061
     312 -> 315       -0.27827

 Excited State   5:      Singlet-A      3.0602 eV  405.16 nm  f=0.0000  <S**2>=0.000
     312 -> 313        0.70711

 The electronic state is 1-A.
 Alpha  occ. eigenvalues --  -46.87760 -46.87660 -19.26349 -19.26249 -19.19160
 Alpha  occ. eigenvalues --  -19.18984 -19.18779 -19.18715 -19.18134 -19.18051
 Alpha  occ. eigenvalues --  -14.42498 -14.42414 -14.41414 -14.41359 -14.39367
 Alpha  occ. eigenvalues --  -14.39352 -14.38600 -14.38551 -10.39090 -10.39044
 Alpha  occ. eigenvalues --  -10.35412 -10.35392 -10.34354 -10.34228 -10.31755
 Alpha  occ. eigenvalues --  -10.31645 -10.31370 -10.31309 -10.31024 -10.30873
 Alpha  occ. eigenvalues --  -10.30534 -10.30472 -10.30397 -10.30360 -10.30171
 Alpha  occ. eigenvalues --  -10.30141 -10.29894 -10.29885 -10.29595 -10.29437
 Alpha  occ. eigenvalues --  -10.29401 -10.29219 -10.28720 -10.28714 -10.28655
 Alpha  occ. eigenvalues --  -10.28504 -10.28405 -10.28329 -10.28142 -10.28082
 Alpha  occ. eigenvalues --  -10.28001 -10.27757 -10.27692 -10.27670 -10.27549
 Alpha  occ. eigenvalues --  -10.27515 -10.27484 -10.27469 -10.27465 -10.27465
 Alpha  occ. eigenvalues --  -10.27446 -10.27414 -10.27374 -10.27368 -10.27123
 Alpha  occ. eigenvalues --  -10.27051 -10.26693 -10.26669 -10.26417 -10.26374
 Alpha  occ. eigenvalues --  -10.26201 -10.26146 -10.26130 -10.26029 -10.25983
 Alpha  occ. eigenvalues --  -10.25933 -10.25849 -10.25808 -10.25401 -10.25398
 Alpha  occ. eigenvalues --  -10.24873 -10.24797 -10.24752 -10.24721 -10.24690
 Alpha  occ. eigenvalues --  -10.24647  -3.16503  -3.16410  -1.91385  -1.91292
 Alpha  occ. eigenvalues --   -1.90971  -1.90881  -1.90814  -1.90718  -1.16643
 Alpha  occ. eigenvalues --   -1.16598  -1.08658  -1.08592  -1.07180  -1.06968
 Alpha  occ. eigenvalues --   -1.06945  -1.06607  -1.04545  -1.04496  -1.03725
 Alpha  occ. eigenvalues --   -1.03663  -1.03198  -1.03039  -1.02375  -1.02111
 Alpha  occ. eigenvalues --   -0.91987  -0.91937  -0.89492  -0.89483  -0.89153
 Alpha  occ. eigenvalues --   -0.89152  -0.88251  -0.88218  -0.87835  -0.87793
 Alpha  occ. eigenvalues --   -0.87684  -0.87637  -0.87238  -0.87121  -0.85000
 Alpha  occ. eigenvalues --   -0.84947  -0.83900  -0.83873  -0.82932  -0.82931
 Alpha  occ. eigenvalues --   -0.82653  -0.82613  -0.81596  -0.81550  -0.80561
 Alpha  occ. eigenvalues --   -0.80443  -0.78762  -0.78636  -0.77183  -0.77144
 Alpha  occ. eigenvalues --   -0.76899  -0.76898  -0.75888  -0.75839  -0.74863
 Alpha  occ. eigenvalues --   -0.74802  -0.72739  -0.72699  -0.71637  -0.71581
 Alpha  occ. eigenvalues --   -0.69870  -0.69753  -0.68838  -0.68828  -0.67606
 Alpha  occ. eigenvalues --   -0.67602  -0.67200  -0.67184  -0.65272  -0.65251
 Alpha  occ. eigenvalues --   -0.64818  -0.64770  -0.64654  -0.64585  -0.64233
 Alpha  occ. eigenvalues --   -0.64202  -0.62278  -0.62262  -0.60406  -0.60340
 Alpha  occ. eigenvalues --   -0.59797  -0.59769  -0.58993  -0.58952  -0.58468
 Alpha  occ. eigenvalues --   -0.58425  -0.57554  -0.57549  -0.57273  -0.57236
 Alpha  occ. eigenvalues --   -0.56274  -0.56204  -0.55943  -0.55886  -0.55485
 Alpha  occ. eigenvalues --   -0.55452  -0.55304  -0.55246  -0.54488  -0.54486
 Alpha  occ. eigenvalues --   -0.53913  -0.53860  -0.53263  -0.53227  -0.53187
 Alpha  occ. eigenvalues --   -0.53142  -0.52902  -0.52879  -0.52721  -0.52669
 Alpha  occ. eigenvalues --   -0.52401  -0.52396  -0.51884  -0.51879  -0.51659
 Alpha  occ. eigenvalues --   -0.51581  -0.51200  -0.51160  -0.50536  -0.50476
 Alpha  occ. eigenvalues --   -0.49995  -0.49980  -0.49883  -0.49866  -0.49488
 Alpha  occ. eigenvalues --   -0.49479  -0.49203  -0.49179  -0.49105  -0.49061
 Alpha  occ. eigenvalues --   -0.48559  -0.48558  -0.48426  -0.48410  -0.48375
 Alpha  occ. eigenvalues --   -0.48339  -0.47659  -0.47595  -0.47261  -0.47119
 Alpha  occ. eigenvalues --   -0.46761  -0.46708  -0.46555  -0.46520  -0.46323
 Alpha  occ. eigenvalues --   -0.46270  -0.46127  -0.46085  -0.45822  -0.45787
 Alpha  occ. eigenvalues --   -0.45208  -0.45166  -0.44542  -0.44514  -0.44476
 Alpha  occ. eigenvalues --   -0.44471  -0.44128  -0.44108  -0.44076  -0.44053
 Alpha  occ. eigenvalues --   -0.43984  -0.43940  -0.43552  -0.43459  -0.43386
 Alpha  occ. eigenvalues --   -0.43350  -0.42992  -0.42930  -0.42901  -0.42663
 Alpha  occ. eigenvalues --   -0.42618  -0.42551  -0.41973  -0.41962  -0.41669
 Alpha  occ. eigenvalues --   -0.41668  -0.41498  -0.41458  -0.41106  -0.40990
 Alpha  occ. eigenvalues --   -0.40833  -0.40787  -0.40723  -0.40698  -0.40535
 Alpha  occ. eigenvalues --   -0.40491  -0.40228  -0.40199  -0.39421  -0.39403
 Alpha  occ. eigenvalues --   -0.38433  -0.38349  -0.37713  -0.37654  -0.37284
 Alpha  occ. eigenvalues --   -0.37265  -0.37228  -0.37200  -0.36770  -0.36678
 Alpha  occ. eigenvalues --   -0.36216  -0.36157  -0.34253  -0.34250  -0.33861
 Alpha  occ. eigenvalues --   -0.33735  -0.33175  -0.33151  -0.31309  -0.31274
 Alpha  occ. eigenvalues --   -0.31000  -0.30973  -0.29994  -0.29955  -0.29413
 Alpha  occ. eigenvalues --   -0.29328  -0.29286  -0.29212  -0.24045  -0.24036
 Alpha  occ. eigenvalues --   -0.21117  -0.21092
 Alpha virt. eigenvalues --   -0.08792  -0.08738  -0.01714  -0.01684  -0.00029
 Alpha virt. eigenvalues --   -0.00022   0.02207   0.02236   0.03159   0.03229
 Alpha virt. eigenvalues --    0.04729   0.04753   0.05133   0.05166   0.06182

 Mulliken charges:
               1
     1  Mg   0.838713
     2  C   -0.002961
     3  C   -0.094114
     4  C   -0.045839
     5  C   -0.063967
     6  N   -0.256764
     7  C   -0.052470
     8  C   -0.014004
     9  C   -0.087013
    10  C    0.046322
    11  C    0.104824
    12  C    0.053467
    13  C   -0.071808
    14  H    0.036146
    15  N   -0.433114
    16  C    0.168434
    17  C   -0.177154
    18  C   -0.004001
    19  C    0.148709
    20  C    0.110189
    21  C    0.012303
    22  O   -0.249623
    23  C    0.062460
    24  N   -0.341129
    25  C    0.041231
    26  C   -0.028170
    27  C   -0.023986
    28  C    0.074857
    29  C    0.076182
    30  C    0.035134
    31  C   -0.004513
    32  N   -0.310482
    33  C    0.080426
    34  C   -0.169710
    35  C    0.008348
    36  C    0.083007
    37  C    0.127308
    38  C    0.046122
    39  O   -0.188452
    40  C   -0.005327
    41  C    0.212860
    42  O   -0.257069
    43  O   -0.304812
    44  C    0.157695
    45  H   -0.017626
    46  H   -0.016842
    47  H   -0.041488
    48  H    0.000914
    49  H   -0.004031
    50  H    0.025457
    51  H    0.016436
    52  H    0.016631
    53  H    0.011231
    54  H    0.044139
    55  H    0.017838
    56  H    0.017954
    57  H    0.005861
    58  H    0.026794
    59  H    0.039582
    60  H    0.037318
    61  H    0.035657
    62  H    0.031546
    63  H    0.016578
    64  H    0.009436
    65  H    0.023204
    66  H    0.012521
    67  H    0.004730
    68  H    0.006360
    69  H    0.004732
    70  H    0.008795
    71  H    0.018196
    72  H    0.028989
    73  H    0.047587
    74  H    0.009124
    75  H    0.045977
    76  H    0.035121
    77  H    0.042922
    78  H    0.046396
    79  H    0.053707
    80  Mg   0.837866
    81  C   -0.016818
    82  C   -0.087792
    83  C   -0.045500
    84  C   -0.064857
    85  N   -0.254569
    86  C   -0.049846
    87  C   -0.015075
    88  C   -0.090530
    89  C    0.045749
    90  C    0.114381
    91  C    0.062523
    92  C   -0.077908
    93  H    0.034934
    94  N   -0.423475
    95  C    0.162912
    96  C   -0.174630
    97  C   -0.007805
    98  C    0.152099
    99  C    0.099366
   100  C    0.015573
   101  O   -0.253169
   102  C    0.061196
   103  N   -0.350066
   104  C    0.037529
   105  C   -0.019851
   106  C   -0.034838
   107  C    0.088922
   108  C    0.073676
   109  C    0.034726
   110  C   -0.007689
   111  N   -0.324107
   112  C    0.078457
   113  C   -0.163093
   114  C    0.002250
   115  C    0.096205
   116  C    0.131478
   117  C    0.042401
   118  O   -0.187851
   119  C    0.000911
   120  C    0.211276
   121  O   -0.250985
   122  O   -0.305651
   123  C    0.152025
   124  H   -0.019685
   125  H   -0.015573
   126  H   -0.040390
   127  H   -0.000660
   128  H   -0.004324
   129  H    0.022450
   130  H    0.014411
   131  H    0.016268
   132  H    0.013930
   133  H    0.037700
   134  H    0.020771
   135  H    0.019591
   136  H    0.008751
   137  H    0.026116
   138  H    0.039808
   139  H    0.038226
   140  H    0.036389
   141  H    0.033917
   142  H    0.014445
   143  H    0.012421
   144  H    0.025149
   145  H    0.011587
   146  H    0.005672
   147  H    0.006319
   148  H    0.003716
   149  H    0.010940
   150  H    0.018070
   151  H    0.030058
   152  H    0.046064
   153  H    0.008585
   154  H    0.046923
   155  H    0.034999
   156  H    0.043913
   157  H    0.049484
   158  H    0.053609
 Sum of Mulliken charges =  -0.00000

 Dipole moment (field-independent basis, Debye):
    X=             -0.3289    Y=              7.0138    Z=             -3.4152  Tot=              7.8080
 Quadrupole moment (field-independent basis, Debye-Ang):
   XX=           -349.4627   YY=           -541.3347   ZZ=           -479.4969
   XY=            -26.5591   XZ=            -24.8228   YZ=             -0.3296

 Normal termination of Gaussian 16 at Sun Sep 12 10:36:14 2021.
