 Gaussian 16, Revision A.03,
 Gaussian 16:  ES64L-G16RevA.03 25-Dec-2016

 -----------------------------------
 #p cam-b3lyp/Def2SVP td=(nstates=5)
 -----------------------------------

 --------------------------------
 TDDFT excited states in gaussian
 --------------------------------
 Symbolic Z-matrix:
 Charge =  0 Multiplicity = 1

                         Standard orientation:
 ---------------------------------------------------------------------
 Center     Atomic      Atomic             Coordinates (Angstroms)
 Number     Number       Type             X           Y           Z
 ---------------------------------------------------------------------
      1         12           0      -15.750571   -0.812632    0.051067
      2          6           0      -15.962368    2.752057    0.296729
      3          6           0      -16.620532   -0.489128   -3.232464
      4          6           0      -16.013852   -3.970275   -0.077750
      5          6           0      -16.017869   -0.920219    3.524198
      6          7           0      -16.205852    0.959854   -1.194589
      7          6           0      -16.193157    2.274096   -0.995143
      8          6           0      -16.373496    3.099420   -2.304223
      9          6           0      -17.122050    2.005576   -3.190322
     10          6           0      -16.591669    0.748526   -2.523654
     11          6           0      -18.639870    2.036737   -3.042832
     12          6           0      -15.003548    3.512215   -2.940284
     13          6           0      -15.085772    4.586431   -4.028702
     14          1           0      -14.012346    5.563509   -4.130799
     15          7           0      -15.764549   -2.034838   -1.500985
     16          6           0      -16.132317   -1.729857   -2.768668
     17          6           0      -15.968181   -2.973842   -3.551127
     18          6           0      -15.656766   -4.073950   -2.596728
     19          6           0      -15.827302   -3.400184   -1.334851
     20          6           0      -16.059790   -3.024141   -5.045392
     21          6           0      -15.277513   -5.508025   -2.790966
     22          8           0      -15.277790   -6.348181   -1.827269
     23          6           0      -14.987351   -5.929348   -4.173477
     24          7           0      -16.202807   -2.259605    1.486123
     25          6           0      -16.193621   -3.561597    1.179991
     26          6           0      -16.265320   -4.412909    2.412901
     27          6           0      -16.079999   -3.418290    3.648273
     28          6           0      -16.011906   -2.082531    2.867644
     29          6           0      -17.559123   -5.218291    2.595776
     30          6           0      -14.944670   -3.745623    4.650420
     31          6           0      -13.601055   -3.571826    3.978413
     32          7           0      -15.777003    0.637498    1.665834
     33          6           0      -15.919482    0.371792    3.035423
     34          6           0      -15.988182    1.674177    3.723275
     35          6           0      -15.896961    2.613169    2.697694
     36          6           0      -15.805177    1.940022    1.445999
     37          6           0      -16.176552    1.870091    5.119903
     38          6           0      -15.880469    4.028635    2.365970
     39          8           0      -15.834888    5.071942    3.019365
     40          6           0      -16.044830    4.175620    0.788881
     41          6           0      -14.999322    5.146339    0.311464
     42          8           0      -13.786250    4.858766    0.367359
     43          8           0      -15.594419    6.151430   -0.348985
     44          6           0      -14.610491    7.135040   -0.874867
     45          1           0      -17.113404   -0.528552   -4.205842
     46          1           0      -15.999091   -5.062099   -0.065882
     47          1           0      -16.016257   -0.875206    4.614805
     48          1           0      -16.999339    3.985923   -2.200020
     49          1           0      -16.808238    2.042584   -4.233334
     50          1           0      -18.949460    2.721474   -2.253396
     51          1           0      -18.929332    1.015124   -2.795826
     52          1           0      -19.117250    2.261026   -3.997075
     53          1           0      -14.615591    2.680949   -3.528967
     54          1           0      -14.301414    3.832651   -2.169795
     55          1           0      -16.056041    5.083900   -4.025235
     56          1           0      -15.037665    4.093276   -4.999621
     57          1           0      -16.462144   -2.097748   -5.453378
     58          1           0      -16.807313   -3.777413   -5.293385
     59          1           0      -15.107231   -3.285804   -5.506364
     60          1           0      -15.863075   -5.746789   -4.796636
     61          1           0      -14.648043   -6.962517   -4.108030
     62          1           0      -14.190153   -5.302283   -4.573745
     63          1           0      -15.464554   -5.151178    2.425464
     64          1           0      -16.975063   -3.365278    4.268534
     65          1           0      -17.396384   -6.291834    2.694393
     66          1           0      -18.215103   -4.997887    1.754109
     67          1           0      -18.175923   -4.907211    3.438513
     68          1           0      -15.010525   -4.784501    4.971890
     69          1           0      -14.965009   -3.120310    5.543068
     70          1           0      -13.460926   -4.522369    3.464931
     71          1           0      -12.820972   -3.411843    4.723455
     72          1           0      -13.634547   -2.792114    3.217220
     73          1           0      -15.480560    2.655498    5.414350
     74          1           0      -15.995265    0.950996    5.676680
     75          1           0      -17.223527    2.172100    5.142042
     76          1           0      -17.055369    4.542499    0.611877
     77          1           0      -14.893821    8.112553   -0.484446
     78          1           0      -14.593743    7.008048   -1.957455
     79          1           0      -13.592136    7.048719   -0.494287
     80         12           0       16.007656   -0.730070    0.103468
     81          6           0       15.327676    2.789086    0.282983
     82          6           0       15.589866   -0.486818   -3.273048
     83          6           0       16.155974   -3.896131   -0.043033
     84          6           0       15.248203   -0.908958    3.500075
     85          7           0       15.524150    0.984191   -1.207933
     86          6           0       15.348445    2.285482   -1.034369
     87          6           0       15.265951    3.104542   -2.350384
     88          6           0       14.787411    1.929782   -3.335168
     89          6           0       15.363198    0.731226   -2.583766
     90          6           0       13.277010    1.774116   -3.396903
     91          6           0       16.658704    3.684187   -2.781960
     92          6           0       16.600299    4.746099   -3.882269
     93          1           0       17.556877    5.848545   -3.837089
     94          7           0       16.372994   -1.928783   -1.435418
     95          6           0       16.165729   -1.661832   -2.741963
     96          6           0       16.574818   -2.872998   -3.469883
     97          6           0       16.885226   -3.935640   -2.475323
     98          6           0       16.454025   -3.287007   -1.253270
     99          6           0       16.716929   -2.915562   -4.963681
    100          6           0       17.461403   -5.313161   -2.604450
    101          8           0       17.422777   -6.152630   -1.636653
    102          6           0       17.988255   -5.682139   -3.926491
    103          7           0       15.537980   -2.228158    1.466371
    104          6           0       15.745804   -3.522957    1.169335
    105          6           0       15.596031   -4.394303    2.393550
    106          6           0       15.481743   -3.384408    3.628312
    107          6           0       15.496276   -2.044023    2.861135
    108          6           0       14.393633   -5.338039    2.395316
    109          6           0       16.490222   -3.580233    4.793340
    110          6           0       17.889440   -3.250258    4.325691
    111          7           0       15.577476    0.685799    1.677746
    112          6           0       15.261687    0.395551    3.023146
    113          6           0       14.936234    1.677949    3.680368
    114          6           0       15.063899    2.630153    2.657879
    115          6           0       15.422544    1.984183    1.443964
    116          6           0       14.534027    1.839321    5.036215
    117          6           0       14.966456    4.033601    2.326923
    118          8           0       14.782801    5.066837    2.969130
    119          6           0       15.009473    4.183980    0.745174
    120          6           0       15.989592    5.274250    0.408728
    121          8           0       17.200389    5.133918    0.655524
    122          8           0       15.372676    6.205198   -0.341678
    123          6           0       16.307026    7.302076   -0.710013
    124          1           0       15.257457   -0.566666   -4.308429
    125          1           0       16.299781   -4.978648   -0.011974
    126          1           0       15.096809   -0.868509    4.580871
    127          1           0       14.534971    3.904147   -2.342706
    128          1           0       15.248795    2.023137   -4.314841
    129          1           0       12.777310    2.403497   -2.675569
    130          1           0       13.080098    0.730517   -3.189146
    131          1           0       12.921177    1.950896   -4.415950
    132          1           0       17.225267    2.902888   -3.304756
    133          1           0       17.189609    4.071241   -1.934032
    134          1           0       15.582824    5.126141   -4.034740
    135          1           0       16.855482    4.273944   -4.834099
    136          1           0       16.261360   -2.036647   -5.436289
    137          1           0       16.113489   -3.758101   -5.318411
    138          1           0       17.750609   -3.061375   -5.284464
    139          1           0       17.197070   -5.595902   -4.667458
    140          1           0       18.437283   -6.668813   -3.797143
    141          1           0       18.763215   -4.960515   -4.208114
    142          1           0       16.468771   -5.020708    2.531508
    143          1           0       14.501127   -3.453442    4.121745
    144          1           0       14.672983   -6.400642    2.525351
    145          1           0       13.848803   -5.198447    1.471076
    146          1           0       13.635781   -5.119043    3.145582
    147          1           0       16.506828   -4.626586    5.108007
    148          1           0       16.258868   -2.984030    5.669691
    149          1           0       18.212671   -4.176593    3.841427
    150          1           0       18.527864   -3.003533    5.171612
    151          1           0       17.873782   -2.466051    3.559906
    152          1           0       15.072918    2.694856    5.421107
    153          1           0       14.737701    0.944421    5.620536
    154          1           0       13.461983    2.007377    4.902949
    155          1           0       13.999324    4.424276    0.411359
    156          1           0       15.849642    8.237752   -0.373871
    157          1           0       16.485591    7.190345   -1.796000
    158          1           0       17.262682    7.338738   -0.200274
 ---------------------------------------------------------------------

 SCF Done:  E(RCAM-B3LYP) =  -4069.81175813     A.U. after   19 cycles

 Excitation energies and oscillator strengths:

 Excited State   1:      Singlet-A      1.6753 eV  740.06 nm  f=0.2135  <S**2>=0.000
     310 -> 316        0.16848
     311 -> 314       -0.16442
     312 -> 313        0.66606
     310 <- 316        0.10157
 This state for optimization and/or second-order correction.
 Total Energy, E(TD-HF/TD-DFT) =  -4069.75019130
 Copying the excited state density for this state as the 1-particle RhoCI density.

 Excited State   2:      Singlet-A      1.6801 eV  737.95 nm  f=0.5640  <S**2>=0.000
     309 -> 315        0.17049
     311 -> 314        0.66569
     312 -> 313        0.16437
     309 <- 315        0.10207

 Excited State   3:      Singlet-A      2.1861 eV  567.15 nm  f=0.0949  <S**2>=0.000
     310 -> 313        0.64208
     312 -> 316       -0.27294

 Excited State   4:      Singlet-A      2.1925 eV  565.49 nm  f=0.1052  <S**2>=0.000
     309 -> 314        0.64031
     311 -> 315       -0.27813

 Excited State   5:      Singlet-A      3.0639 eV  404.67 nm  f=0.0000  <S**2>=0.000
     311 -> 313        0.70711

 The electronic state is 1-A.
 Alpha  occ. eigenvalues --  -46.87789 -46.87660 -19.26347 -19.26274 -19.19158
 Alpha  occ. eigenvalues --  -19.19010 -19.18809 -19.18715 -19.18161 -19.18049
 Alpha  occ. eigenvalues --  -14.42497 -14.42442 -14.41442 -14.41359 -14.39395
 Alpha  occ. eigenvalues --  -14.39352 -14.38599 -14.38579 -10.39088 -10.39070
 Alpha  occ. eigenvalues --  -10.35442 -10.35393 -10.34380 -10.34226 -10.31753
 Alpha  occ. eigenvalues --  -10.31669 -10.31397 -10.31308 -10.31023 -10.30902
 Alpha  occ. eigenvalues --  -10.30562 -10.30500 -10.30397 -10.30360 -10.30199
 Alpha  occ. eigenvalues --  -10.30141 -10.29913 -10.29894 -10.29623 -10.29436
 Alpha  occ. eigenvalues --  -10.29400 -10.29247 -10.28742 -10.28718 -10.28654
 Alpha  occ. eigenvalues --  -10.28531 -10.28404 -10.28357 -10.28140 -10.28109
 Alpha  occ. eigenvalues --  -10.28000 -10.27785 -10.27720 -10.27669 -10.27577
 Alpha  occ. eigenvalues --  -10.27517 -10.27493 -10.27483 -10.27476 -10.27468
 Alpha  occ. eigenvalues --  -10.27465 -10.27442 -10.27396 -10.27375 -10.27149
 Alpha  occ. eigenvalues --  -10.27048 -10.26697 -10.26693 -10.26417 -10.26406
 Alpha  occ. eigenvalues --  -10.26227 -10.26175 -10.26137 -10.26024 -10.26011
 Alpha  occ. eigenvalues --  -10.25934 -10.25847 -10.25834 -10.25428 -10.25397
 Alpha  occ. eigenvalues --  -10.24872 -10.24825 -10.24780 -10.24731 -10.24689
 Alpha  occ. eigenvalues --  -10.24678  -3.16532  -3.16410  -1.91413  -1.91292
 Alpha  occ. eigenvalues --   -1.91000  -1.90881  -1.90842  -1.90718  -1.16641
 Alpha  occ. eigenvalues --   -1.16623  -1.08656  -1.08618  -1.07210  -1.06968
 Alpha  occ. eigenvalues --   -1.06943  -1.06633  -1.04573  -1.04495  -1.03753
 Alpha  occ. eigenvalues --   -1.03663  -1.03226  -1.03038  -1.02403  -1.02111
 Alpha  occ. eigenvalues --   -0.91986  -0.91964  -0.89512  -0.89494  -0.89180
 Alpha  occ. eigenvalues --   -0.89151  -0.88279  -0.88220  -0.87862  -0.87792
 Alpha  occ. eigenvalues --   -0.87683  -0.87665  -0.87267  -0.87121  -0.84999
 Alpha  occ. eigenvalues --   -0.84975  -0.83928  -0.83876  -0.82961  -0.82932
 Alpha  occ. eigenvalues --   -0.82652  -0.82641  -0.81595  -0.81577  -0.80588
 Alpha  occ. eigenvalues --   -0.80442  -0.78790  -0.78635  -0.77211  -0.77144
 Alpha  occ. eigenvalues --   -0.76926  -0.76897  -0.75915  -0.75838  -0.74890
 Alpha  occ. eigenvalues --   -0.74802  -0.72766  -0.72698  -0.71664  -0.71580
 Alpha  occ. eigenvalues --   -0.69899  -0.69757  -0.68866  -0.68827  -0.67633
 Alpha  occ. eigenvalues --   -0.67601  -0.67213  -0.67200  -0.65279  -0.65271
 Alpha  occ. eigenvalues --   -0.64845  -0.64769  -0.64653  -0.64613  -0.64261
 Alpha  occ. eigenvalues --   -0.64203  -0.62289  -0.62277  -0.60435  -0.60340
 Alpha  occ. eigenvalues --   -0.59797  -0.59796  -0.58992  -0.58979  -0.58496
 Alpha  occ. eigenvalues --   -0.58425  -0.57576  -0.57552  -0.57301  -0.57236
 Alpha  occ. eigenvalues --   -0.56302  -0.56204  -0.55970  -0.55885  -0.55513
 Alpha  occ. eigenvalues --   -0.55452  -0.55331  -0.55247  -0.54515  -0.54487
 Alpha  occ. eigenvalues --   -0.53912  -0.53887  -0.53291  -0.53227  -0.53215
 Alpha  occ. eigenvalues --   -0.53141  -0.52906  -0.52901  -0.52749  -0.52669
 Alpha  occ. eigenvalues --   -0.52430  -0.52401  -0.51906  -0.51882  -0.51658
 Alpha  occ. eigenvalues --   -0.51609  -0.51200  -0.51188  -0.50567  -0.50476
 Alpha  occ. eigenvalues --   -0.50024  -0.49980  -0.49912  -0.49867  -0.49507
 Alpha  occ. eigenvalues --   -0.49488  -0.49207  -0.49202  -0.49103  -0.49088
 Alpha  occ. eigenvalues --   -0.48585  -0.48557  -0.48454  -0.48438  -0.48375
 Alpha  occ. eigenvalues --   -0.48339  -0.47687  -0.47594  -0.47289  -0.47118
 Alpha  occ. eigenvalues --   -0.46789  -0.46708  -0.46554  -0.46548  -0.46351
 Alpha  occ. eigenvalues --   -0.46270  -0.46154  -0.46084  -0.45820  -0.45813
 Alpha  occ. eigenvalues --   -0.45208  -0.45194  -0.44569  -0.44513  -0.44500
 Alpha  occ. eigenvalues --   -0.44476  -0.44137  -0.44127  -0.44081  -0.44078
 Alpha  occ. eigenvalues --   -0.44012  -0.43939  -0.43552  -0.43486  -0.43385
 Alpha  occ. eigenvalues --   -0.43378  -0.43019  -0.42929  -0.42900  -0.42690
 Alpha  occ. eigenvalues --   -0.42646  -0.42553  -0.42001  -0.41964  -0.41696
 Alpha  occ. eigenvalues --   -0.41668  -0.41526  -0.41458  -0.41133  -0.40989
 Alpha  occ. eigenvalues --   -0.40862  -0.40817  -0.40723  -0.40698  -0.40563
 Alpha  occ. eigenvalues --   -0.40493  -0.40227  -0.40227  -0.39433  -0.39425
 Alpha  occ. eigenvalues --   -0.38461  -0.38350  -0.37741  -0.37654  -0.37312
 Alpha  occ. eigenvalues --   -0.37265  -0.37256  -0.37199  -0.36769  -0.36704
 Alpha  occ. eigenvalues --   -0.36216  -0.36184  -0.34278  -0.34253  -0.33860
 Alpha  occ. eigenvalues --   -0.33761  -0.33178  -0.33175  -0.31339  -0.31274
 Alpha  occ. eigenvalues --   -0.31028  -0.30972  -0.30020  -0.29953  -0.29442
 Alpha  occ. eigenvalues --   -0.29327  -0.29314  -0.29210  -0.24073  -0.24035
 Alpha  occ. eigenvalues --   -0.21120  -0.21116
 Alpha virt. eigenvalues --   -0.08791  -0.08767  -0.01742  -0.01684  -0.00051
 Alpha virt. eigenvalues --   -0.00029   0.02208   0.02209   0.03131   0.03227
 Alpha virt. eigenvalues --    0.04726   0.04730   0.05108   0.05167   0.06183

 Mulliken charges:
               1
     1  Mg   0.838786
     2  C   -0.002965
     3  C   -0.094127
     4  C   -0.045879
     5  C   -0.063959
     6  N   -0.256782
     7  C   -0.052459
     8  C   -0.014019
     9  C   -0.087002
    10  C    0.046326
    11  C    0.104813
    12  C    0.053471
    13  C   -0.071795
    14  H    0.036137
    15  N   -0.433143
    16  C    0.168420
    17  C   -0.177176
    18  C   -0.004013
    19  C    0.148714
    20  C    0.110185
    21  C    0.012272
    22  O   -0.249635
    23  C    0.062483
    24  N   -0.341177
    25  C    0.041258
    26  C   -0.028180
    27  C   -0.023976
    28  C    0.074864
    29  C    0.076168
    30  C    0.035118
    31  C   -0.004503
    32  N   -0.310472
    33  C    0.080421
    34  C   -0.169684
    35  C    0.008360
    36  C    0.082974
    37  C    0.127305
    38  C    0.046142
    39  O   -0.188401
    40  C   -0.005325
    41  C    0.212871
    42  O   -0.257089
    43  O   -0.304803
    44  C    0.157689
    45  H   -0.017622
    46  H   -0.016847
    47  H   -0.041474
    48  H    0.000945
    49  H   -0.004048
    50  H    0.025479
    51  H    0.016443
    52  H    0.016645
    53  H    0.011193
    54  H    0.044138
    55  H    0.017870
    56  H    0.017927
    57  H    0.005863
    58  H    0.026807
    59  H    0.039523
    60  H    0.037337
    61  H    0.035629
    62  H    0.031488
    63  H    0.016550
    64  H    0.009463
    65  H    0.023203
    66  H    0.012539
    67  H    0.004755
    68  H    0.006363
    69  H    0.004750
    70  H    0.008768
    71  H    0.018170
    72  H    0.028980
    73  H    0.047607
    74  H    0.009124
    75  H    0.046011
    76  H    0.035149
    77  H    0.042964
    78  H    0.046381
    79  H    0.053713
    80  Mg   0.837879
    81  C   -0.016841
    82  C   -0.087783
    83  C   -0.045517
    84  C   -0.064872
    85  N   -0.254563
    86  C   -0.049832
    87  C   -0.015086
    88  C   -0.090498
    89  C    0.045749
    90  C    0.114371
    91  C    0.062515
    92  C   -0.077889
    93  H    0.034905
    94  N   -0.423502
    95  C    0.162912
    96  C   -0.174638
    97  C   -0.007813
    98  C    0.152132
    99  C    0.099381
   100  C    0.015561
   101  O   -0.253183
   102  C    0.061200
   103  N   -0.350079
   104  C    0.037529
   105  C   -0.019841
   106  C   -0.034830
   107  C    0.088943
   108  C    0.073638
   109  C    0.034732
   110  C   -0.007677
   111  N   -0.324119
   112  C    0.078459
   113  C   -0.163106
   114  C    0.002259
   115  C    0.096195
   116  C    0.131491
   117  C    0.042414
   118  O   -0.187802
   119  C    0.000922
   120  C    0.211249
   121  O   -0.251035
   122  O   -0.305613
   123  C    0.152033
   124  H   -0.019674
   125  H   -0.015570
   126  H   -0.040419
   127  H   -0.000623
   128  H   -0.004344
   129  H    0.022506
   130  H    0.014430
   131  H    0.016271
   132  H    0.013907
   133  H    0.037688
   134  H    0.020800
   135  H    0.019574
   136  H    0.008749
   137  H    0.026126
   138  H    0.039781
   139  H    0.038242
   140  H    0.036390
   141  H    0.033893
   142  H    0.014395
   143  H    0.012464
   144  H    0.025138
   145  H    0.011647
   146  H    0.005717
   147  H    0.006273
   148  H    0.003677
   149  H    0.010924
   150  H    0.017941
   151  H    0.030089
   152  H    0.046027
   153  H    0.008524
   154  H    0.047025
   155  H    0.035077
   156  H    0.043950
   157  H    0.049476
   158  H    0.053577
 Sum of Mulliken charges =  -0.00000

 Dipole moment (field-independent basis, Debye):
    X=             -3.2487    Y=             -2.5784    Z=             -8.0218  Tot=              9.0306
 Quadrupole moment (field-independent basis, Debye-Ang):
   XX=           -492.7482   YY=           -550.9575   ZZ=           -448.3541
   XY=             -0.7792   XZ=             -4.4652   YZ=            -49.7098

 Normal termination of Gaussian 16 at Sun Sep 12 19:35:09 2021.
