 Gaussian 16, Revision A.03,
 Gaussian 16:  ES64L-G16RevA.03 25-Dec-2016

 -----------------------------------
 #p cam-b3lyp/Def2SVP td=(nstates=5)
 -----------------------------------

 --------------------------------
 TDDFT excited states in gaussian
 --------------------------------
 Symbolic Z-matrix:
 Charge =  0 Multiplicity = 1

                         Standard orientation:
 ---------------------------------------------------------------------
 Center     Atomic      Atomic             Coordinates (Angstroms)
 Number     Number       Type             X           Y           Z
 ---------------------------------------------------------------------
      1         12           0        3.678223    1.361429    0.073380
      2          6           0        4.805506   -1.803581   -1.161188
      3          6           0        3.841174    2.504259   -3.137609
      4          6           0        3.124900    4.274737    1.197253
      5          6           0        4.683398    0.316921    3.242653
      6          7           0        4.261925    0.378740   -1.822473
      7          6           0        4.616336   -0.854867   -2.168561
      8          6           0        4.694666   -1.065609   -3.710257
      9          6           0        4.934218    0.445423   -4.159026
     10          6           0        4.275893    1.153800   -2.988242
     11          6           0        6.406651    0.840545   -4.207219
     12          6           0        3.360728   -1.634111   -4.301144
     13          6           0        3.456936   -2.172800   -5.731498
     14          1           0        2.660616   -3.334422   -6.097362
     15          7           0        3.044021    2.990537   -0.846752
     16          6           0        3.181093    3.282858   -2.162444
     17          6           0        2.546248    4.604495   -2.354610
     18          6           0        2.197441    5.141561   -1.009996
     19          6           0        2.806357    4.156147   -0.153515
     20          6           0        2.285038    5.203684   -3.702383
     21          6           0        1.445160    6.356507   -0.567151
     22          8           0        1.456067    6.758423    0.646487
     23          6           0        0.758115    7.124296   -1.621434
     24          7           0        4.072715    2.273997    1.908926
     25          6           0        3.676722    3.527524    2.155591
     26          6           0        3.812679    3.866813    3.610354
     27          6           0        4.158500    2.496423    4.353449
     28          6           0        4.245993    1.571625    3.114350
     29          6           0        4.877020    4.917424    3.955908
     30          6           0        3.232355    2.077345    5.522658
     31          6           0        1.856702    1.740574    4.992315
     32          7           0        4.420395   -0.478200    0.954284
     33          6           0        4.797101   -0.681524    2.289734
     34          6           0        5.334987   -2.051206    2.383109
     35          6           0        5.248598   -2.546956    1.083643
     36          6           0        4.716403   -1.541051    0.227361
     37          6           0        5.874020   -2.656938    3.552283
     38          6           0        5.505005   -3.684008    0.214607
     39          8           0        5.863958   -4.848731    0.393678
     40          6           0        5.342113   -3.206950   -1.295926
     41          6           0        4.486349   -4.222072   -2.003388
     42          8           0        3.284264   -4.367328   -1.701299
     43          8           0        5.145453   -4.690130   -3.074390
     44          6           0        4.340054   -5.680306   -3.837960
     45          1           0        4.078010    3.035890   -4.061307
     46          1           0        2.846440    5.229136    1.648939
     47          1           0        4.937626   -0.107328    4.215707
     48          1           0        5.525337   -1.688694   -4.042183
     49          1           0        4.413214    0.681937   -5.086570
     50          1           0        7.043401    0.055288   -3.799981
     51          1           0        6.485102    1.745321   -3.604128
     52          1           0        6.697705    1.127950   -5.217893
     53          1           0        2.659247   -0.814781   -4.458257
     54          1           0        2.949745   -2.407631   -3.651463
     55          1           0        4.494681   -2.309526   -6.036949
     56          1           0        3.072996   -1.410896   -6.409947
     57          1           0        2.799726    4.655892   -4.490777
     58          1           0        2.750155    6.189250   -3.708237
     59          1           0        1.219041    5.299024   -3.909493
     60          1           0        1.488998    7.456473   -2.359009
     61          1           0        0.199899    7.906613   -1.108380
     62          1           0        0.069785    6.462809   -2.148297
     63          1           0        2.879487    4.263321    4.008299
     64          1           0        5.154945    2.511086    4.795667
     65          1           0        4.482918    5.778884    4.495606
     66          1           0        5.360853    5.224454    3.029123
     67          1           0        5.724067    4.539084    4.527561
     68          1           0        3.112371    2.901220    6.225352
     69          1           0        3.604882    1.217733    6.079921
     70          1           0        1.376675    2.716132    4.923817
     71          1           0        1.327215    1.093195    5.692140
     72          1           0        1.908299    1.331232    3.983225
     73          1           0        5.475797   -3.671100    3.581659
     74          1           0        5.603030   -2.098861    4.448228
     75          1           0        6.940475   -2.603825    3.333860
     76          1           0        6.345388   -3.152332   -1.717326
     77          1           0        4.934143   -6.591550   -3.908140
     78          1           0        4.050244   -5.192300   -4.768695
     79          1           0        3.443750   -6.056557   -3.343579
     80         12           0       -3.810149   -1.137738    0.967714
     81          6           0       -4.435675    0.221084   -2.294392
     82          6           0       -3.812122    2.065866    2.138843
     83          6           0       -2.815951   -2.264099    3.762414
     84          6           0       -2.737137   -4.056274   -0.605966
     85          7           0       -4.098549    0.807566   -0.044627
     86          6           0       -4.390556    1.196543   -1.276608
     87          6           0       -4.727794    2.705719   -1.411682
     88          6           0       -3.946871    3.243547   -0.115627
     89          6           0       -3.980645    1.974858    0.734060
     90          6           0       -2.494403    3.595377   -0.391117
     91          6           0       -6.268496    2.985230   -1.311059
     92          6           0       -6.696632    4.390087   -1.740993
     93          1           0       -7.979001    4.549289   -2.421172
     94          7           0       -3.853226   -0.314407    2.772944
     95          6           0       -3.874172    1.002703    3.066300
     96          6           0       -3.880878    1.087723    4.534935
     97          6           0       -3.695791   -0.282649    5.084976
     98          6           0       -3.420985   -1.020192    3.868183
     99          6           0       -4.130857    2.369810    5.274657
    100          6           0       -3.743885   -0.835286    6.477270
    101          8           0       -3.317989   -2.013196    6.749256
    102          6           0       -4.217537    0.076748    7.528620
    103          7           0       -2.710735   -2.820332    1.499257
    104          6           0       -2.461918   -3.104282    2.789756
    105          6           0       -1.898420   -4.496901    2.943029
    106          6           0       -2.047221   -5.181223    1.505271
    107          6           0       -2.613984   -3.983196    0.712228
    108          6           0       -0.441130   -4.578633    3.396905
    109          6           0       -2.808208   -6.533978    1.445076
    110          6           0       -4.267838   -6.320175    1.775441
    111          7           0       -3.782268   -1.893494   -1.056164
    112          6           0       -3.264012   -3.130672   -1.497621
    113          6           0       -3.366998   -3.144905   -2.971270
    114          6           0       -3.921193   -1.895748   -3.289020
    115          6           0       -4.128898   -1.147295   -2.098993
    116          6           0       -2.930937   -4.196667   -3.825526
    117          6           0       -4.367864   -1.035937   -4.361349
    118          8           0       -4.513679   -1.166443   -5.576031
    119          6           0       -4.603506    0.422462   -3.774897
    120          6           0       -5.937427    0.911726   -4.268665
    121          8           0       -6.988278    0.351424   -3.910358
    122          8           0       -5.768612    2.085960   -4.903523
    123          6           0       -7.065293    2.617012   -5.401942
    124          1           0       -3.567288    3.036887    2.570193
    125          1           0       -2.555175   -2.743572    4.708764
    126          1           0       -2.514692   -4.968690   -1.163359
    127          1           0       -4.337894    3.180185   -2.304217
    128          1           0       -4.496363    4.044199    0.372622
    129          1           0       -2.193805    3.313101   -1.389157
    130          1           0       -1.915705    3.053850    0.345707
    131          1           0       -2.319164    4.656416   -0.191548
    132          1           0       -6.558458    3.016037   -0.252898
    133          1           0       -6.825383    2.253048   -1.862807
    134          1           0       -5.903441    4.913129   -2.288916
    135          1           0       -6.847771    4.996358   -0.844548
    136          1           0       -4.068147    3.238124    4.607196
    137          1           0       -3.297855    2.503534    5.973289
    138          1           0       -5.066086    2.355371    5.838403
    139          1           0       -3.580692    0.957722    7.556286
    140          1           0       -4.265873   -0.525500    8.437928
    141          1           0       -5.222841    0.423314    7.264302
    142          1           0       -2.469506   -5.067886    3.664788
    143          1           0       -1.068128   -5.416199    1.062569
    144          1           0       -0.304485   -5.170708    4.321483
    145          1           0       -0.068578   -3.571845    3.531538
    146          1           0        0.250034   -4.984099    2.659961
    147          1           0       -2.417099   -7.222357    2.198284
    148          1           0       -2.730788   -7.030698    0.483682
    149          1           0       -4.276098   -6.322230    2.869530
    150          1           0       -4.873946   -7.130140    1.374638
    151          1           0       -4.605322   -5.330918    1.445102
    152          1           0       -3.706034   -4.337017   -4.567161
    153          1           0       -2.744122   -5.111255   -3.266601
    154          1           0       -2.008725   -3.759689   -4.217767
    155          1           0       -3.782776    1.051553   -4.121648
    156          1           0       -6.949157    2.786455   -6.476867
    157          1           0       -7.287651    3.500136   -4.773925
    158          1           0       -7.919886    1.950825   -5.383965
 ---------------------------------------------------------------------

 SCF Done:  E(RCAM-B3LYP) =  -4069.81282547     A.U. after   19 cycles

 Excitation energies and oscillator strengths:

 Excited State   1:      Singlet-A      1.6673 eV  743.62 nm  f=0.3015  <S**2>=0.000
     310 -> 316       -0.15983
     311 -> 313        0.25393
     312 -> 314        0.63735
 This state for optimization and/or second-order correction.
 Total Energy, E(TD-HF/TD-DFT) =  -4069.75155329
 Copying the excited state density for this state as the 1-particle RhoCI density.

 Excited State   2:      Singlet-A      1.6720 eV  741.55 nm  f=0.3437  <S**2>=0.000
     309 -> 315       -0.16030
     311 -> 313        0.63665
     312 -> 314       -0.25347

 Excited State   3:      Singlet-A      2.1822 eV  568.16 nm  f=0.0969  <S**2>=0.000
     309 -> 313        0.19141
     310 -> 314        0.61401
     312 -> 316        0.25803

 Excited State   4:      Singlet-A      2.1902 eV  566.09 nm  f=0.1006  <S**2>=0.000
     309 -> 313        0.61179
     310 -> 314       -0.19036
     311 -> 315        0.26333

 Excited State   5:      Singlet-A      2.2306 eV  555.82 nm  f=0.0000  <S**2>=0.000
     312 -> 313        0.70693

 The electronic state is 1-A.
 Alpha  occ. eigenvalues --  -46.87937 -46.87411 -19.26439 -19.26319 -19.19204
 Alpha  occ. eigenvalues --  -19.19093 -19.19080 -19.18532 -19.18337 -19.17916
 Alpha  occ. eigenvalues --  -14.42578 -14.42260 -14.41592 -14.41069 -14.39556
 Alpha  occ. eigenvalues --  -14.39114 -14.38730 -14.38358 -10.39256 -10.39019
 Alpha  occ. eigenvalues --  -10.35716 -10.35214 -10.34554 -10.34096 -10.31820
 Alpha  occ. eigenvalues --  -10.31760 -10.31519 -10.31081 -10.31043 -10.30820
 Alpha  occ. eigenvalues --  -10.30705 -10.30671 -10.30359 -10.30151 -10.30121
 Alpha  occ. eigenvalues --  -10.30071 -10.29810 -10.29794 -10.29588 -10.29412
 Alpha  occ. eigenvalues --  -10.29178 -10.29172 -10.28822 -10.28593 -10.28582
 Alpha  occ. eigenvalues --  -10.28519 -10.28512 -10.28193 -10.28187 -10.27959
 Alpha  occ. eigenvalues --  -10.27951 -10.27852 -10.27784 -10.27761 -10.27640
 Alpha  occ. eigenvalues --  -10.27628 -10.27614 -10.27546 -10.27415 -10.27310
 Alpha  occ. eigenvalues --  -10.27263 -10.27262 -10.27245 -10.27022 -10.26938
 Alpha  occ. eigenvalues --  -10.26931 -10.26733 -10.26718 -10.26582 -10.26301
 Alpha  occ. eigenvalues --  -10.26300 -10.26279 -10.26155 -10.25972 -10.25841
 Alpha  occ. eigenvalues --  -10.25721 -10.25623 -10.25611 -10.25594 -10.24991
 Alpha  occ. eigenvalues --  -10.24950 -10.24806 -10.24789 -10.24664 -10.24425
 Alpha  occ. eigenvalues --  -10.24393  -3.16679  -3.16162  -1.91560  -1.91147
 Alpha  occ. eigenvalues --   -1.91044  -1.90989  -1.90632  -1.90470  -1.16792
 Alpha  occ. eigenvalues --   -1.16604  -1.08796  -1.08536  -1.07489  -1.06880
 Alpha  occ. eigenvalues --   -1.06821  -1.06788  -1.04712  -1.04269  -1.03904
 Alpha  occ. eigenvalues --   -1.03412  -1.03385  -1.02764  -1.02558  -1.01852
 Alpha  occ. eigenvalues --   -0.92118  -0.91784  -0.89661  -0.89265  -0.89181
 Alpha  occ. eigenvalues --   -0.88966  -0.88432  -0.88013  -0.87858  -0.87794
 Alpha  occ. eigenvalues --   -0.87567  -0.87461  -0.87429  -0.86914  -0.85083
 Alpha  occ. eigenvalues --   -0.84808  -0.84079  -0.83531  -0.83185  -0.82777
 Alpha  occ. eigenvalues --   -0.82706  -0.82457  -0.81725  -0.81444  -0.80746
 Alpha  occ. eigenvalues --   -0.80256  -0.78960  -0.78414  -0.77344  -0.77038
 Alpha  occ. eigenvalues --   -0.76934  -0.76670  -0.76039  -0.75657  -0.75040
 Alpha  occ. eigenvalues --   -0.74448  -0.72914  -0.72450  -0.71806  -0.71311
 Alpha  occ. eigenvalues --   -0.70037  -0.69383  -0.68992  -0.68637  -0.67803
 Alpha  occ. eigenvalues --   -0.67378  -0.67323  -0.67042  -0.65388  -0.65099
 Alpha  occ. eigenvalues --   -0.64994  -0.64749  -0.64545  -0.64443  -0.64411
 Alpha  occ. eigenvalues --   -0.63871  -0.62446  -0.62113  -0.60619  -0.60094
 Alpha  occ. eigenvalues --   -0.59908  -0.59609  -0.59130  -0.58742  -0.58652
 Alpha  occ. eigenvalues --   -0.58197  -0.57739  -0.57471  -0.57418  -0.56971
 Alpha  occ. eigenvalues --   -0.56461  -0.56116  -0.56001  -0.55750  -0.55693
 Alpha  occ. eigenvalues --   -0.55486  -0.55290  -0.54976  -0.54671  -0.54212
 Alpha  occ. eigenvalues --   -0.53981  -0.53745  -0.53471  -0.53361  -0.53073
 Alpha  occ. eigenvalues --   -0.53005  -0.52951  -0.52912  -0.52721  -0.52572
 Alpha  occ. eigenvalues --   -0.52496  -0.52058  -0.52052  -0.51737  -0.51661
 Alpha  occ. eigenvalues --   -0.51499  -0.51330  -0.50990  -0.50777  -0.50272
 Alpha  occ. eigenvalues --   -0.50168  -0.50100  -0.49782  -0.49658  -0.49515
 Alpha  occ. eigenvalues --   -0.49370  -0.49302  -0.49199  -0.49029  -0.48924
 Alpha  occ. eigenvalues --   -0.48730  -0.48659  -0.48607  -0.48388  -0.48168
 Alpha  occ. eigenvalues --   -0.48024  -0.47835  -0.47450  -0.47371  -0.46923
 Alpha  occ. eigenvalues --   -0.46861  -0.46652  -0.46505  -0.46468  -0.46333
 Alpha  occ. eigenvalues --   -0.46307  -0.46023  -0.45953  -0.45800  -0.45635
 Alpha  occ. eigenvalues --   -0.45347  -0.44855  -0.44731  -0.44658  -0.44337
 Alpha  occ. eigenvalues --   -0.44293  -0.44262  -0.44187  -0.44176  -0.43945
 Alpha  occ. eigenvalues --   -0.43817  -0.43772  -0.43641  -0.43502  -0.43395
 Alpha  occ. eigenvalues --   -0.43166  -0.43158  -0.42856  -0.42814  -0.42795
 Alpha  occ. eigenvalues --   -0.42658  -0.42238  -0.42131  -0.41852  -0.41705
 Alpha  occ. eigenvalues --   -0.41625  -0.41455  -0.41272  -0.41241  -0.41054
 Alpha  occ. eigenvalues --   -0.40956  -0.40750  -0.40700  -0.40554  -0.40490
 Alpha  occ. eigenvalues --   -0.40289  -0.40144  -0.40098  -0.39570  -0.39047
 Alpha  occ. eigenvalues --   -0.38598  -0.38012  -0.37827  -0.37490  -0.37457
 Alpha  occ. eigenvalues --   -0.37363  -0.37017  -0.36935  -0.36870  -0.36650
 Alpha  occ. eigenvalues --   -0.36335  -0.35927  -0.34427  -0.34013  -0.33951
 Alpha  occ. eigenvalues --   -0.33758  -0.33336  -0.32919  -0.31604  -0.31184
 Alpha  occ. eigenvalues --   -0.31086  -0.30732  -0.30193  -0.29825  -0.29625
 Alpha  occ. eigenvalues --   -0.29479  -0.29112  -0.28996  -0.24222  -0.23782
 Alpha  occ. eigenvalues --   -0.21272  -0.20863
 Alpha virt. eigenvalues --   -0.08933  -0.08557  -0.01906  -0.01419  -0.00251
 Alpha virt. eigenvalues --    0.00163   0.02029   0.02332   0.02550   0.03591
 Alpha virt. eigenvalues --    0.04613   0.04928   0.04972   0.05251   0.06094

 Mulliken charges:
               1
     1  Mg   0.839008
     2  C   -0.002853
     3  C   -0.093105
     4  C   -0.046908
     5  C   -0.063510
     6  N   -0.256892
     7  C   -0.051770
     8  C   -0.014273
     9  C   -0.087189
    10  C    0.046479
    11  C    0.104699
    12  C    0.053085
    13  C   -0.072507
    14  H    0.036955
    15  N   -0.433135
    16  C    0.168228
    17  C   -0.177313
    18  C   -0.004835
    19  C    0.148569
    20  C    0.109959
    21  C    0.010640
    22  O   -0.251252
    23  C    0.062334
    24  N   -0.341237
    25  C    0.041767
    26  C   -0.027923
    27  C   -0.023960
    28  C    0.075118
    29  C    0.076206
    30  C    0.035077
    31  C   -0.004745
    32  N   -0.310581
    33  C    0.080768
    34  C   -0.169821
    35  C    0.007872
    36  C    0.083124
    37  C    0.127443
    38  C    0.045382
    39  O   -0.188554
    40  C   -0.005166
    41  C    0.213154
    42  O   -0.258755
    43  O   -0.304257
    44  C    0.157976
    45  H   -0.017023
    46  H   -0.017831
    47  H   -0.040912
    48  H    0.001051
    49  H   -0.002881
    50  H    0.025423
    51  H    0.016238
    52  H    0.017269
    53  H    0.012703
    54  H    0.043167
    55  H    0.017634
    56  H    0.019855
    57  H    0.007166
    58  H    0.026916
    59  H    0.039098
    60  H    0.038783
    61  H    0.034122
    62  H    0.030174
    63  H    0.014943
    64  H    0.009787
    65  H    0.022626
    66  H    0.012788
    67  H    0.005199
    68  H    0.005472
    69  H    0.006007
    70  H    0.004913
    71  H    0.021822
    72  H    0.029920
    73  H    0.047177
    74  H    0.009975
    75  H    0.046349
    76  H    0.035704
    77  H    0.043289
    78  H    0.047524
    79  H    0.052035
    80  Mg   0.837017
    81  C   -0.017550
    82  C   -0.088695
    83  C   -0.045782
    84  C   -0.058872
    85  N   -0.254759
    86  C   -0.050197
    87  C   -0.014841
    88  C   -0.090855
    89  C    0.044870
    90  C    0.112357
    91  C    0.062737
    92  C   -0.077339
    93  H    0.034161
    94  N   -0.423481
    95  C    0.162730
    96  C   -0.174598
    97  C   -0.008423
    98  C    0.152360
    99  C    0.099400
   100  C    0.014627
   101  O   -0.253470
   102  C    0.061449
   103  N   -0.350217
   104  C    0.038664
   105  C   -0.020909
   106  C   -0.036284
   107  C    0.089072
   108  C    0.071276
   109  C    0.034396
   110  C   -0.007424
   111  N   -0.324228
   112  C    0.077629
   113  C   -0.162277
   114  C    0.001073
   115  C    0.096608
   116  C    0.132271
   117  C    0.041507
   118  O   -0.190003
   119  C    0.001205
   120  C    0.211197
   121  O   -0.250779
   122  O   -0.306411
   123  C    0.152111
   124  H   -0.017982
   125  H   -0.015733
   126  H   -0.038339
   127  H   -0.003344
   128  H   -0.004155
   129  H    0.019306
   130  H    0.017879
   131  H    0.018808
   132  H    0.014324
   133  H    0.037454
   134  H    0.019200
   135  H    0.020032
   136  H    0.009541
   137  H    0.025329
   138  H    0.039101
   139  H    0.037394
   140  H    0.035755
   141  H    0.033949
   142  H    0.013089
   143  H    0.021786
   144  H    0.022878
   145  H    0.010901
   146  H    0.015713
   147  H    0.006700
   148  H    0.003841
   149  H    0.010328
   150  H    0.016787
   151  H    0.029106
   152  H    0.044412
   153  H    0.009443
   154  H    0.046973
   155  H    0.032461
   156  H    0.042867
   157  H    0.049359
   158  H    0.053731
 Sum of Mulliken charges =  -0.00000

 Dipole moment (field-independent basis, Debye):
    X=              2.3995    Y=              5.9873    Z=             -0.6998  Tot=              6.4881
 Quadrupole moment (field-independent basis, Debye-Ang):
   XX=           -521.3315   YY=           -503.2773   ZZ=           -495.4301
   XY=             -7.6828   XZ=            -27.1240   YZ=              0.9803

 Normal termination of Gaussian 16 at Fri Sep  3 15:27:55 2021.
