 Gaussian 16, Revision A.03,
 Gaussian 16:  ES64L-G16RevA.03 25-Dec-2016

 -----------------------------------
 #p cam-b3lyp/Def2SVP td=(nstates=5)
 -----------------------------------

 --------------------------------
 TDDFT excited states in gaussian
 --------------------------------
 Symbolic Z-matrix:
 Charge =  0 Multiplicity = 1

                         Standard orientation:
 ---------------------------------------------------------------------
 Center     Atomic      Atomic             Coordinates (Angstroms)
 Number     Number       Type             X           Y           Z
 ---------------------------------------------------------------------
      1         12           0        6.443952   -1.076098   -0.031763
      2          6           0        7.216713    2.384323   -0.522214
      3          6           0        7.445440   -0.687330    3.206901
      4          6           0        6.201865   -4.219928    0.306395
      5          6           0        6.593904   -1.448150   -3.493663
      6          7           0        7.211547    0.675789    1.082838
      7          6           0        7.403848    1.959268    0.794962
      8          6           0        7.750304    2.826909    2.041775
      9          6           0        8.338456    1.685653    2.987084
     10          6           0        7.595365    0.490648    2.416380
     11          6           0        9.836996    1.461645    2.811874
     12          6           0        6.482320    3.495580    2.671718
     13          6           0        6.765669    4.610012    3.683207
     14          1           0        5.865747    5.752194    3.737150
     15          7           0        6.305259   -2.182336    1.599142
     16          6           0        6.752208   -1.860054    2.836743
     17          6           0        6.412882   -3.008357    3.704464
     18          6           0        5.902970   -4.102655    2.832344
     19          6           0        6.144005   -3.547693    1.524943
     20          6           0        6.536773   -2.976784    5.196913
     21          6           0        5.304601   -5.441151    3.129858
     22          8           0        5.143593   -6.330412    2.225498
     23          6           0        4.989294   -5.720444    4.542521
     24          7           0        6.618656   -2.666210   -1.372903
     25          6           0        6.409691   -3.927243   -0.979059
     26          6           0        6.309884   -4.856308   -2.152437
     27          6           0        6.251886   -3.926184   -3.449070
     28          6           0        6.420222   -2.549660   -2.759784
     29          6           0        7.452493   -5.870198   -2.302376
     30          6           0        5.051379   -4.129422   -4.407139
     31          6           0        3.772122   -3.698057   -3.725578
     32          7           0        6.657259    0.244038   -1.741379
     33          6           0        6.717230   -0.128546   -3.092030
     34          6           0        6.974367    1.098759   -3.867704
     35          6           0        7.063182    2.104016   -2.906759
     36          6           0        6.899670    1.536286   -1.610905
     37          6           0        7.152761    1.171615   -5.277421
     38          6           0        7.282710    3.521884   -2.671567
     39          8           0        7.386571    4.514731   -3.393342
     40          6           0        7.512267    3.741297   -1.111122
     41          6           0        6.649311    4.896796   -0.682824
     42          8           0        5.404770    4.806005   -0.698325
     43          8           0        7.415754    5.832824   -0.102342
     44          6           0        6.616970    6.994178    0.372374
     45          1           0        7.952518   -0.743310    4.172136
     46          1           0        6.012199   -5.293503    0.368859
     47          1           0        6.569194   -1.473561   -4.584625
     48          1           0        8.506838    3.592110    1.866994
     49          1           0        8.063739    1.839743    4.030400
     50          1           0       10.230130    2.035267    1.972634
     51          1           0        9.952212    0.392968    2.629810
     52          1           0       10.370470    1.666636    3.740401
     53          1           0        5.982824    2.777436    3.321976
     54          1           0        5.819384    3.875126    1.893396
     55          1           0        7.802581    4.942920    3.629409
     56          1           0        6.666257    4.194455    4.686018
     57          1           0        7.093414   -2.103318    5.534186
     58          1           0        7.160681   -3.823443    5.482599
     59          1           0        5.567802   -3.050974    5.690800
     60          1           0        5.899933   -5.642156    5.136790
     61          1           0        4.487292   -6.687260    4.553112
     62          1           0        4.314194   -4.948437    4.912919
     63          1           0        5.401231   -5.454764   -2.101198
     64          1           0        7.126297   -4.058401   -4.086721
     65          1           0        7.117329   -6.907431   -2.325156
     66          1           0        8.158441   -5.705114   -1.488942
     67          1           0        8.087460   -5.717599   -3.174700
     68          1           0        4.941125   -5.183753   -4.658489
     69          1           0        5.146723   -3.574210   -5.340359
     70          1           0        3.495977   -4.578528   -3.146488
     71          1           0        3.007296   -3.462294   -4.466300
     72          1           0        3.951145   -2.886773   -3.019705
     73          1           0        6.583551    2.038613   -5.612509
     74          1           0        6.811278    0.260070   -5.767398
     75          1           0        8.233553    1.298449   -5.337902
     76          1           0        8.573030    3.950682   -0.976723
     77          1           0        7.042152    7.885971   -0.088235
     78          1           0        6.610218    6.941310    1.461210
     79          1           0        5.587745    7.049277    0.016003
     80         12           0       -6.612672    1.091029    0.160768
     81          6           0       -6.997631   -2.476045    0.077855
     82          6           0       -5.800762    0.930612   -3.148258
     83          6           0       -5.829334    4.162295    0.306065
     84          6           0       -6.330233    0.840801    3.625349
     85          7           0       -6.454822   -0.610787   -1.243216
     86          6           0       -6.684339   -1.913589   -1.177112
     87          6           0       -6.650558   -2.642947   -2.546948
     88          6           0       -5.720511   -1.607387   -3.347876
     89          6           0       -6.032378   -0.337678   -2.558423
     90          6           0       -4.235941   -1.902021   -3.211589
     91          6           0       -8.073639   -2.758898   -3.197644
     92          6           0       -8.162931   -3.725154   -4.380908
     93          1           0       -9.390293   -4.496125   -4.558850
     94          7           0       -6.395840    2.430978   -1.287023
     95          6           0       -6.087746    2.190630   -2.578753
     96          6           0       -6.025389    3.508539   -3.229436
     97          6           0       -6.159492    4.556133   -2.180971
     98          6           0       -6.111508    3.739523   -0.984750
     99          6           0       -5.933198    3.677436   -4.718189
    100          6           0       -6.294116    6.047469   -2.244053
    101          8           0       -6.157262    6.780600   -1.201640
    102          6           0       -6.498127    6.631474   -3.577769
    103          7           0       -5.936313    2.301879    1.709538
    104          6           0       -5.721323    3.615127    1.516949
    105          6           0       -5.506906    4.330964    2.829197
    106          6           0       -5.864079    3.262873    3.964622
    107          6           0       -6.149802    2.033391    3.074596
    108          6           0       -4.098602    4.875205    3.067727
    109          6           0       -6.931387    3.680498    5.013010
    110          6           0       -8.284212    3.806618    4.350174
    111          7           0       -6.835076   -0.477198    1.630204
    112          6           0       -6.646455   -0.371548    3.025680
    113          6           0       -6.798203   -1.728562    3.589494
    114          6           0       -7.043740   -2.539699    2.471339
    115          6           0       -7.024895   -1.747568    1.291656
    116          6           0       -6.657981   -2.079702    4.961775
    117          6           0       -7.304033   -3.887626    2.019644
    118          8           0       -7.516953   -4.964267    2.575760
    119          6           0       -7.160298   -3.926920    0.437177
    120          6           0       -8.351649   -4.657256   -0.119434
    121          8           0       -9.494494   -4.179682   -0.007996
    122          8           0       -7.924630   -5.684015   -0.876921
    123          6           0       -9.069889   -6.432355   -1.460161
    124          1           0       -5.314147    0.968275   -4.123289
    125          1           0       -5.661384    5.235236    0.424677
    126          1           0       -6.353677    0.695020    4.707416
    127          1           0       -6.186969   -3.622000   -2.528979
    128          1           0       -6.043539   -1.503374   -4.380446
    129          1           0       -4.045568   -2.691586   -2.499910
    130          1           0       -3.781610   -0.977139   -2.881097
    131          1           0       -3.802657   -2.116932   -4.192611
    132          1           0       -8.312582   -1.816160   -3.706468
    133          1           0       -8.808998   -3.019956   -2.461631
    134          1           0       -7.285192   -4.379608   -4.445789
    135          1           0       -8.133294   -3.144502   -5.306096
    136          1           0       -5.684175    2.731959   -5.215637
    137          1           0       -5.070098    4.322890   -4.913927
    138          1           0       -6.825064    4.140674   -5.145582
    139          1           0       -5.666448    6.358103   -4.222774
    140          1           0       -6.660867    7.697605   -3.408183
    141          1           0       -7.397805    6.188808   -4.019636
    142          1           0       -6.175156    5.178363    2.921169
    143          1           0       -4.986056    3.010227    4.577068
    144          1           0       -4.079007    5.963527    3.265843
    145          1           0       -3.489247    4.634391    2.206778
    146          1           0       -3.550725    4.398942    3.879024
    147          1           0       -6.693976    4.664961    5.423631
    148          1           0       -7.008133    2.992955    5.848698
    149          1           0       -8.256755    4.813466    3.922866
    150          1           0       -9.081166    3.711263    5.084897
    151          1           0       -8.382918    3.098459    3.519253
    152          1           0       -7.467953   -2.758374    5.193833
    153          1           0       -6.679794   -1.199916    5.601526
    154          1           0       -5.670839   -2.549248    4.943065
    155          1           0       -6.223582   -4.435449    0.205842
    156          1           0       -8.951599   -7.479230   -1.163925
    157          1           0       -9.051140   -6.210277   -2.543711
    158          1           0      -10.059239   -6.214186   -1.075397
 ---------------------------------------------------------------------

 SCF Done:  E(RCAM-B3LYP) =  -4069.81178381     A.U. after   19 cycles

 Excitation energies and oscillator strengths:

 Excited State   1:      Singlet-A      1.6658 eV  744.27 nm  f=0.0145  <S**2>=0.000
     309 -> 315        0.10943
     310 -> 316        0.13212
     311 -> 313        0.43672
     312 -> 314        0.52982
 This state for optimization and/or second-order correction.
 Total Energy, E(TD-HF/TD-DFT) =  -4069.75056518
 Copying the excited state density for this state as the 1-particle RhoCI density.

 Excited State   2:      Singlet-A      1.6896 eV  733.79 nm  f=0.7284  <S**2>=0.000
     309 -> 315        0.13740
     310 -> 316       -0.11278
     311 -> 313        0.52864
     312 -> 314       -0.43583

 Excited State   3:      Singlet-A      2.1856 eV  567.28 nm  f=0.0399  <S**2>=0.000
     309 -> 313        0.20546
     310 -> 314        0.60948
     312 -> 316       -0.25797

 Excited State   4:      Singlet-A      2.1939 eV  565.14 nm  f=0.1491  <S**2>=0.000
     309 -> 313        0.60696
     310 -> 314       -0.20372
     311 -> 315       -0.26456

 Excited State   5:      Singlet-A      2.6504 eV  467.80 nm  f=0.0000  <S**2>=0.000
     312 -> 313        0.70710

 The electronic state is 1-A.
 Alpha  occ. eigenvalues --  -46.87853 -46.87552 -19.26322 -19.26272 -19.19080
 Alpha  occ. eigenvalues --  -19.19063 -19.18842 -19.18588 -19.18223 -19.17956
 Alpha  occ. eigenvalues --  -14.42504 -14.42389 -14.41508 -14.41253 -14.39455
 Alpha  occ. eigenvalues --  -14.39241 -14.38645 -14.38495 -10.39123 -10.39008
 Alpha  occ. eigenvalues --  -10.35473 -10.35264 -10.34443 -10.34134 -10.31707
 Alpha  occ. eigenvalues --  -10.31688 -10.31461 -10.31206 -10.30955 -10.30909
 Alpha  occ. eigenvalues --  -10.30628 -10.30564 -10.30293 -10.30265 -10.30259
 Alpha  occ. eigenvalues --  -10.30032 -10.29984 -10.29795 -10.29684 -10.29323
 Alpha  occ. eigenvalues --  -10.29306 -10.29295 -10.28792 -10.28616 -10.28576
 Alpha  occ. eigenvalues --  -10.28572 -10.28415 -10.28293 -10.28161 -10.28032
 Alpha  occ. eigenvalues --  -10.27894 -10.27847 -10.27780 -10.27633 -10.27581
 Alpha  occ. eigenvalues --  -10.27557 -10.27520 -10.27513 -10.27456 -10.27432
 Alpha  occ. eigenvalues --  -10.27377 -10.27354 -10.27326 -10.27279 -10.27207
 Alpha  occ. eigenvalues --  -10.26955 -10.26745 -10.26602 -10.26410 -10.26294
 Alpha  occ. eigenvalues --  -10.26275 -10.26274 -10.26083 -10.26074 -10.25923
 Alpha  occ. eigenvalues --  -10.25901 -10.25835 -10.25786 -10.25495 -10.25283
 Alpha  occ. eigenvalues --  -10.24888 -10.24843 -10.24821 -10.24769 -10.24668
 Alpha  occ. eigenvalues --  -10.24580  -3.16596  -3.16302  -1.91477  -1.91184
 Alpha  occ. eigenvalues --   -1.91064  -1.90906  -1.90773  -1.90610  -1.16671
 Alpha  occ. eigenvalues --   -1.16565  -1.08681  -1.08566  -1.07241  -1.06865
 Alpha  occ. eigenvalues --   -1.06839  -1.06685  -1.04633  -1.04387  -1.03817
 Alpha  occ. eigenvalues --   -1.03556  -1.03290  -1.02932  -1.02468  -1.02004
 Alpha  occ. eigenvalues --   -0.92025  -0.91884  -0.89593  -0.89400  -0.89234
 Alpha  occ. eigenvalues --   -0.89047  -0.88357  -0.88125  -0.87933  -0.87726
 Alpha  occ. eigenvalues --   -0.87702  -0.87579  -0.87313  -0.86997  -0.85028
 Alpha  occ. eigenvalues --   -0.84897  -0.84013  -0.83785  -0.83005  -0.82812
 Alpha  occ. eigenvalues --   -0.82692  -0.82545  -0.81634  -0.81506  -0.80644
 Alpha  occ. eigenvalues --   -0.80342  -0.78845  -0.78524  -0.77278  -0.77043
 Alpha  occ. eigenvalues --   -0.76986  -0.76804  -0.75971  -0.75737  -0.74961
 Alpha  occ. eigenvalues --   -0.74701  -0.72833  -0.72598  -0.71725  -0.71475
 Alpha  occ. eigenvalues --   -0.69995  -0.69673  -0.68920  -0.68724  -0.67691
 Alpha  occ. eigenvalues --   -0.67498  -0.67259  -0.67096  -0.65336  -0.65172
 Alpha  occ. eigenvalues --   -0.64909  -0.64675  -0.64671  -0.64556  -0.64338
 Alpha  occ. eigenvalues --   -0.64110  -0.62346  -0.62189  -0.60489  -0.60225
 Alpha  occ. eigenvalues --   -0.59853  -0.59692  -0.59044  -0.58891  -0.58559
 Alpha  occ. eigenvalues --   -0.58325  -0.57635  -0.57462  -0.57365  -0.57135
 Alpha  occ. eigenvalues --   -0.56362  -0.56103  -0.56020  -0.55795  -0.55563
 Alpha  occ. eigenvalues --   -0.55405  -0.55345  -0.55157  -0.54584  -0.54400
 Alpha  occ. eigenvalues --   -0.53940  -0.53809  -0.53351  -0.53262  -0.53126
 Alpha  occ. eigenvalues --   -0.53037  -0.52967  -0.52805  -0.52791  -0.52544
 Alpha  occ. eigenvalues --   -0.52529  -0.52324  -0.51983  -0.51806  -0.51657
 Alpha  occ. eigenvalues --   -0.51553  -0.51255  -0.51107  -0.50602  -0.50349
 Alpha  occ. eigenvalues --   -0.50102  -0.49957  -0.49869  -0.49763  -0.49555
 Alpha  occ. eigenvalues --   -0.49376  -0.49263  -0.49143  -0.49097  -0.49005
 Alpha  occ. eigenvalues --   -0.48644  -0.48520  -0.48482  -0.48460  -0.48279
 Alpha  occ. eigenvalues --   -0.48221  -0.47744  -0.47488  -0.47344  -0.47006
 Alpha  occ. eigenvalues --   -0.46859  -0.46611  -0.46599  -0.46451  -0.46417
 Alpha  occ. eigenvalues --   -0.46222  -0.46167  -0.45991  -0.45878  -0.45735
 Alpha  occ. eigenvalues --   -0.45266  -0.45103  -0.44633  -0.44553  -0.44420
 Alpha  occ. eigenvalues --   -0.44374  -0.44207  -0.44134  -0.44062  -0.44025
 Alpha  occ. eigenvalues --   -0.43979  -0.43828  -0.43546  -0.43466  -0.43439
 Alpha  occ. eigenvalues --   -0.43284  -0.43083  -0.42841  -0.42806  -0.42760
 Alpha  occ. eigenvalues --   -0.42717  -0.42456  -0.42080  -0.41875  -0.41758
 Alpha  occ. eigenvalues --   -0.41582  -0.41569  -0.41361  -0.41192  -0.40926
 Alpha  occ. eigenvalues --   -0.40883  -0.40854  -0.40639  -0.40618  -0.40587
 Alpha  occ. eigenvalues --   -0.40399  -0.40273  -0.40126  -0.39535  -0.39343
 Alpha  occ. eigenvalues --   -0.38536  -0.38254  -0.37793  -0.37559  -0.37386
 Alpha  occ. eigenvalues --   -0.37311  -0.37169  -0.37096  -0.36764  -0.36687
 Alpha  occ. eigenvalues --   -0.36248  -0.36122  -0.34342  -0.34150  -0.33815
 Alpha  occ. eigenvalues --   -0.33776  -0.33241  -0.33070  -0.31373  -0.31148
 Alpha  occ. eigenvalues --   -0.31088  -0.30865  -0.30083  -0.29862  -0.29498
 Alpha  occ. eigenvalues --   -0.29378  -0.29213  -0.29108  -0.24136  -0.23929
 Alpha  occ. eigenvalues --   -0.21184  -0.21009
 Alpha virt. eigenvalues --   -0.08827  -0.08682  -0.01804  -0.01575  -0.00099
 Alpha virt. eigenvalues --    0.00089   0.02144   0.02306   0.03053   0.03323
 Alpha virt. eigenvalues --    0.04667   0.04835   0.05054   0.05250   0.06136

 Mulliken charges:
               1
     1  Mg   0.838519
     2  C   -0.002882
     3  C   -0.094011
     4  C   -0.045858
     5  C   -0.064181
     6  N   -0.256761
     7  C   -0.052527
     8  C   -0.013992
     9  C   -0.087025
    10  C    0.046362
    11  C    0.104775
    12  C    0.053459
    13  C   -0.071902
    14  H    0.036301
    15  N   -0.433206
    16  C    0.168495
    17  C   -0.176975
    18  C   -0.003784
    19  C    0.148740
    20  C    0.110135
    21  C    0.012471
    22  O   -0.249387
    23  C    0.062381
    24  N   -0.341076
    25  C    0.041220
    26  C   -0.028250
    27  C   -0.023888
    28  C    0.074669
    29  C    0.076108
    30  C    0.035240
    31  C   -0.004412
    32  N   -0.310377
    33  C    0.080169
    34  C   -0.170153
    35  C    0.008325
    36  C    0.082793
    37  C    0.127416
    38  C    0.045952
    39  O   -0.188573
    40  C   -0.005253
    41  C    0.212860
    42  O   -0.257157
    43  O   -0.304794
    44  C    0.157600
    45  H   -0.017381
    46  H   -0.016672
    47  H   -0.041900
    48  H    0.001018
    49  H   -0.003918
    50  H    0.025516
    51  H    0.016470
    52  H    0.016823
    53  H    0.011131
    54  H    0.044129
    55  H    0.017950
    56  H    0.017959
    57  H    0.005921
    58  H    0.027087
    59  H    0.039860
    60  H    0.037349
    61  H    0.036287
    62  H    0.031709
    63  H    0.016534
    64  H    0.009497
    65  H    0.023367
    66  H    0.012764
    67  H    0.004744
    68  H    0.006357
    69  H    0.004352
    70  H    0.009047
    71  H    0.016715
    72  H    0.029181
    73  H    0.047130
    74  H    0.008669
    75  H    0.046126
    76  H    0.035236
    77  H    0.043032
    78  H    0.046486
    79  H    0.053859
    80  Mg   0.838030
    81  C   -0.016825
    82  C   -0.087479
    83  C   -0.044963
    84  C   -0.065023
    85  N   -0.254560
    86  C   -0.049924
    87  C   -0.015096
    88  C   -0.090540
    89  C    0.045779
    90  C    0.114225
    91  C    0.062555
    92  C   -0.077746
    93  H    0.034553
    94  N   -0.423665
    95  C    0.163030
    96  C   -0.173825
    97  C   -0.007409
    98  C    0.152285
    99  C    0.099016
   100  C    0.015970
   101  O   -0.253068
   102  C    0.061117
   103  N   -0.349968
   104  C    0.037742
   105  C   -0.019962
   106  C   -0.034576
   107  C    0.088813
   108  C    0.073476
   109  C    0.034850
   110  C   -0.007616
   111  N   -0.324005
   112  C    0.078292
   113  C   -0.163501
   114  C    0.002153
   115  C    0.096038
   116  C    0.131520
   117  C    0.042170
   118  O   -0.188368
   119  C    0.000955
   120  C    0.211194
   121  O   -0.251166
   122  O   -0.305560
   123  C    0.152114
   124  H   -0.019135
   125  H   -0.015329
   126  H   -0.041079
   127  H   -0.000729
   128  H   -0.004461
   129  H    0.022531
   130  H    0.015317
   131  H    0.016081
   132  H    0.013878
   133  H    0.037544
   134  H    0.020717
   135  H    0.019549
   136  H    0.008830
   137  H    0.027400
   138  H    0.039613
   139  H    0.039046
   140  H    0.036357
   141  H    0.033535
   142  H    0.014201
   143  H    0.011919
   144  H    0.024923
   145  H    0.013155
   146  H    0.005158
   147  H    0.005923
   148  H    0.003186
   149  H    0.010938
   150  H    0.017581
   151  H    0.030290
   152  H    0.045698
   153  H    0.008082
   154  H    0.046477
   155  H    0.035137
   156  H    0.043765
   157  H    0.049454
   158  H    0.053417
 Sum of Mulliken charges =  -0.00000

 Dipole moment (field-independent basis, Debye):
    X=              4.1148    Y=             -0.1106    Z=              0.2238  Tot=              4.1224
 Quadrupole moment (field-independent basis, Debye-Ang):
   XX=           -522.4055   YY=           -548.7689   ZZ=           -448.1930
   XY=            -21.7566   XZ=             61.5632   YZ=             44.0573

 Normal termination of Gaussian 16 at Sat Sep  4 07:59:22 2021.
