 Gaussian 16, Revision A.03,
 Gaussian 16:  ES64L-G16RevA.03 25-Dec-2016

 -----------------------------------
 #p cam-b3lyp/Def2SVP td=(nstates=5)
 -----------------------------------

 --------------------------------
 TDDFT excited states in gaussian
 --------------------------------
 Symbolic Z-matrix:
 Charge =  0 Multiplicity = 1

                         Standard orientation:
 ---------------------------------------------------------------------
 Center     Atomic      Atomic             Coordinates (Angstroms)
 Number     Number       Type             X           Y           Z
 ---------------------------------------------------------------------
      1         12           0       -6.445626   -1.055941    0.145545
      2          6           0       -7.227980    2.436208    0.074598
      3          6           0       -7.358354   -1.175174   -3.140148
      4          6           0       -6.197570   -4.213485    0.303675
      5          6           0       -6.689960   -0.889419    3.618041
      6          7           0       -7.180906    0.500339   -1.246576
      7          6           0       -7.379679    1.812253   -1.165689
      8          6           0       -7.691264    2.475834   -2.540443
      9          6           0       -8.254649    1.200408   -3.313671
     10          6           0       -7.528531    0.110259   -2.545393
     11          6           0       -9.757619    1.001329   -3.146491
     12          6           0       -6.405966    3.043278   -3.231637
     13          6           0       -6.660616    3.987231   -4.410390
     14          1           0       -5.758423    5.110269   -4.615780
     15          7           0       -6.263770   -2.400305   -1.290584
     16          6           0       -6.676605   -2.274438   -2.574722
     17          6           0       -6.314970   -3.541865   -3.245192
     18          6           0       -5.830033   -4.486720   -2.201075
     19          6           0       -6.105951   -3.737301   -1.002067
     20          6           0       -6.398230   -3.741535   -4.727403
     21          6           0       -5.225135   -5.853173   -2.272020
     22          8           0       -5.089645   -6.591593   -1.237151
     23          6           0       -4.871837   -6.346247   -3.615561
     24          7           0       -6.658290   -2.420432    1.710975
     25          6           0       -6.439957   -3.726479    1.522412
     26          6           0       -6.372996   -4.462880    2.827467
     27          6           0       -6.349325   -3.343503    3.965970
     28          6           0       -6.497498   -2.090479    3.068058
     29          6           0       -7.520266   -5.445121    3.101298
     30          6           0       -5.175497   -3.392499    4.975993
     31          6           0       -3.877764   -3.067447    4.270777
     32          7           0       -6.703993    0.511669    1.624359
     33          6           0       -6.801013    0.351933    3.014231
     34          6           0       -7.077910    1.683464    3.583810
     35          6           0       -7.139579    2.527982    2.477089
     36          6           0       -6.941482    1.767483    1.289364
     37          6           0       -7.294470    1.972563    4.960021
     38          6           0       -7.351223    3.891811    2.019886
     39          8           0       -7.473670    4.983868    2.576584
     40          6           0       -7.538076    3.866888    0.438655
     41          6           0       -6.662651    4.945156   -0.139514
     42          8           0       -5.419081    4.861847   -0.076579
     43          8           0       -7.412104    5.777850   -0.878081
     44          6           0       -6.599560    6.854528   -1.504731
     45          1           0       -7.839073   -1.381164   -4.098489
     46          1           0       -6.007347   -5.283213    0.412919
     47          1           0       -6.694928   -0.745978    4.700101
     48          1           0       -8.451506    3.256411   -2.506437
     49          1           0       -7.951531    1.192421   -4.360465
     50          1           0      -10.172841    1.696401   -2.416843
     51          1           0       -9.878804   -0.026780   -2.804731
     52          1           0      -10.265462    1.058761   -4.109598
     53          1           0       -5.889701    2.234944   -3.749446
     54          1           0       -5.764046    3.540589   -2.503663
     55          1           0       -7.698275    4.321120   -4.436673
     56          1           0       -6.534406    3.422126   -5.333931
     57          1           0       -6.944631   -2.932422   -5.210441
     58          1           0       -7.014987   -4.624154   -4.895633
     59          1           0       -5.416271   -3.887988   -5.177560
     60          1           0       -5.765914   -6.363592   -4.239158
     61          1           0       -4.370696   -7.301483   -3.463140
     62          1           0       -4.186153   -5.638532   -4.082386
     63          1           0       -5.463882   -5.059148    2.893828
     64          1           0       -7.240871   -3.378477    4.592546
     65          1           0       -7.186878   -6.465312    3.293048
     66          1           0       -8.203686   -5.409898    2.253367
     67          1           0       -8.178549   -5.161688    3.922119
     68          1           0       -5.073163   -4.395010    5.390054
     69          1           0       -5.295610   -2.700147    5.809343
     70          1           0       -3.586863   -4.025889    3.842295
     71          1           0       -3.133113   -2.717673    4.986573
     72          1           0       -4.036732   -2.375476    3.443498
     73          1           0       -6.733712    2.882730    5.172424
     74          1           0       -6.967335    1.148716    5.593947
     75          1           0       -8.376380    2.103741    4.970983
     76          1           0       -8.594586    4.049598    0.244938
     77          1           0       -7.036212    7.805381   -1.199037
     78          1           0       -6.563277    6.634177   -2.571752
     79          1           0       -5.580345    6.967304   -1.133489
     80         12           0        6.613932    1.095095   -0.027512
     81          6           0        6.981637   -2.441167   -0.516109
     82          6           0        5.881668    0.417261    3.234232
     83          6           0        5.843789    4.152135    0.331427
     84          6           0        6.246213    1.393493   -3.480251
     85          7           0        6.481039   -0.806180    1.094879
     86          6           0        6.701904   -2.082695    0.819061
     87          6           0        6.697436   -3.018448    2.057582
     88          6           0        5.792662   -2.120412    3.034202
     89          6           0        6.092099   -0.742769    2.446737
     90          6           0        4.303658   -2.387720    2.890122
     91          6           0        8.135234   -3.237432    2.646458
     92          6           0        8.248021   -4.377960    3.660473
     93          1           0        9.475182   -5.169145    3.684488
     94          7           0        6.439475    2.190896    1.617898
     95          6           0        6.161513    1.750761    2.863011
     96          6           0        6.122038    2.949978    3.714171
     97          6           0        6.236292    4.149279    2.840486
     98          6           0        6.154918    3.531119    1.532296
     99          6           0        6.066883    2.882683    5.212793
    100          6           0        6.380403    5.611922    3.133932
    101          8           0        6.222237    6.500127    2.223487
    102          6           0        6.619836    5.978513    4.537417
    103          7           0        5.906715    2.535549   -1.349355
    104          6           0        5.703520    3.802454   -0.947384
    105          6           0        5.461179    4.716147   -2.125019
    106          6           0        5.784967    3.839466   -3.422772
    107          6           0        6.085587    2.484851   -2.744513
    108          6           0        4.050444    5.293226   -2.240006
    109          6           0        6.828763    4.415254   -4.418579
    110          6           0        8.197924    4.433513   -3.777916
    111          7           0        6.792209   -0.222740   -1.730328
    112          6           0        6.570377    0.101429   -3.086710
    113          6           0        6.701118   -1.150205   -3.860487
    114          6           0        6.969340   -2.127525   -2.890226
    115          6           0        6.983368   -1.530827   -1.600551
    116          6           0        6.525767   -1.280859   -5.267007
    117          6           0        7.233279   -3.530115   -2.662703
    118          8           0        7.426855   -4.506164   -3.386309
    119          6           0        7.127756   -3.817675   -1.103034
    120          6           0        8.328315   -4.628259   -0.697902
    121          8           0        9.470674   -4.140797   -0.761169
    122          8           0        7.914283   -5.760774   -0.100938
    123          6           0        9.069326   -6.593257    0.328792
    124          1           0        5.419054    0.301775    4.214811
    125          1           0        5.678774    5.230619    0.387211
    126          1           0        6.242616    1.419741   -4.572027
    127          1           0        6.228295   -3.981782    1.897383
    128          1           0        6.141187   -2.180630    4.061948
    129          1           0        4.091849   -3.055197    2.068085
    130          1           0        3.846418   -1.421684    2.720549
    131          1           0        3.893145   -2.753661    3.835595
    132          1           0        8.391510   -2.386851    3.291112
    133          1           0        8.851113   -3.380541    1.860544
    134          1           0        7.368607   -5.033163    3.643389
    135          1           0        8.243942   -3.950054    4.665910
    136          1           0        5.824922    1.871080    5.561391
    137          1           0        5.212258    3.490583    5.528927
    138          1           0        6.971325    3.271585    5.685457
    139          1           0        5.802582    5.608297    5.151833
    140          1           0        6.784136    7.057795    4.533604
    141          1           0        7.527568    5.470495    4.881735
    142          1           0        6.131538    5.566466   -2.099128
    143          1           0        4.891012    3.687633   -4.045365
    144          1           0        4.031895    6.399196   -2.263976
    145          1           0        3.460864    4.920869   -1.412792
    146          1           0        3.480510    4.951351   -3.102266
    147          1           0        6.586754    5.452409   -4.663284
    148          1           0        6.881534    3.867636   -5.353636
    149          1           0        8.186237    5.360632   -3.197052
    150          1           0        8.976297    4.453759   -4.538026
    151          1           0        8.312944    3.603298   -3.071394
    152          1           0        7.326225   -1.915770   -5.622909
    153          1           0        6.536783   -0.311411   -5.760795
    154          1           0        5.536862   -1.746032   -5.297892
    155          1           0        6.194210   -4.354883   -0.931386
    156          1           0        8.938263   -7.580305   -0.125353
    157          1           0        9.078056   -6.544395    1.433904
    158          1           0       10.050210   -6.318735   -0.041298
 ---------------------------------------------------------------------

 SCF Done:  E(RCAM-B3LYP) =  -4069.81177058     A.U. after   19 cycles

 Excitation energies and oscillator strengths:

 Excited State   1:      Singlet-A      1.6658 eV  744.29 nm  f=0.0120  <S**2>=0.000
     309 -> 315        0.10863
     310 -> 316        0.13282
     311 -> 313        0.43375
     312 -> 314        0.53227
 This state for optimization and/or second-order correction.
 Total Energy, E(TD-HF/TD-DFT) =  -4069.75055339
 Copying the excited state density for this state as the 1-particle RhoCI density.

 Excited State   2:      Singlet-A      1.6895 eV  733.83 nm  f=0.7315  <S**2>=0.000
     309 -> 315        0.13801
     310 -> 316       -0.11199
     311 -> 313        0.53107
     312 -> 314       -0.43284

 Excited State   3:      Singlet-A      2.1853 eV  567.36 nm  f=0.0395  <S**2>=0.000
     309 -> 313        0.20501
     310 -> 314        0.60973
     312 -> 316       -0.25785

 Excited State   4:      Singlet-A      2.1940 eV  565.12 nm  f=0.1491  <S**2>=0.000
     309 -> 313        0.60706
     310 -> 314       -0.20324
     311 -> 315       -0.26472

 Excited State   5:      Singlet-A      2.6512 eV  467.66 nm  f=0.0000  <S**2>=0.000
     312 -> 313        0.70710

 The electronic state is 1-A.
 Alpha  occ. eigenvalues --  -46.87852 -46.87553 -19.26318 -19.26277 -19.19086
 Alpha  occ. eigenvalues --  -19.19058 -19.18846 -19.18589 -19.18216 -19.17964
 Alpha  occ. eigenvalues --  -14.42503 -14.42390 -14.41510 -14.41251 -14.39455
 Alpha  occ. eigenvalues --  -14.39242 -14.38643 -14.38497 -10.39118 -10.39014
 Alpha  occ. eigenvalues --  -10.35476 -10.35265 -10.34436 -10.34142 -10.31707
 Alpha  occ. eigenvalues --  -10.31693 -10.31458 -10.31211 -10.30954 -10.30912
 Alpha  occ. eigenvalues --  -10.30625 -10.30564 -10.30294 -10.30268 -10.30263
 Alpha  occ. eigenvalues --  -10.30028 -10.29986 -10.29789 -10.29682 -10.29324
 Alpha  occ. eigenvalues --  -10.29306 -10.29299 -10.28791 -10.28620 -10.28579
 Alpha  occ. eigenvalues --  -10.28576 -10.28413 -10.28297 -10.28159 -10.28038
 Alpha  occ. eigenvalues --  -10.27899 -10.27844 -10.27779 -10.27631 -10.27589
 Alpha  occ. eigenvalues --  -10.27562 -10.27530 -10.27506 -10.27455 -10.27414
 Alpha  occ. eigenvalues --  -10.27379 -10.27359 -10.27344 -10.27256 -10.27202
 Alpha  occ. eigenvalues --  -10.26961 -10.26746 -10.26607 -10.26410 -10.26308
 Alpha  occ. eigenvalues --  -10.26280 -10.26272 -10.26083 -10.26058 -10.25913
 Alpha  occ. eigenvalues --  -10.25909 -10.25834 -10.25794 -10.25507 -10.25238
 Alpha  occ. eigenvalues --  -10.24884 -10.24845 -10.24839 -10.24774 -10.24655
 Alpha  occ. eigenvalues --  -10.24577  -3.16595  -3.16303  -1.91477  -1.91185
 Alpha  occ. eigenvalues --   -1.91063  -1.90905  -1.90774  -1.90611  -1.16668
 Alpha  occ. eigenvalues --   -1.16570  -1.08674  -1.08575  -1.07246  -1.06871
 Alpha  occ. eigenvalues --   -1.06839  -1.06680  -1.04633  -1.04389  -1.03818
 Alpha  occ. eigenvalues --   -1.03556  -1.03289  -1.02932  -1.02467  -1.02005
 Alpha  occ. eigenvalues --   -0.92023  -0.91888  -0.89598  -0.89394  -0.89233
 Alpha  occ. eigenvalues --   -0.89051  -0.88363  -0.88113  -0.87928  -0.87726
 Alpha  occ. eigenvalues --   -0.87707  -0.87580  -0.87311  -0.87004  -0.85028
 Alpha  occ. eigenvalues --   -0.84899  -0.84021  -0.83772  -0.83006  -0.82813
 Alpha  occ. eigenvalues --   -0.82692  -0.82548  -0.81632  -0.81510  -0.80643
 Alpha  occ. eigenvalues --   -0.80345  -0.78842  -0.78530  -0.77279  -0.77045
 Alpha  occ. eigenvalues --   -0.76987  -0.76802  -0.75970  -0.75742  -0.74965
 Alpha  occ. eigenvalues --   -0.74688  -0.72832  -0.72600  -0.71726  -0.71472
 Alpha  occ. eigenvalues --   -0.70004  -0.69660  -0.68919  -0.68727  -0.67690
 Alpha  occ. eigenvalues --   -0.67499  -0.67259  -0.67099  -0.65336  -0.65175
 Alpha  occ. eigenvalues --   -0.64909  -0.64677  -0.64671  -0.64557  -0.64342
 Alpha  occ. eigenvalues --   -0.64102  -0.62345  -0.62191  -0.60489  -0.60226
 Alpha  occ. eigenvalues --   -0.59851  -0.59696  -0.59044  -0.58890  -0.58558
 Alpha  occ. eigenvalues --   -0.58325  -0.57632  -0.57468  -0.57366  -0.57132
 Alpha  occ. eigenvalues --   -0.56359  -0.56107  -0.56019  -0.55799  -0.55563
 Alpha  occ. eigenvalues --   -0.55409  -0.55350  -0.55150  -0.54587  -0.54394
 Alpha  occ. eigenvalues --   -0.53939  -0.53813  -0.53351  -0.53261  -0.53126
 Alpha  occ. eigenvalues --   -0.53040  -0.52967  -0.52807  -0.52790  -0.52550
 Alpha  occ. eigenvalues --   -0.52538  -0.52313  -0.51976  -0.51812  -0.51656
 Alpha  occ. eigenvalues --   -0.51558  -0.51255  -0.51109  -0.50601  -0.50355
 Alpha  occ. eigenvalues --   -0.50108  -0.49957  -0.49871  -0.49754  -0.49554
 Alpha  occ. eigenvalues --   -0.49380  -0.49260  -0.49141  -0.49103  -0.49008
 Alpha  occ. eigenvalues --   -0.48643  -0.48523  -0.48482  -0.48464  -0.48269
 Alpha  occ. eigenvalues --   -0.48223  -0.47744  -0.47490  -0.47344  -0.47006
 Alpha  occ. eigenvalues --   -0.46860  -0.46610  -0.46599  -0.46453  -0.46416
 Alpha  occ. eigenvalues --   -0.46222  -0.46168  -0.45987  -0.45875  -0.45737
 Alpha  occ. eigenvalues --   -0.45271  -0.45088  -0.44630  -0.44554  -0.44422
 Alpha  occ. eigenvalues --   -0.44376  -0.44210  -0.44134  -0.44060  -0.44027
 Alpha  occ. eigenvalues --   -0.43977  -0.43833  -0.43545  -0.43467  -0.43441
 Alpha  occ. eigenvalues --   -0.43284  -0.43083  -0.42844  -0.42805  -0.42766
 Alpha  occ. eigenvalues --   -0.42717  -0.42449  -0.42084  -0.41870  -0.41757
 Alpha  occ. eigenvalues --   -0.41583  -0.41571  -0.41361  -0.41193  -0.40929
 Alpha  occ. eigenvalues --   -0.40881  -0.40857  -0.40644  -0.40618  -0.40589
 Alpha  occ. eigenvalues --   -0.40390  -0.40274  -0.40129  -0.39546  -0.39331
 Alpha  occ. eigenvalues --   -0.38543  -0.38242  -0.37794  -0.37561  -0.37390
 Alpha  occ. eigenvalues --   -0.37310  -0.37163  -0.37099  -0.36763  -0.36689
 Alpha  occ. eigenvalues --   -0.36249  -0.36117  -0.34341  -0.34150  -0.33811
 Alpha  occ. eigenvalues --   -0.33781  -0.33240  -0.33071  -0.31377  -0.31148
 Alpha  occ. eigenvalues --   -0.31088  -0.30866  -0.30076  -0.29871  -0.29496
 Alpha  occ. eigenvalues --   -0.29374  -0.29218  -0.29112  -0.24136  -0.23930
 Alpha  occ. eigenvalues --   -0.21183  -0.21011
 Alpha virt. eigenvalues --   -0.08825  -0.08686  -0.01805  -0.01574  -0.00098
 Alpha virt. eigenvalues --    0.00084   0.02148   0.02302   0.03053   0.03323
 Alpha virt. eigenvalues --    0.04667   0.04833   0.05059   0.05244   0.06135

 Mulliken charges:
               1
     1  Mg   0.838556
     2  C   -0.002865
     3  C   -0.093941
     4  C   -0.045960
     5  C   -0.064159
     6  N   -0.256774
     7  C   -0.052520
     8  C   -0.013999
     9  C   -0.087025
    10  C    0.046332
    11  C    0.104770
    12  C    0.053440
    13  C   -0.071830
    14  H    0.036085
    15  N   -0.433211
    16  C    0.168451
    17  C   -0.176922
    18  C   -0.003841
    19  C    0.148735
    20  C    0.110114
    21  C    0.012407
    22  O   -0.249653
    23  C    0.062386
    24  N   -0.341049
    25  C    0.041213
    26  C   -0.028228
    27  C   -0.023794
    28  C    0.074582
    29  C    0.076126
    30  C    0.035242
    31  C   -0.004375
    32  N   -0.310414
    33  C    0.080203
    34  C   -0.170026
    35  C    0.008387
    36  C    0.082847
    37  C    0.127383
    38  C    0.046069
    39  O   -0.188403
    40  C   -0.005316
    41  C    0.212913
    42  O   -0.257114
    43  O   -0.304791
    44  C    0.157603
    45  H   -0.017353
    46  H   -0.016825
    47  H   -0.041877
    48  H    0.001030
    49  H   -0.003894
    50  H    0.025518
    51  H    0.016463
    52  H    0.016835
    53  H    0.011177
    54  H    0.044091
    55  H    0.017985
    56  H    0.018011
    57  H    0.005951
    58  H    0.027063
    59  H    0.040024
    60  H    0.037406
    61  H    0.036144
    62  H    0.031906
    63  H    0.016301
    64  H    0.009509
    65  H    0.023219
    66  H    0.012818
    67  H    0.004758
    68  H    0.006182
    69  H    0.004478
    70  H    0.008697
    71  H    0.016725
    72  H    0.029332
    73  H    0.047359
    74  H    0.008675
    75  H    0.046109
    76  H    0.035242
    77  H    0.043084
    78  H    0.046394
    79  H    0.053830
    80  Mg   0.837998
    81  C   -0.016894
    82  C   -0.087628
    83  C   -0.044908
    84  C   -0.064940
    85  N   -0.254566
    86  C   -0.049917
    87  C   -0.015109
    88  C   -0.090547
    89  C    0.045867
    90  C    0.114281
    91  C    0.062557
    92  C   -0.077773
    93  H    0.034553
    94  N   -0.423664
    95  C    0.163147
    96  C   -0.174055
    97  C   -0.007348
    98  C    0.152245
    99  C    0.099122
   100  C    0.015949
   101  O   -0.252819
   102  C    0.061141
   103  N   -0.349995
   104  C    0.037821
   105  C   -0.020032
   106  C   -0.034554
   107  C    0.088856
   108  C    0.073329
   109  C    0.034782
   110  C   -0.007601
   111  N   -0.323990
   112  C    0.078326
   113  C   -0.163526
   114  C    0.002059
   115  C    0.096087
   116  C    0.131541
   117  C    0.042076
   118  O   -0.188518
   119  C    0.001005
   120  C    0.211160
   121  O   -0.251155
   122  O   -0.305560
   123  C    0.152123
   124  H   -0.019442
   125  H   -0.015112
   126  H   -0.041022
   127  H   -0.000666
   128  H   -0.004527
   129  H    0.022643
   130  H    0.015096
   131  H    0.016071
   132  H    0.013854
   133  H    0.037545
   134  H    0.020806
   135  H    0.019505
   136  H    0.008666
   137  H    0.027033
   138  H    0.039635
   139  H    0.038819
   140  H    0.036473
   141  H    0.033509
   142  H    0.014209
   143  H    0.012109
   144  H    0.025147
   145  H    0.013421
   146  H    0.005528
   147  H    0.006078
   148  H    0.003150
   149  H    0.010983
   150  H    0.017545
   151  H    0.030180
   152  H    0.045659
   153  H    0.008179
   154  H    0.046305
   155  H    0.035049
   156  H    0.043738
   157  H    0.049498
   158  H    0.053407
 Sum of Mulliken charges =  -0.00000

 Dipole moment (field-independent basis, Debye):
    X=             -3.9159    Y=             -1.3004    Z=              0.1629  Tot=              4.1294
 Quadrupole moment (field-independent basis, Debye-Ang):
   XX=           -522.4851   YY=           -548.7177   ZZ=           -448.1961
   XY=             21.7065   XZ=             62.1709   YZ=            -44.2111

 Normal termination of Gaussian 16 at Sat Sep  4 08:17:31 2021.
