 Gaussian 16, Revision A.03,
 Gaussian 16:  ES64L-G16RevA.03 25-Dec-2016

 -----------------------------------
 #p cam-b3lyp/Def2SVP td=(nstates=5)
 -----------------------------------

 --------------------------------
 TDDFT excited states in gaussian
 --------------------------------
 Symbolic Z-matrix:
 Charge =  0 Multiplicity = 1

                         Standard orientation:
 ---------------------------------------------------------------------
 Center     Atomic      Atomic             Coordinates (Angstroms)
 Number     Number       Type             X           Y           Z
 ---------------------------------------------------------------------
      1         12           0       -4.359221   -0.929302    0.045529
      2          6           0       -4.688323    2.627986    0.268259
      3          6           0       -5.217876   -0.653476   -3.245321
      4          6           0       -4.518921   -4.094537   -0.065822
      5          6           0       -4.645449   -1.025216    3.517493
      6          7           0       -4.863749    0.820121   -1.213684
      7          6           0       -4.895059    2.135224   -1.022125
      8          6           0       -5.093609    2.946576   -2.337290
      9          6           0       -5.800451    1.823797   -3.221450
     10          6           0       -5.233850    0.588586   -2.543852
     11          6           0       -7.319409    1.806429   -3.083725
     12          6           0       -3.733692    3.399991   -2.967188
     13          6           0       -3.843701    4.464581   -4.062587
     14          1           0       -2.801948    5.475447   -4.163829
     15          7           0       -4.323393   -2.160371   -1.499151
     16          6           0       -4.692629   -1.874932   -2.770951
     17          6           0       -4.483078   -3.117474   -3.544812
     18          6           0       -4.142292   -4.201270   -2.581824
     19          6           0       -4.342828   -3.526041   -1.325150
     20          6           0       -4.563292   -3.179463   -5.039293
     21          6           0       -3.715389   -5.623360   -2.764979
     22          8           0       -3.694630   -6.457430   -1.796233
     23          6           0       -3.402711   -6.043098   -4.143056
     24          7           0       -4.773519   -2.381804    1.486441
     25          6           0       -4.720044   -3.684576    1.188263
     26          6           0       -4.772056   -4.530546    2.425829
     27          6           0       -4.627183   -3.523218    3.656299
     28          6           0       -4.597455   -2.190539    2.868040
     29          6           0       -6.040169   -5.376506    2.605416
     30          6           0       -3.488354   -3.807580    4.667548
     31          6           0       -2.146757   -3.594098    4.002987
     32          7           0       -4.443251    0.528618    1.651286
     33          6           0       -4.585919    0.266431    3.021533
     34          6           0       -4.701369    1.569892    3.701039
     35          6           0       -4.634043    2.505342    2.670386
     36          6           0       -4.512303    1.828229    1.423393
     37          6           0       -4.905079    1.767738    5.095239
     38          6           0       -4.661396    3.918631    2.330206
     39          8           0       -4.653986    4.966672    2.977547
     40          6           0       -4.820193    4.050967    0.751252
     41          6           0       -3.803697    5.052375    0.274567
     42          8           0       -2.582311    4.804747    0.339851
     43          8           0       -4.426833    6.033696   -0.395696
     44          6           0       -3.471987    7.045701   -0.921310
     45          1           0       -5.702871   -0.714602   -4.221531
     46          1           0       -4.468770   -5.185215   -0.047249
     47          1           0       -4.652388   -0.973798    4.607796
     48          1           0       -5.748589    3.812845   -2.242405
     49          1           0       -5.481236    1.864895   -4.262668
     50          1           0       -7.656208    2.485337   -2.300417
     51          1           0       -7.577122    0.777402   -2.832367
     52          1           0       -7.797613    2.009486   -4.042300
     53          1           0       -3.315112    2.578357   -3.548368
     54          1           0       -3.047362    3.747599   -2.194241
     55          1           0       -4.829623    4.930235   -4.068251
     56          1           0       -3.773286    3.967583   -5.030180
     57          1           0       -4.992874   -2.269050   -5.455410
     58          1           0       -5.284317   -3.958090   -5.287428
     59          1           0       -3.599758   -3.412691   -5.492656
     60          1           0       -4.279837   -5.892769   -4.772818
     61          1           0       -3.030445   -7.064281   -4.069216
     62          1           0       -2.623725   -5.392782   -4.542079
     63          1           0       -3.947823   -5.242289    2.447911
     64          1           0       -5.527509   -3.495725    4.270572
     65          1           0       -5.843278   -6.443593    2.711556
     66          1           0       -6.697480   -5.182484    1.758310
     67          1           0       -6.672214   -5.080733    3.442348
     68          1           0       -3.522507   -4.846152    4.994882
     69          1           0       -3.534801   -3.178050    5.556247
     70          1           0       -1.972483   -4.542566    3.496164
     71          1           0       -1.377143   -3.404470    4.751950
     72          1           0       -2.200618   -2.820353    3.236891
     73          1           0       -4.236901    2.577079    5.389307
     74          1           0       -4.697645    0.858298    5.658704
     75          1           0       -5.961435    2.035653    5.108947
     76          1           0       -5.840948    4.383737    0.565661
     77          1           0       -3.789460    8.015745   -0.538610
     78          1           0       -3.444086    6.912993   -2.002982
     79          1           0       -2.453860    6.994780   -0.533801
     80         12           0        4.638533   -0.610524    0.112290
     81          6           0        3.995280    2.915294    0.296280
     82          6           0        4.080437   -0.385667   -3.245180
     83          6           0        4.754875   -3.778606   -0.018715
     84          6           0        4.021858   -0.761015    3.539054
     85          7           0        4.113951    1.099197   -1.189225
     86          6           0        3.956287    2.403005   -1.017293
     87          6           0        3.824901    3.214182   -2.334219
     88          6           0        3.295674    2.037113   -3.289885
     89          6           0        3.892964    0.838667   -2.555289
     90          6           0        1.782804    1.893724   -3.286763
     91          6           0        5.202830    3.779323   -2.828127
     92          6           0        5.106591    4.834525   -3.932233
     93          1           0        6.073125    5.929193   -3.934987
     94          7           0        4.928806   -1.822212   -1.432420
     95          6           0        4.668691   -1.561999   -2.730851
     96          6           0        5.036832   -2.781257   -3.467104
     97          6           0        5.380365   -3.839992   -2.479297
     98          6           0        5.006456   -3.179850   -1.244588
     99          6           0        5.115342   -2.834687   -4.965240
    100          6           0        5.939391   -5.223099   -2.623210
    101          8           0        5.934898   -6.055926   -1.648925
    102          6           0        6.406903   -5.605040   -3.963745
    103          7           0        4.214746   -2.095752    1.503987
    104          6           0        4.399340   -3.394150    1.207296
    105          6           0        4.294366   -4.256250    2.442670
    106          6           0        4.240542   -3.237457    3.674227
    107          6           0        4.233511   -1.902241    2.897978
    108          6           0        3.085517   -5.189845    2.501623
    109          6           0        5.295738   -3.434164    4.796966
    110          6           0        6.676571   -3.118972    4.268447
    111          7           0        4.286754    0.819076    1.693592
    112          6           0        4.025748    0.540206    3.053079
    113          6           0        3.738751    1.829533    3.714679
    114          6           0        3.830808    2.773984    2.681218
    115          6           0        4.132589    2.117173    1.457698
    116          6           0        3.395512    2.003059    5.085149
    117          6           0        3.730845    4.176028    2.345097
    118          8           0        3.582862    5.214905    2.987409
    119          6           0        3.708203    4.315783    0.761959
    120          6           0        4.682037    5.395587    0.377008
    121          8           0        5.900991    5.246719    0.573441
    122          8           0        4.041523    6.326787   -0.353035
    123          6           0        4.968333    7.413382   -0.767960
    124          1           0        3.703940   -0.469440   -4.265046
    125          1           0        4.891097   -4.862058    0.013637
    126          1           0        3.916606   -0.712296    4.624975
    127          1           0        3.101396    4.019925   -2.301166
    128          1           0        3.715998    2.120246   -4.288768
    129          1           0        1.319146    2.531925   -2.549303
    130          1           0        1.586407    0.853177   -3.063759
    131          1           0        1.385672    2.066872   -4.291080
    132          1           0        5.740442    2.989926   -3.369026
    133          1           0        5.772192    4.167403   -2.006032
    134          1           0        4.086692    5.222097   -4.044218
    135          1           0        5.317492    4.354099   -4.890727
    136          1           0        4.647341   -1.955069   -5.424195
    137          1           0        4.490647   -3.674426   -5.288424
    138          1           0        6.133340   -2.991237   -5.328356
    139          1           0        5.585844   -5.516982   -4.671245
    140          1           0        6.852982   -6.594591   -3.846727
    141          1           0        7.175096   -4.891780   -4.282744
    142          1           0        5.167059   -4.889038    2.547953
    143          1           0        3.281133   -3.295072    4.209065
    144          1           0        3.361500   -6.253888    2.626999
    145          1           0        2.503266   -5.051682    1.600263
    146          1           0        2.361841   -4.959648    3.281677
    147          1           0        5.317135   -4.478558    5.117798
    148          1           0        5.106451   -2.830382    5.678214
    149          1           0        6.971528   -4.051108    3.777315
    150          1           0        7.352135   -2.872120    5.084974
    151          1           0        6.634919   -2.339648    3.498666
    152          1           0        3.957105    2.856525    5.441109
    153          1           0        3.616439    1.110289    5.666461
    154          1           0        2.320199    2.179221    4.996108
    155          1           0        2.686834    4.562357    0.469425
    156          1           0        4.533153    8.355023   -0.419218
    157          1           0        5.099939    7.293130   -1.859731
    158          1           0        5.944938    7.445338   -0.299268
 ---------------------------------------------------------------------

 SCF Done:  E(RCAM-B3LYP) =  -4069.81114370     A.U. after   19 cycles

 Excitation energies and oscillator strengths:

 Excited State   1:      Singlet-A      1.6474 eV  752.62 nm  f=0.0050  <S**2>=0.000
     309 -> 315       -0.11455
     310 -> 316        0.12106
     311 -> 313       -0.47046
     312 -> 314        0.50162
 This state for optimization and/or second-order correction.
 Total Energy, E(TD-HF/TD-DFT) =  -4069.75060390
 Copying the excited state density for this state as the 1-particle RhoCI density.

 Excited State   2:      Singlet-A      1.7052 eV  727.11 nm  f=0.6929  <S**2>=0.000
     309 -> 315        0.13289
     310 -> 316        0.12358
     311 -> 313        0.49895
     312 -> 314        0.46803

 Excited State   3:      Singlet-A      2.1804 eV  568.63 nm  f=0.0123  <S**2>=0.000
     309 -> 313       -0.32481
     310 -> 314        0.55738
     311 -> 315        0.13424
     312 -> 316       -0.23203

 Excited State   4:      Singlet-A      2.1965 eV  564.47 nm  f=0.1610  <S**2>=0.000
     309 -> 313        0.55239
     310 -> 314        0.32006
     311 -> 315       -0.24403
     312 -> 316       -0.14267

 Excited State   5:      Singlet-A      2.3490 eV  527.82 nm  f=0.0000  <S**2>=0.000
     312 -> 313        0.70709

 The electronic state is 1-A.
 Alpha  occ. eigenvalues --  -46.87876 -46.87416 -19.26311 -19.26061 -19.19049
 Alpha  occ. eigenvalues --  -19.18873 -19.18871 -19.18510 -19.18191 -19.17694
 Alpha  occ. eigenvalues --  -14.42539 -14.42258 -14.41530 -14.41117 -14.39481
 Alpha  occ. eigenvalues --  -14.39111 -14.38657 -14.38337 -10.39113 -10.38789
 Alpha  occ. eigenvalues --  -10.35508 -10.35194 -10.34414 -10.33865 -10.31694
 Alpha  occ. eigenvalues --  -10.31526 -10.31490 -10.31049 -10.31003 -10.30784
 Alpha  occ. eigenvalues --  -10.30645 -10.30575 -10.30294 -10.30138 -10.30094
 Alpha  occ. eigenvalues --  -10.29990 -10.29937 -10.29700 -10.29638 -10.29333
 Alpha  occ. eigenvalues --  -10.29213 -10.29147 -10.28879 -10.28752 -10.28515
 Alpha  occ. eigenvalues --  -10.28480 -10.28437 -10.28234 -10.28139 -10.27917
 Alpha  occ. eigenvalues --  -10.27856 -10.27816 -10.27736 -10.27657 -10.27596
 Alpha  occ. eigenvalues --  -10.27592 -10.27527 -10.27481 -10.27444 -10.27337
 Alpha  occ. eigenvalues --  -10.27324 -10.27223 -10.27220 -10.27202 -10.27171
 Alpha  occ. eigenvalues --  -10.26900 -10.26657 -10.26505 -10.26482 -10.26332
 Alpha  occ. eigenvalues --  -10.26304 -10.26270 -10.26101 -10.25988 -10.25873
 Alpha  occ. eigenvalues --  -10.25781 -10.25705 -10.25543 -10.25500 -10.25187
 Alpha  occ. eigenvalues --  -10.24891 -10.24860 -10.24842 -10.24590 -10.24581
 Alpha  occ. eigenvalues --  -10.24439  -3.16619  -3.16166  -1.91500  -1.91087
 Alpha  occ. eigenvalues --   -1.91049  -1.90929  -1.90637  -1.90474  -1.16660
 Alpha  occ. eigenvalues --   -1.16355  -1.08643  -1.08289  -1.07273  -1.06766
 Alpha  occ. eigenvalues --   -1.06670  -1.06653  -1.04668  -1.04248  -1.03841
 Alpha  occ. eigenvalues --   -1.03418  -1.03308  -1.02793  -1.02487  -1.01859
 Alpha  occ. eigenvalues --   -0.92039  -0.91697  -0.89607  -0.89310  -0.89271
 Alpha  occ. eigenvalues --   -0.88925  -0.88373  -0.88007  -0.87928  -0.87769
 Alpha  occ. eigenvalues --   -0.87517  -0.87452  -0.87355  -0.86915  -0.85097
 Alpha  occ. eigenvalues --   -0.84778  -0.84024  -0.83664  -0.83047  -0.82746
 Alpha  occ. eigenvalues --   -0.82744  -0.82432  -0.81644  -0.81336  -0.80669
 Alpha  occ. eigenvalues --   -0.80197  -0.78875  -0.78407  -0.77316  -0.77031
 Alpha  occ. eigenvalues --   -0.76926  -0.76670  -0.76003  -0.75591  -0.74976
 Alpha  occ. eigenvalues --   -0.74576  -0.72850  -0.72450  -0.71751  -0.71337
 Alpha  occ. eigenvalues --   -0.70010  -0.69568  -0.68977  -0.68604  -0.67714
 Alpha  occ. eigenvalues --   -0.67357  -0.67346  -0.66999  -0.65393  -0.65033
 Alpha  occ. eigenvalues --   -0.64928  -0.64705  -0.64530  -0.64414  -0.64355
 Alpha  occ. eigenvalues --   -0.63984  -0.62347  -0.62017  -0.60521  -0.60123
 Alpha  occ. eigenvalues --   -0.59907  -0.59558  -0.59063  -0.58745  -0.58575
 Alpha  occ. eigenvalues --   -0.58169  -0.57632  -0.57379  -0.57235  -0.56989
 Alpha  occ. eigenvalues --   -0.56381  -0.56039  -0.55962  -0.55636  -0.55594
 Alpha  occ. eigenvalues --   -0.55410  -0.55223  -0.55011  -0.54589  -0.54251
 Alpha  occ. eigenvalues --   -0.54015  -0.53691  -0.53375  -0.53315  -0.53001
 Alpha  occ. eigenvalues --   -0.52987  -0.52912  -0.52851  -0.52666  -0.52542
 Alpha  occ. eigenvalues --   -0.52479  -0.52214  -0.51960  -0.51725  -0.51587
 Alpha  occ. eigenvalues --   -0.51444  -0.51267  -0.50941  -0.50665  -0.50303
 Alpha  occ. eigenvalues --   -0.50130  -0.50006  -0.49770  -0.49659  -0.49606
 Alpha  occ. eigenvalues --   -0.49283  -0.49271  -0.49188  -0.48950  -0.48845
 Alpha  occ. eigenvalues --   -0.48659  -0.48533  -0.48501  -0.48306  -0.48156
 Alpha  occ. eigenvalues --   -0.48102  -0.47782  -0.47375  -0.47374  -0.46907
 Alpha  occ. eigenvalues --   -0.46887  -0.46669  -0.46485  -0.46435  -0.46342
 Alpha  occ. eigenvalues --   -0.46226  -0.46044  -0.45876  -0.45830  -0.45549
 Alpha  occ. eigenvalues --   -0.45282  -0.44980  -0.44636  -0.44608  -0.44279
 Alpha  occ. eigenvalues --   -0.44239  -0.44233  -0.44191  -0.44080  -0.43891
 Alpha  occ. eigenvalues --   -0.43863  -0.43690  -0.43552  -0.43482  -0.43308
 Alpha  occ. eigenvalues --   -0.43147  -0.43100  -0.42776  -0.42710  -0.42677
 Alpha  occ. eigenvalues --   -0.42624  -0.42348  -0.42108  -0.41773  -0.41752
 Alpha  occ. eigenvalues --   -0.41649  -0.41385  -0.41244  -0.41223  -0.40984
 Alpha  occ. eigenvalues --   -0.40911  -0.40749  -0.40662  -0.40526  -0.40496
 Alpha  occ. eigenvalues --   -0.40389  -0.40275  -0.40033  -0.39555  -0.39243
 Alpha  occ. eigenvalues --   -0.38567  -0.38144  -0.37891  -0.37455  -0.37410
 Alpha  occ. eigenvalues --   -0.37370  -0.37047  -0.36968  -0.36763  -0.36508
 Alpha  occ. eigenvalues --   -0.36263  -0.35983  -0.34362  -0.34004  -0.33808
 Alpha  occ. eigenvalues --   -0.33577  -0.33259  -0.32928  -0.31404  -0.31112
 Alpha  occ. eigenvalues --   -0.31069  -0.30721  -0.30050  -0.29594  -0.29519
 Alpha  occ. eigenvalues --   -0.29380  -0.29089  -0.28923  -0.24159  -0.23780
 Alpha  occ. eigenvalues --   -0.21207  -0.20872
 Alpha virt. eigenvalues --   -0.08847  -0.08538  -0.01829  -0.01446  -0.00130
 Alpha virt. eigenvalues --    0.00205   0.02150   0.02500   0.02881   0.03515
 Alpha virt. eigenvalues --    0.04607   0.04958   0.05060   0.05466   0.06010

 Mulliken charges:
               1
     1  Mg   0.838660
     2  C   -0.003220
     3  C   -0.094999
     4  C   -0.045539
     5  C   -0.063994
     6  N   -0.256619
     7  C   -0.052918
     8  C   -0.013729
     9  C   -0.086849
    10  C    0.045912
    11  C    0.104791
    12  C    0.053634
    13  C   -0.071261
    14  H    0.034640
    15  N   -0.433151
    16  C    0.168184
    17  C   -0.177712
    18  C   -0.003887
    19  C    0.148774
    20  C    0.110321
    21  C    0.012736
    22  O   -0.249041
    23  C    0.062536
    24  N   -0.341078
    25  C    0.041090
    26  C   -0.028323
    27  C   -0.023933
    28  C    0.074838
    29  C    0.076067
    30  C    0.035140
    31  C   -0.005109
    32  N   -0.310623
    33  C    0.080615
    34  C   -0.169432
    35  C    0.008982
    36  C    0.083162
    37  C    0.127076
    38  C    0.046934
    39  O   -0.186703
    40  C   -0.005714
    41  C    0.213633
    42  O   -0.257174
    43  O   -0.304956
    44  C    0.156947
    45  H   -0.017832
    46  H   -0.016581
    47  H   -0.041404
    48  H    0.001421
    49  H   -0.004810
    50  H    0.025781
    51  H    0.016706
    52  H    0.016589
    53  H    0.009783
    54  H    0.043415
    55  H    0.018913
    56  H    0.017138
    57  H    0.005385
    58  H    0.027079
    59  H    0.038302
    60  H    0.037130
    61  H    0.036294
    62  H    0.030669
    63  H    0.016651
    64  H    0.009761
    65  H    0.023434
    66  H    0.012682
    67  H    0.004859
    68  H    0.006454
    69  H    0.004766
    70  H    0.009141
    71  H    0.016213
    72  H    0.030087
    73  H    0.048732
    74  H    0.008838
    75  H    0.046260
    76  H    0.035261
    77  H    0.043867
    78  H    0.045171
    79  H    0.055197
    80  Mg   0.837401
    81  C   -0.015601
    82  C   -0.088176
    83  C   -0.045506
    84  C   -0.065321
    85  N   -0.254454
    86  C   -0.048617
    87  C   -0.015083
    88  C   -0.090882
    89  C    0.045759
    90  C    0.112975
    91  C    0.062662
    92  C   -0.077171
    93  H    0.034157
    94  N   -0.423325
    95  C    0.162572
    96  C   -0.175722
    97  C   -0.008200
    98  C    0.151669
    99  C    0.099901
   100  C    0.015167
   101  O   -0.253515
   102  C    0.061445
   103  N   -0.350074
   104  C    0.037237
   105  C   -0.019690
   106  C   -0.034626
   107  C    0.089399
   108  C    0.073388
   109  C    0.034824
   110  C   -0.007536
   111  N   -0.324661
   112  C    0.079292
   113  C   -0.162399
   114  C    0.004481
   115  C    0.095757
   116  C    0.130786
   117  C    0.045530
   118  O   -0.185851
   119  C   -0.000801
   120  C    0.210548
   121  O   -0.252094
   122  O   -0.304640
   123  C    0.152363
   124  H   -0.021555
   125  H   -0.015923
   126  H   -0.041036
   127  H    0.000950
   128  H   -0.005843
   129  H    0.028904
   130  H    0.013369
   131  H    0.012745
   132  H    0.013417
   133  H    0.037759
   134  H    0.020236
   135  H    0.018685
   136  H    0.007582
   137  H    0.024449
   138  H    0.039076
   139  H    0.037443
   140  H    0.035862
   141  H    0.033531
   142  H    0.013898
   143  H    0.011497
   144  H    0.024678
   145  H    0.013061
   146  H    0.004970
   147  H    0.005651
   148  H    0.003201
   149  H    0.010792
   150  H    0.017509
   151  H    0.030465
   152  H    0.045824
   153  H    0.007050
   154  H    0.050295
   155  H    0.042963
   156  H    0.043609
   157  H    0.048398
   158  H    0.053062
 Sum of Mulliken charges =  -0.00000

 Dipole moment (field-independent basis, Debye):
    X=             -3.6200    Y=             -2.2177    Z=             -7.4693  Tot=              8.5915
 Quadrupole moment (field-independent basis, Debye-Ang):
   XX=           -514.1125   YY=           -551.3056   ZZ=           -449.0447
   XY=              0.6188   XZ=             -0.4166   YZ=            -48.3248

 Normal termination of Gaussian 16 at Fri Sep 10 04:11:07 2021.
