 Gaussian 16, Revision A.03,
 Gaussian 16:  ES64L-G16RevA.03 25-Dec-2016

 -----------------------------------
 #p cam-b3lyp/Def2SVP td=(nstates=5)
 -----------------------------------

 --------------------------------
 TDDFT excited states in gaussian
 --------------------------------
 Symbolic Z-matrix:
 Charge =  0 Multiplicity = 1

                         Standard orientation:
 ---------------------------------------------------------------------
 Center     Atomic      Atomic             Coordinates (Angstroms)
 Number     Number       Type             X           Y           Z
 ---------------------------------------------------------------------
      1         12           0       -7.887535   -0.677955   -0.345486
      2          6           0       -8.209395    1.925910    2.089367
      3          6           0       -8.667423    1.647591   -2.717547
      4          6           0       -8.055597   -3.042184   -2.452331
      5          6           0       -8.255847   -2.960101    2.262544
      6          7           0       -8.356144    1.481220   -0.207593
      7          6           0       -8.387376    2.372624    0.778102
      8          6           0       -8.552045    3.839493    0.279551
      9          6           0       -9.241761    3.550829   -1.128627
     10          6           0       -8.695595    2.157401   -1.385506
     11          6           0      -10.763594    3.476561   -1.057842
     12          6           0       -7.176087    4.566201    0.105287
     13          6           0       -7.256537    6.086461   -0.061117
     14          1           0       -6.209171    6.911173    0.522170
     15          7           0       -7.819601   -0.642113   -2.319555
     16          6           0       -8.157762    0.395046   -3.122820
     17          6           0       -7.934362   -0.072414   -4.507830
     18          6           0       -7.620147   -1.527145   -4.451968
     19          6           0       -7.847891   -1.804608   -3.056789
     20          6           0       -7.979546    0.833974   -5.699539
     21          6           0       -7.194004   -2.513321   -5.493117
     22          8           0       -7.198991   -3.773702   -5.278663
     23          6           0       -6.850398   -1.963658   -6.817068
     24          7           0       -8.340739   -2.707980   -0.168739
     25          6           0       -8.284792   -3.522310   -1.228324
     26          6           0       -8.368906   -4.961936   -0.815599
     27          6           0       -8.249564   -4.973013    0.776691
     28          6           0       -8.196622   -3.444529    1.020010
     29          6           0       -9.643839   -5.705563   -1.236993
     30          6           0       -7.135884   -5.856878    1.392253
     31          6           0       -5.778260   -5.292558    1.037993
     32          7           0       -8.004306   -0.577146    1.819519
     33          6           0       -8.180143   -1.650087    2.705270
     34          6           0       -8.307033   -1.077220    4.057967
     35          6           0       -8.212174    0.299153    3.861894
     36          6           0       -8.063437    0.570389    2.471714
     37          6           0       -8.542855   -1.810005    5.254565
     38          6           0       -8.226575    1.605093    4.500776
     39          8           0       -8.230772    1.999549    5.667772
     40          6           0       -8.347651    2.716404    3.366688
     41          6           0       -7.316719    3.773619    3.654411
     42          8           0       -6.098082    3.519628    3.566227
     43          8           0       -7.920461    4.967811    3.754128
     44          6           0       -6.949971    6.065472    4.009946
     45          1           0       -9.129484    2.231422   -3.516035
     46          1           0       -8.009699   -3.895013   -3.132782
     47          1           0       -8.288302   -3.615428    3.134866
     48          1           0       -9.206057    4.457857    0.894627
     49          1           0       -8.897952    4.240594   -1.899173
     50          1           0      -11.116393    3.506110   -0.027026
     51          1           0      -11.030745    2.528274   -1.524613
     52          1           0      -11.218362    4.252518   -1.674164
     53          1           0       -6.746793    4.296413   -0.859587
     54          1           0       -6.506959    4.329045    0.933146
     55          1           0       -8.240423    6.466210    0.215773
     56          1           0       -7.165070    6.319227   -1.122085
     57          1           0       -8.396025    1.808105   -5.446243
     58          1           0       -8.697231    0.405187   -6.398666
     59          1           0       -7.006413    0.926274   -6.182058
     60          1           0       -7.711908   -1.430863   -7.220155
     61          1           0       -6.483537   -2.803898   -7.405507
     62          1           0       -6.059962   -1.222176   -6.697222
     63          1           0       -7.547908   -5.538839   -1.239358
     64          1           0       -9.164016   -5.327479    1.252931
     65          1           0       -9.453225   -6.598644   -1.832626
     66          1           0      -10.280322   -5.004452   -1.776089
     67          1           0      -10.294400   -6.000080   -0.413921
     68          1           0       -7.181361   -6.864911    0.981466
     69          1           0       -7.201070   -5.937691    2.477367
     70          1           0       -5.595396   -5.703115    0.045604
     71          1           0       -5.025856   -5.637584    1.747961
     72          1           0       -5.811353   -4.207244    0.940601
     73          1           0       -7.878977   -1.385907    6.007810
     74          1           0       -8.351930   -2.873384    5.111822
     75          1           0       -9.598301   -1.593668    5.419148
     76          1           0       -9.362583    3.109117    3.419717
     77          1           0       -7.272992    6.574312    4.918226
     78          1           0       -6.897046    6.652312    3.092764
     79          1           0       -5.941443    5.761182    4.292114
     80         12           0        7.965063   -0.606244    0.365588
     81          6           0        7.878502    1.960337   -2.141249
     82          6           0        9.091255    1.766007    2.542460
     83          6           0        8.481192   -2.924347    2.469730
     84          6           0        7.943583   -2.940767   -2.221916
     85          7           0        8.389478    1.549960    0.114755
     86          6           0        8.260655    2.429502   -0.867160
     87          6           0        8.480326    3.905913   -0.441106
     88          6           0        9.394188    3.648987    0.854159
     89          6           0        8.908893    2.248255    1.221740
     90          6           0       10.878582    3.572481    0.537824
     91          6           0        7.137875    4.625102   -0.063460
     92          6           0        7.237166    6.146875    0.063380
     93          1           0        6.097860    6.956400   -0.359868
     94          7           0        8.206689   -0.523843    2.333691
     95          6           0        8.651877    0.525869    3.055622
     96          6           0        8.667901    0.073620    4.455402
     97          6           0        8.352882   -1.380600    4.482146
     98          6           0        8.355220   -1.676958    3.063604
     99          6           0        8.884115    1.008204    5.610051
    100          6           0        8.104835   -2.347574    5.600014
    101          8           0        8.084640   -3.613895    5.402906
    102          6           0        7.979202   -1.773501    6.947660
    103          7           0        8.394679   -2.629684    0.157155
    104          6           0        8.519991   -3.424375    1.234501
    105          6           0        8.553087   -4.880859    0.837084
    106          6           0        8.179285   -4.910592   -0.717573
    107          6           0        8.077625   -3.392406   -0.982473
    108          6           0        9.884613   -5.599485    1.053920
    109          6           0        6.988972   -5.815604   -1.138014
    110          6           0        5.697844   -5.263342   -0.578206
    111          7           0        7.734312   -0.545966   -1.781768
    112          6           0        7.783297   -1.637850   -2.675904
    113          6           0        7.689778   -1.085657   -4.042930
    114          6           0        7.615455    0.301863   -3.848653
    115          6           0        7.679883    0.595082   -2.459636
    116          6           0        7.729746   -1.840010   -5.249367
    117          6           0        7.507852    1.585824   -4.503309
    118          8           0        7.331731    1.957656   -5.662817
    119          6           0        7.800721    2.724527   -3.433758
    120          6           0        6.729075    3.771842   -3.565072
    121          8           0        5.546029    3.503377   -3.291322
    122          8           0        7.306068    4.968050   -3.780763
    123          6           0        6.284076    6.041104   -3.906850
    124          1           0        9.661735    2.376040    3.243391
    125          1           0        8.550284   -3.769614    3.158379
    126          1           0        7.831529   -3.609539   -3.077997
    127          1           0        9.017698    4.511340   -1.161150
    128          1           0        9.161182    4.353802    1.648071
    129          1           0       11.065064    3.585764   -0.525753
    130          1           0       11.224134    2.642950    0.970943
    131          1           0       11.417070    4.367542    1.061508
    132          1           0        6.871982    4.367396    0.969803
    133          1           0        6.360774    4.370275   -0.757575
    134          1           0        8.167064    6.536669   -0.368242
    135          1           0        7.305723    6.403008    1.123432
    136          1           0        9.253755    1.984668    5.273440
    137          1           0        9.706777    0.596679    6.204813
    138          1           0        8.001384    1.103320    6.245968
    139          1           0        8.886551   -1.226883    7.193367
    140          1           0        7.715927   -2.609805    7.598170
    141          1           0        7.163137   -1.042327    6.941778
    142          1           0        7.813008   -5.448795    1.387390
    143          1           0        9.014096   -5.281307   -1.330354
    144          1           0        9.797855   -6.493856    1.699408
    145          1           0       10.588773   -4.893892    1.474457
    146          1           0       10.391349   -5.917307    0.144307
    147          1           0        7.107000   -6.816772   -0.716249
    148          1           0        6.890609   -5.928371   -2.212546
    149          1           0        5.683590   -5.656168    0.442852
    150          1           0        4.846365   -5.623953   -1.151775
    151          1           0        5.734238   -4.169852   -0.510224
    152          1           0        6.959117   -1.438010   -5.893590
    153          1           0        7.577668   -2.900624   -5.060316
    154          1           0        8.748999   -1.624135   -5.580705
    155          1           0        8.792846    3.125227   -3.645181
    156          1           0        6.458400    6.537158   -4.866654
    157          1           0        6.385463    6.658887   -2.994809
    158          1           0        5.248895    5.737640   -4.010557
 ---------------------------------------------------------------------

 SCF Done:  E(RCAM-B3LYP) =  -4069.81183522     A.U. after   19 cycles

 Excitation energies and oscillator strengths:

 Excited State   1:      Singlet-A      1.6703 eV  742.28 nm  f=0.0256  <S**2>=0.000
     309 -> 315        0.13907
     310 -> 316        0.10226
     311 -> 313        0.55382
     312 -> 314        0.40542
 This state for optimization and/or second-order correction.
 Total Energy, E(TD-HF/TD-DFT) =  -4069.75045209
 Copying the excited state density for this state as the 1-particle RhoCI density.

 Excited State   2:      Singlet-A      1.6852 eV  735.72 nm  f=0.7326  <S**2>=0.000
     309 -> 315       -0.10405
     310 -> 316        0.14278
     311 -> 313       -0.40491
     312 -> 314        0.55302

 Excited State   3:      Singlet-A      2.1859 eV  567.19 nm  f=0.0601  <S**2>=0.000
     309 -> 313        0.62865
     310 -> 314       -0.13361
     311 -> 315       -0.26696

 Excited State   4:      Singlet-A      2.1931 eV  565.33 nm  f=0.1334  <S**2>=0.000
     309 -> 313        0.13267
     310 -> 314        0.62673
     312 -> 316       -0.27249

 Excited State   5:      Singlet-A      2.7932 eV  443.88 nm  f=0.0000  <S**2>=0.000
     312 -> 313        0.70710

 The electronic state is 1-A.
 Alpha  occ. eigenvalues --  -46.87668 -46.87600 -19.26329 -19.26193 -19.19132
 Alpha  occ. eigenvalues --  -19.18920 -19.18672 -19.18642 -19.18060 -19.18011
 Alpha  occ. eigenvalues --  -14.42440 -14.42324 -14.41324 -14.41302 -14.39291
 Alpha  occ. eigenvalues --  -14.39272 -14.38543 -14.38461 -10.39061 -10.38979
 Alpha  occ. eigenvalues --  -10.35318 -10.35304 -10.34280 -10.34189 -10.31749
 Alpha  occ. eigenvalues --  -10.31601 -10.31284 -10.31256 -10.30964 -10.30781
 Alpha  occ. eigenvalues --  -10.30446 -10.30382 -10.30341 -10.30306 -10.30080
 Alpha  occ. eigenvalues --  -10.30079 -10.29841 -10.29801 -10.29503 -10.29375
 Alpha  occ. eigenvalues --  -10.29343 -10.29124 -10.28667 -10.28628 -10.28605
 Alpha  occ. eigenvalues --  -10.28421 -10.28347 -10.28238 -10.28090 -10.27998
 Alpha  occ. eigenvalues --  -10.27946 -10.27668 -10.27612 -10.27601 -10.27462
 Alpha  occ. eigenvalues --  -10.27453 -10.27429 -10.27405 -10.27391 -10.27383
 Alpha  occ. eigenvalues --  -10.27334 -10.27333 -10.27322 -10.27280 -10.27050
 Alpha  occ. eigenvalues --  -10.27011 -10.26634 -10.26576 -10.26326 -10.26246
 Alpha  occ. eigenvalues --  -10.26126 -10.26078 -10.26067 -10.25983 -10.25895
 Alpha  occ. eigenvalues --  -10.25878 -10.25812 -10.25739 -10.25351 -10.25329
 Alpha  occ. eigenvalues --  -10.24820 -10.24711 -10.24663 -10.24660 -10.24633
 Alpha  occ. eigenvalues --  -10.24560  -3.16410  -3.16350  -1.91292  -1.91232
 Alpha  occ. eigenvalues --   -1.90878  -1.90821  -1.90720  -1.90658  -1.16621
 Alpha  occ. eigenvalues --   -1.16539  -1.08621  -1.08520  -1.07073  -1.06917
 Alpha  occ. eigenvalues --   -1.06894  -1.06543  -1.04455  -1.04438  -1.03635
 Alpha  occ. eigenvalues --   -1.03605  -1.03107  -1.02981  -1.02285  -1.02055
 Alpha  occ. eigenvalues --   -0.91936  -0.91852  -0.89438  -0.89398  -0.89099
 Alpha  occ. eigenvalues --   -0.89067  -0.88167  -0.88164  -0.87752  -0.87744
 Alpha  occ. eigenvalues --   -0.87628  -0.87548  -0.87135  -0.87052  -0.84946
 Alpha  occ. eigenvalues --   -0.84859  -0.83822  -0.83819  -0.82862  -0.82827
 Alpha  occ. eigenvalues --   -0.82596  -0.82525  -0.81557  -0.81477  -0.80476
 Alpha  occ. eigenvalues --   -0.80393  -0.78666  -0.78575  -0.77096  -0.77090
 Alpha  occ. eigenvalues --   -0.76851  -0.76820  -0.75809  -0.75793  -0.74782
 Alpha  occ. eigenvalues --   -0.74752  -0.72652  -0.72645  -0.71554  -0.71530
 Alpha  occ. eigenvalues --   -0.69787  -0.69699  -0.68773  -0.68750  -0.67547
 Alpha  occ. eigenvalues --   -0.67517  -0.67140  -0.67090  -0.65220  -0.65166
 Alpha  occ. eigenvalues --   -0.64736  -0.64719  -0.64605  -0.64503  -0.64149
 Alpha  occ. eigenvalues --   -0.64149  -0.62241  -0.62192  -0.60309  -0.60276
 Alpha  occ. eigenvalues --   -0.59743  -0.59682  -0.58940  -0.58867  -0.58383
 Alpha  occ. eigenvalues --   -0.58374  -0.57515  -0.57474  -0.57188  -0.57181
 Alpha  occ. eigenvalues --   -0.56187  -0.56151  -0.55874  -0.55847  -0.55398
 Alpha  occ. eigenvalues --   -0.55392  -0.55227  -0.55200  -0.54443  -0.54414
 Alpha  occ. eigenvalues --   -0.53860  -0.53774  -0.53173  -0.53172  -0.53095
 Alpha  occ. eigenvalues --   -0.53088  -0.52853  -0.52798  -0.52619  -0.52600
 Alpha  occ. eigenvalues --   -0.52342  -0.52318  -0.51841  -0.51803  -0.51602
 Alpha  occ. eigenvalues --   -0.51490  -0.51153  -0.51080  -0.50424  -0.50402
 Alpha  occ. eigenvalues --   -0.49921  -0.49909  -0.49809  -0.49785  -0.49428
 Alpha  occ. eigenvalues --   -0.49388  -0.49150  -0.49093  -0.49057  -0.48980
 Alpha  occ. eigenvalues --   -0.48513  -0.48481  -0.48344  -0.48327  -0.48315
 Alpha  occ. eigenvalues --   -0.48275  -0.47571  -0.47540  -0.47173  -0.47062
 Alpha  occ. eigenvalues --   -0.46676  -0.46656  -0.46500  -0.46434  -0.46237
 Alpha  occ. eigenvalues --   -0.46216  -0.46048  -0.46038  -0.45782  -0.45714
 Alpha  occ. eigenvalues --   -0.45156  -0.45083  -0.44468  -0.44465  -0.44422
 Alpha  occ. eigenvalues --   -0.44376  -0.44077  -0.44021  -0.44021  -0.43969
 Alpha  occ. eigenvalues --   -0.43896  -0.43880  -0.43515  -0.43386  -0.43335
 Alpha  occ. eigenvalues --   -0.43264  -0.42908  -0.42894  -0.42855  -0.42595
 Alpha  occ. eigenvalues --   -0.42539  -0.42494  -0.41908  -0.41890  -0.41620
 Alpha  occ. eigenvalues --   -0.41585  -0.41412  -0.41404  -0.41022  -0.40938
 Alpha  occ. eigenvalues --   -0.40747  -0.40683  -0.40661  -0.40636  -0.40453
 Alpha  occ. eigenvalues --   -0.40439  -0.40167  -0.40107  -0.39365  -0.39319
 Alpha  occ. eigenvalues --   -0.38349  -0.38295  -0.37626  -0.37600  -0.37211
 Alpha  occ. eigenvalues --   -0.37199  -0.37144  -0.37140  -0.36738  -0.36609
 Alpha  occ. eigenvalues --   -0.36168  -0.36079  -0.34198  -0.34162  -0.33828
 Alpha  occ. eigenvalues --   -0.33665  -0.33120  -0.33063  -0.31204  -0.31203
 Alpha  occ. eigenvalues --   -0.30917  -0.30911  -0.29920  -0.29917  -0.29318
 Alpha  occ. eigenvalues --   -0.29266  -0.29198  -0.29157  -0.23980  -0.23955
 Alpha  occ. eigenvalues --   -0.21059  -0.21002
 Alpha virt. eigenvalues --   -0.08734  -0.08647  -0.01625  -0.01622   0.00034
 Alpha virt. eigenvalues --    0.00075   0.02257   0.02319   0.03277   0.03308
 Alpha virt. eigenvalues --    0.04783   0.04840   0.05197   0.05201   0.06230

 Mulliken charges:
               1
     1  Mg   0.839312
     2  C   -0.002893
     3  C   -0.093894
     4  C   -0.045837
     5  C   -0.064023
     6  N   -0.256793
     7  C   -0.052472
     8  C   -0.014067
     9  C   -0.087076
    10  C    0.046480
    11  C    0.104848
    12  C    0.053402
    13  C   -0.071720
    14  H    0.035911
    15  N   -0.433173
    16  C    0.168660
    17  C   -0.176892
    18  C   -0.003803
    19  C    0.148879
    20  C    0.110142
    21  C    0.012566
    22  O   -0.249724
    23  C    0.062291
    24  N   -0.341175
    25  C    0.041286
    26  C   -0.028143
    27  C   -0.023916
    28  C    0.074831
    29  C    0.076231
    30  C    0.035156
    31  C   -0.004496
    32  N   -0.310414
    33  C    0.080374
    34  C   -0.169855
    35  C    0.008177
    36  C    0.082996
    37  C    0.127347
    38  C    0.045989
    39  O   -0.188958
    40  C   -0.005336
    41  C    0.212747
    42  O   -0.256943
    43  O   -0.304833
    44  C    0.157836
    45  H   -0.017642
    46  H   -0.016879
    47  H   -0.041711
    48  H    0.000662
    49  H   -0.003906
    50  H    0.025307
    51  H    0.016402
    52  H    0.016527
    53  H    0.011768
    54  H    0.044205
    55  H    0.017549
    56  H    0.018140
    57  H    0.005838
    58  H    0.026675
    59  H    0.040362
    60  H    0.037136
    61  H    0.035742
    62  H    0.032348
    63  H    0.016609
    64  H    0.009224
    65  H    0.023103
    66  H    0.012485
    67  H    0.004565
    68  H    0.006147
    69  H    0.004559
    70  H    0.008817
    71  H    0.018140
    72  H    0.029266
    73  H    0.047322
    74  H    0.009022
    75  H    0.045746
    76  H    0.034922
    77  H    0.042554
    78  H    0.046445
    79  H    0.053525
    80  Mg   0.838226
    81  C   -0.016807
    82  C   -0.087673
    83  C   -0.045422
    84  C   -0.064880
    85  N   -0.254557
    86  C   -0.049835
    87  C   -0.015188
    88  C   -0.090539
    89  C    0.045899
    90  C    0.114404
    91  C    0.062468
    92  C   -0.077832
    93  H    0.034717
    94  N   -0.423498
    95  C    0.163166
    96  C   -0.174474
    97  C   -0.007600
    98  C    0.152261
    99  C    0.099361
   100  C    0.015821
   101  O   -0.253170
   102  C    0.061036
   103  N   -0.350059
   104  C    0.037571
   105  C   -0.019853
   106  C   -0.034780
   107  C    0.088914
   108  C    0.073702
   109  C    0.034742
   110  C   -0.007706
   111  N   -0.324040
   112  C    0.078395
   113  C   -0.163243
   114  C    0.002056
   115  C    0.096247
   116  C    0.131524
   117  C    0.042264
   118  O   -0.188418
   119  C    0.000956
   120  C    0.211110
   121  O   -0.250898
   122  O   -0.305646
   123  C    0.152196
   124  H   -0.019671
   125  H   -0.015539
   126  H   -0.040581
   127  H   -0.000889
   128  H   -0.004210
   129  H    0.022318
   130  H    0.014401
   131  H    0.016204
   132  H    0.014386
   133  H    0.037738
   134  H    0.020521
   135  H    0.019783
   136  H    0.008746
   137  H    0.026067
   138  H    0.040382
   139  H    0.038102
   140  H    0.036538
   141  H    0.034493
   142  H    0.014523
   143  H    0.012234
   144  H    0.025114
   145  H    0.011571
   146  H    0.005538
   147  H    0.006142
   148  H    0.003543
   149  H    0.011001
   150  H    0.018065
   151  H    0.030301
   152  H    0.045748
   153  H    0.008513
   154  H    0.046716
   155  H    0.034830
   156  H    0.043516
   157  H    0.049583
   158  H    0.053350
 Sum of Mulliken charges =  -0.00000

 Dipole moment (field-independent basis, Debye):
    X=              0.5276    Y=              3.1277    Z=             -0.5466  Tot=              3.2186
 Quadrupole moment (field-independent basis, Debye-Ang):
   XX=           -451.9509   YY=           -460.4251   ZZ=           -539.7521
   XY=              5.3912   XZ=             55.2091   YZ=             -0.8215

 Normal termination of Gaussian 16 at Sat Sep 11 22:29:57 2021.
