 Gaussian 16, Revision A.03,
 Gaussian 16:  ES64L-G16RevA.03 25-Dec-2016

 -----------------------------------
 #p cam-b3lyp/Def2SVP td=(nstates=5)
 -----------------------------------

 --------------------------------
 TDDFT excited states in gaussian
 --------------------------------
 Symbolic Z-matrix:
 Charge =  0 Multiplicity = 1

                         Standard orientation:
 ---------------------------------------------------------------------
 Center     Atomic      Atomic             Coordinates (Angstroms)
 Number     Number       Type             X           Y           Z
 ---------------------------------------------------------------------
      1         12           0        7.633129   -1.023371    0.360171
      2          6           0        8.031607    2.229551   -1.079248
      3          6           0        8.444703    0.370874    3.366913
      4          6           0        7.732335   -3.953401    1.569181
      5          6           0        7.972293   -2.325654   -2.854590
      6          7           0        8.150070    1.048908    0.942473
      7          6           0        8.208779    2.214533    0.306043
      8          6           0        8.401556    3.430641    1.260659
      9          6           0        9.073415    2.677686    2.495026
     10          6           0        8.494773    1.290660    2.277638
     11          6           0       10.593774    2.595392    2.404261
     12          6           0        7.040507    4.091148    1.664401
     13          6           0        7.152934    5.469154    2.323046
     14          1           0        6.128636    6.464318    2.044099
     15          7           0        7.550105   -1.639003    2.235526
     16          6           0        7.904451   -0.932984    3.336100
     17          6           0        7.659709   -1.825711    4.489279
     18          6           0        7.314128   -3.172869    3.956519
     19          6           0        7.546959   -2.979921    2.547995
     20          6           0        7.715162   -1.364375    5.913303
     21          6           0        6.858092   -4.437001    4.613889
     22          8           0        6.837165   -5.555890    3.995647
     23          6           0        6.515974   -4.346860    6.044927
     24          7           0        8.043115   -2.891528   -0.476212
     25          6           0        7.960794   -4.008204    0.255389
     26          6           0        8.016637   -5.232718   -0.609126
     27          6           0        7.909906   -4.715250   -2.115973
     28          6           0        7.892456   -3.191241   -1.841449
     29          6           0        9.271523   -6.103281   -0.456175
     30          6           0        6.782103   -5.320384   -2.989067
     31          6           0        5.434373   -4.872923   -2.468969
     32          7           0        7.769511   -0.216945   -1.650331
     33          6           0        7.928902   -0.941534   -2.840389
     34          6           0        8.079212    0.042270   -3.928326
     35          6           0        8.012983    1.278790   -3.289204
     36          6           0        7.859042    1.079767   -1.887425
     37          6           0        8.308535   -0.260178   -5.299592
     38          6           0        8.061164    2.721653   -3.461490
     39          8           0        8.083406    3.478701   -4.433023
     40          6           0        8.197446    3.393617   -2.024229
     41          6           0        7.192296    4.510349   -1.947452
     42          8           0        5.967711    4.270024   -1.948442
     43          8           0        7.822864    5.656166   -1.647405
     44          6           0        6.878769    6.799135   -1.527144
     45          1           0        8.913012    0.647739    4.313471
     46          1           0        7.662269   -4.981609    1.930176
     47          1           0        7.997392   -2.657196   -3.894254
     48          1           0        9.073902    4.201804    0.884252
     49          1           0        8.738622    3.082566    3.449860
     50          1           0       10.955425    2.955000    1.441031
     51          1           0       10.836299    1.540254    2.532163
     52          1           0       11.060472    3.113826    3.242232
     53          1           0        6.597644    3.528347    2.486099
     54          1           0        6.373026    4.155985    0.804406
     55          1           0        8.147109    5.895883    2.187296
     56          1           0        7.058053    5.341060    3.401373
     57          1           0        8.154929   -0.371218    5.995701
     58          1           0        8.417619   -2.016383    6.432099
     59          1           0        6.740434   -1.413670    6.398902
     60          1           0        7.385687   -3.997088    6.601531
     61          1           0        6.126049   -5.325344    6.323097
     62          1           0        5.742979   -3.589089    6.176114
     63          1           0        7.179800   -5.897755   -0.399710
     64          1           0        8.820170   -4.914078   -2.682154
     65          1           0        9.056580   -7.138123   -0.188582
     66          1           0        9.918866   -5.634258    0.284267
     67          1           0        9.922075   -6.124983   -1.330091
     68          1           0        6.802155   -6.408267   -2.933806
     69          1           0        6.854236   -5.040307   -4.040068
     70          1           0        5.234565   -5.583408   -1.667645
     71          1           0        4.680325   -4.946825   -3.253290
     72          1           0        5.490473   -3.881537   -2.018976
     73          1           0        7.660204    0.403995   -5.871002
     74          1           0        8.093193   -1.306372   -5.515714
     75          1           0        9.369762   -0.026382   -5.383205
     76          1           0        9.221139    3.758028   -1.944364
     77          1           0        7.220175    7.571363   -2.216593
     78          1           0        6.831343    7.051724   -0.467731
     79          1           0        5.866116    6.628573   -1.894269
     80         12           0       -8.220703   -0.350236   -0.294112
     81          6           0       -5.776741    2.271358   -0.111525
     82          6           0       -9.990851    1.338115    2.083010
     83          6           0      -10.160388   -2.853885   -0.102240
     84          6           0       -5.767883   -2.345349   -1.760024
     85          7           0       -7.831001    1.549142    0.770209
     86          6           0       -6.900434    2.489915    0.712477
     87          6           0       -7.229345    3.770684    1.525498
     88          6           0       -8.248865    3.126980    2.586204
     89          6           0       -8.753831    1.948743    1.755869
     90          6           0       -7.561206    2.578198    3.825280
     91          6           0       -7.928306    4.870459    0.651448
     92          6           0       -7.998496    6.256236    1.296779
     93          1           0       -7.869815    7.430898    0.438825
     94          7           0      -10.057828   -0.498103    0.441896
     95          6           0      -10.621751    0.284529    1.385693
     96          6           0      -11.977571   -0.247692    1.592203
     97          6           0      -12.110271   -1.508589    0.812948
     98          6           0      -10.744688   -1.683906    0.360674
     99          6           0      -13.020623    0.472391    2.396535
    100          6           0      -13.271035   -2.414413    0.533123
    101          8           0      -13.108054   -3.581895    0.029896
    102          6           0      -14.595128   -1.931679    0.951759
    103          7           0       -7.943853   -2.379147   -0.653544
    104          6           0       -8.966018   -3.246062   -0.546089
    105          6           0       -8.599120   -4.595387   -1.116286
    106          6           0       -7.194563   -4.383758   -1.851137
    107          6           0       -6.938357   -2.905029   -1.486287
    108          6           0       -8.477193   -5.734385   -0.104259
    109          6           0       -7.111798   -4.801557   -3.344879
    110          6           0       -7.976382   -3.889067   -4.184679
    111          7           0       -6.205126   -0.059001   -1.015673
    112          6           0       -5.347963   -1.035119   -1.569345
    113          6           0       -4.042031   -0.385373   -1.803464
    114          6           0       -4.224568    0.927936   -1.344797
    115          6           0       -5.544441    1.079974   -0.840485
    116          6           0       -2.879636   -1.018797   -2.326659
    117          6           0       -3.597534    2.217272   -1.162781
    118          8           0       -2.516551    2.710379   -1.482241
    119          6           0       -4.535012    3.109359   -0.239902
    120          6           0       -4.666660    4.463105   -0.882225
    121          8           0       -5.241383    4.589664   -1.977800
    122          8           0       -4.288305    5.407360   -0.001552
    123          6           0       -4.411728    6.768157   -0.588753
    124          1           0      -10.509815    1.667346    2.983652
    125          1           0      -10.822516   -3.720928   -0.159633
    126          1           0       -4.981672   -2.872810   -2.304369
    127          1           0       -6.384434    4.210577    2.041643
    128          1           0       -9.063549    3.809088    2.815105
    129          1           0       -6.485492    2.605553    3.734502
    130          1           0       -7.906578    1.557569    3.925699
    131          1           0       -7.914001    3.104829    4.716640
    132          1           0       -8.999536    4.642624    0.578644
    133          1           0       -7.463074    4.943786   -0.312294
    134          1           0       -7.334557    6.340405    2.165708
    135          1           0       -9.000210    6.396107    1.710344
    136          1           0      -12.582892    1.289060    2.983775
    137          1           0      -13.389796   -0.234521    3.147439
    138          1           0      -13.861224    0.812603    1.788001
    139          1           0      -14.588485   -1.742207    2.022513
    140          1           0      -15.306118   -2.675558    0.587050
    141          1           0      -14.787445   -0.969957    0.463163
    142          1           0       -9.331791   -4.919385   -1.845195
    143          1           0       -6.393529   -4.968210   -1.375125
    144          1           0       -9.138750   -6.591875   -0.330400
    145          1           0       -8.689119   -5.340011    0.880669
    146          1           0       -7.473254   -6.136982    0.019185
    147          1           0       -7.506245   -5.811939   -3.477934
    148          1           0       -6.101307   -4.795742   -3.739656
    149          1           0       -8.973183   -4.327630   -4.079216
    150          1           0       -7.648645   -3.898801   -5.222243
    151          1           0       -8.013480   -2.879841   -3.758364
    152          1           0       -2.449407   -0.334736   -3.046020
    153          1           0       -3.120106   -1.976974   -2.782554
    154          1           0       -2.292516   -1.135324   -1.411792
    155          1           0       -4.067478    3.166706    0.743810
    156          1           0       -3.430930    7.245217   -0.498545
    157          1           0       -5.255655    7.247263   -0.057716
    158          1           0       -4.584287    6.839624   -1.656252
 ---------------------------------------------------------------------

 SCF Done:  E(RCAM-B3LYP) =  -4069.81123177     A.U. after   19 cycles

 Excitation energies and oscillator strengths:

 Excited State   1:      Singlet-A      1.6725 eV  741.32 nm  f=0.2507  <S**2>=0.000
     309 -> 315        0.14330
     311 -> 313        0.56882
     312 -> 314       -0.38377
 This state for optimization and/or second-order correction.
 Total Energy, E(TD-HF/TD-DFT) =  -4069.74976944
 Copying the excited state density for this state as the 1-particle RhoCI density.

 Excited State   2:      Singlet-A      1.6830 eV  736.68 nm  f=0.5285  <S**2>=0.000
     310 -> 316        0.14589
     311 -> 313        0.38352
     312 -> 314        0.56823

 Excited State   3:      Singlet-A      2.1859 eV  567.21 nm  f=0.0382  <S**2>=0.000
     309 -> 313        0.60705
     310 -> 314       -0.21121
     311 -> 315       -0.25785

 Excited State   4:      Singlet-A      2.1921 eV  565.58 nm  f=0.1534  <S**2>=0.000
     309 -> 313        0.21002
     310 -> 314        0.60513
     312 -> 316       -0.26286

 Excited State   5:      Singlet-A      2.7525 eV  450.45 nm  f=0.0000  <S**2>=0.000
     312 -> 313        0.70682

 The electronic state is 1-A.
 Alpha  occ. eigenvalues --  -46.87617 -46.87572 -19.26229 -19.26026 -19.19036
 Alpha  occ. eigenvalues --  -19.18741 -19.18673 -19.18636 -19.17968 -19.17902
 Alpha  occ. eigenvalues --  -14.42413 -14.42272 -14.41279 -14.41272 -14.39263
 Alpha  occ. eigenvalues --  -14.39228 -14.38504 -14.38402 -10.38969 -10.38811
 Alpha  occ. eigenvalues --  -10.35315 -10.35309 -10.34185 -10.34083 -10.31640
 Alpha  occ. eigenvalues --  -10.31420 -10.31221 -10.31217 -10.30943 -10.30730
 Alpha  occ. eigenvalues --  -10.30387 -10.30332 -10.30301 -10.30261 -10.30063
 Alpha  occ. eigenvalues --  -10.30051 -10.29801 -10.29751 -10.29457 -10.29351
 Alpha  occ. eigenvalues --  -10.29304 -10.29088 -10.28647 -10.28592 -10.28558
 Alpha  occ. eigenvalues --  -10.28331 -10.28311 -10.28183 -10.28071 -10.27939
 Alpha  occ. eigenvalues --  -10.27897 -10.27616 -10.27585 -10.27555 -10.27441
 Alpha  occ. eigenvalues --  -10.27415 -10.27395 -10.27393 -10.27373 -10.27364
 Alpha  occ. eigenvalues --  -10.27338 -10.27312 -10.27299 -10.27220 -10.26947
 Alpha  occ. eigenvalues --  -10.26933 -10.26621 -10.26483 -10.26352 -10.26293
 Alpha  occ. eigenvalues --  -10.26075 -10.26063 -10.26059 -10.25972 -10.25852
 Alpha  occ. eigenvalues --  -10.25846 -10.25699 -10.25664 -10.25330 -10.25313
 Alpha  occ. eigenvalues --  -10.24766 -10.24655 -10.24650 -10.24619 -10.24601
 Alpha  occ. eigenvalues --  -10.24561  -3.16359  -3.16322  -1.91240  -1.91204
 Alpha  occ. eigenvalues --   -1.90827  -1.90793  -1.90669  -1.90630  -1.16522
 Alpha  occ. eigenvalues --   -1.16373  -1.08506  -1.08419  -1.07077  -1.06890
 Alpha  occ. eigenvalues --   -1.06820  -1.06369  -1.04409  -1.04401  -1.03589
 Alpha  occ. eigenvalues --   -1.03574  -1.03058  -1.02948  -1.02236  -1.02020
 Alpha  occ. eigenvalues --   -0.91887  -0.91783  -0.89408  -0.89362  -0.89078
 Alpha  occ. eigenvalues --   -0.89003  -0.88138  -0.88134  -0.87691  -0.87679
 Alpha  occ. eigenvalues --   -0.87598  -0.87497  -0.87117  -0.87037  -0.84921
 Alpha  occ. eigenvalues --   -0.84799  -0.83793  -0.83784  -0.82855  -0.82826
 Alpha  occ. eigenvalues --   -0.82572  -0.82470  -0.81491  -0.81380  -0.80410
 Alpha  occ. eigenvalues --   -0.80348  -0.78632  -0.78543  -0.77061  -0.77051
 Alpha  occ. eigenvalues --   -0.76813  -0.76749  -0.75749  -0.75735  -0.74741
 Alpha  occ. eigenvalues --   -0.74719  -0.72603  -0.72602  -0.71501  -0.71495
 Alpha  occ. eigenvalues --   -0.69764  -0.69679  -0.68745  -0.68695  -0.67508
 Alpha  occ. eigenvalues --   -0.67466  -0.67122  -0.67036  -0.65187  -0.65098
 Alpha  occ. eigenvalues --   -0.64679  -0.64670  -0.64563  -0.64438  -0.64118
 Alpha  occ. eigenvalues --   -0.64109  -0.62173  -0.62083  -0.60285  -0.60255
 Alpha  occ. eigenvalues --   -0.59714  -0.59623  -0.58900  -0.58811  -0.58329
 Alpha  occ. eigenvalues --   -0.58324  -0.57438  -0.57375  -0.57144  -0.57133
 Alpha  occ. eigenvalues --   -0.56136  -0.56107  -0.55786  -0.55758  -0.55359
 Alpha  occ. eigenvalues --   -0.55354  -0.55165  -0.55153  -0.54392  -0.54330
 Alpha  occ. eigenvalues --   -0.53837  -0.53708  -0.53137  -0.53134  -0.53052
 Alpha  occ. eigenvalues --   -0.53044  -0.52809  -0.52718  -0.52595  -0.52594
 Alpha  occ. eigenvalues --   -0.52318  -0.52290  -0.51754  -0.51731  -0.51577
 Alpha  occ. eigenvalues --   -0.51432  -0.51095  -0.51013  -0.50432  -0.50402
 Alpha  occ. eigenvalues --   -0.49903  -0.49886  -0.49785  -0.49760  -0.49406
 Alpha  occ. eigenvalues --   -0.49341  -0.49109  -0.49032  -0.49007  -0.48916
 Alpha  occ. eigenvalues --   -0.48459  -0.48402  -0.48309  -0.48285  -0.48270
 Alpha  occ. eigenvalues --   -0.48244  -0.47524  -0.47509  -0.47130  -0.47034
 Alpha  occ. eigenvalues --   -0.46627  -0.46622  -0.46476  -0.46369  -0.46187
 Alpha  occ. eigenvalues --   -0.46179  -0.45987  -0.45980  -0.45710  -0.45624
 Alpha  occ. eigenvalues --   -0.45127  -0.45049  -0.44421  -0.44387  -0.44383
 Alpha  occ. eigenvalues --   -0.44348  -0.44038  -0.43990  -0.43983  -0.43914
 Alpha  occ. eigenvalues --   -0.43843  -0.43835  -0.43453  -0.43296  -0.43293
 Alpha  occ. eigenvalues --   -0.43215  -0.42850  -0.42830  -0.42791  -0.42530
 Alpha  occ. eigenvalues --   -0.42472  -0.42435  -0.41881  -0.41841  -0.41562
 Alpha  occ. eigenvalues --   -0.41523  -0.41380  -0.41353  -0.40970  -0.40904
 Alpha  occ. eigenvalues --   -0.40700  -0.40671  -0.40647  -0.40624  -0.40412
 Alpha  occ. eigenvalues --   -0.40411  -0.40157  -0.40038  -0.39348  -0.39301
 Alpha  occ. eigenvalues --   -0.38314  -0.38273  -0.37577  -0.37554  -0.37183
 Alpha  occ. eigenvalues --   -0.37160  -0.37115  -0.37073  -0.36660  -0.36490
 Alpha  occ. eigenvalues --   -0.36125  -0.35989  -0.34161  -0.34107  -0.33743
 Alpha  occ. eigenvalues --   -0.33509  -0.33083  -0.33001  -0.31202  -0.31195
 Alpha  occ. eigenvalues --   -0.30884  -0.30858  -0.29825  -0.29805  -0.29279
 Alpha  occ. eigenvalues --   -0.29235  -0.29138  -0.29103  -0.23946  -0.23902
 Alpha  occ. eigenvalues --   -0.21027  -0.20954
 Alpha virt. eigenvalues --   -0.08697  -0.08601  -0.01598  -0.01580   0.00059
 Alpha virt. eigenvalues --    0.00107   0.02323   0.02386   0.03314   0.03342
 Alpha virt. eigenvalues --    0.04808   0.04898   0.05288   0.05354   0.06253

 Mulliken charges:
               1
     1  Mg   0.839566
     2  C   -0.002234
     3  C   -0.094078
     4  C   -0.046108
     5  C   -0.064165
     6  N   -0.256712
     7  C   -0.052190
     8  C   -0.014128
     9  C   -0.087004
    10  C    0.046434
    11  C    0.104919
    12  C    0.053436
    13  C   -0.071750
    14  H    0.036716
    15  N   -0.433002
    16  C    0.168423
    17  C   -0.177341
    18  C   -0.004275
    19  C    0.148698
    20  C    0.110298
    21  C    0.012090
    22  O   -0.250126
    23  C    0.062547
    24  N   -0.341162
    25  C    0.041128
    26  C   -0.028022
    27  C   -0.023963
    28  C    0.074983
    29  C    0.076310
    30  C    0.035207
    31  C   -0.004458
    32  N   -0.310668
    33  C    0.080878
    34  C   -0.169359
    35  C    0.008575
    36  C    0.083657
    37  C    0.127153
    38  C    0.046839
    39  O   -0.188003
    40  C   -0.005621
    41  C    0.212541
    42  O   -0.254997
    43  O   -0.305357
    44  C    0.157454
    45  H   -0.017995
    46  H   -0.017317
    47  H   -0.041677
    48  H    0.000777
    49  H   -0.004224
    50  H    0.025360
    51  H    0.016212
    52  H    0.016258
    53  H    0.011364
    54  H    0.045524
    55  H    0.017328
    56  H    0.017445
    57  H    0.005715
    58  H    0.026365
    59  H    0.039239
    60  H    0.037172
    61  H    0.035124
    62  H    0.031454
    63  H    0.016180
    64  H    0.009240
    65  H    0.022793
    66  H    0.012484
    67  H    0.004509
    68  H    0.005855
    69  H    0.004732
    70  H    0.008286
    71  H    0.017818
    72  H    0.029782
    73  H    0.048233
    74  H    0.008915
    75  H    0.045693
    76  H    0.034720
    77  H    0.042448
    78  H    0.045945
    79  H    0.055115
    80  Mg   0.837652
    81  C   -0.016753
    82  C   -0.087899
    83  C   -0.045609
    84  C   -0.064949
    85  N   -0.254481
    86  C   -0.049912
    87  C   -0.015013
    88  C   -0.090466
    89  C    0.045602
    90  C    0.114461
    91  C    0.062589
    92  C   -0.077746
    93  H    0.034920
    94  N   -0.423426
    95  C    0.162741
    96  C   -0.174856
    97  C   -0.007985
    98  C    0.151994
    99  C    0.099457
   100  C    0.015421
   101  O   -0.253403
   102  C    0.061254
   103  N   -0.350063
   104  C    0.037385
   105  C   -0.019745
   106  C   -0.034839
   107  C    0.089005
   108  C    0.073720
   109  C    0.034746
   110  C   -0.007655
   111  N   -0.324238
   112  C    0.078564
   113  C   -0.163008
   114  C    0.002765
   115  C    0.096180
   116  C    0.131626
   117  C    0.042547
   118  O   -0.185435
   119  C    0.000704
   120  C    0.211734
   121  O   -0.250909
   122  O   -0.305768
   123  C    0.151972
   124  H   -0.020019
   125  H   -0.015785
   126  H   -0.040285
   127  H   -0.000786
   128  H   -0.004526
   129  H    0.022284
   130  H    0.014347
   131  H    0.015862
   132  H    0.013870
   133  H    0.037907
   134  H    0.020518
   135  H    0.019379
   136  H    0.008532
   137  H    0.025832
   138  H    0.039581
   139  H    0.038096
   140  H    0.036184
   141  H    0.033842
   142  H    0.014279
   143  H    0.012412
   144  H    0.024951
   145  H    0.011517
   146  H    0.005605
   147  H    0.006086
   148  H    0.003736
   149  H    0.010808
   150  H    0.017965
   151  H    0.030229
   152  H    0.047362
   153  H    0.008215
   154  H    0.047270
   155  H    0.034859
   156  H    0.044152
   157  H    0.048927
   158  H    0.053916
 Sum of Mulliken charges =  -0.00000

 Dipole moment (field-independent basis, Debye):
    X=             -0.6746    Y=              0.7684    Z=              7.5622  Tot=              7.6310
 Quadrupole moment (field-independent basis, Debye-Ang):
   XX=           -460.4546   YY=           -494.6123   ZZ=           -495.9965
   XY=            -28.4939   XZ=              1.5026   YZ=             55.5603

 Normal termination of Gaussian 16 at Sun Sep 12 03:18:47 2021.
