 Gaussian 16, Revision A.03,
 Gaussian 16:  ES64L-G16RevA.03 25-Dec-2016

 -----------------------------------
 #p cam-b3lyp/Def2SVP td=(nstates=5)
 -----------------------------------

 --------------------------------
 TDDFT excited states in gaussian
 --------------------------------
 Symbolic Z-matrix:
 Charge =  0 Multiplicity = 1

                         Standard orientation:
 ---------------------------------------------------------------------
 Center     Atomic      Atomic             Coordinates (Angstroms)
 Number     Number       Type             X           Y           Z
 ---------------------------------------------------------------------
      1         12           0      -15.649918   -0.875965    0.220061
      2          6           0      -15.884669    2.694798    0.137884
      3          6           0      -16.548682   -0.862154   -3.071610
      4          6           0      -15.892120   -4.033606    0.385193
      5          6           0      -15.888325   -0.664375    3.690516
      6          7           0      -16.127669    0.771188   -1.179683
      7          6           0      -16.122559    2.098278   -1.102365
      8          6           0      -16.319267    2.798188   -2.480336
      9          6           0      -17.067295    1.622631   -3.255267
     10          6           0      -16.522745    0.435763   -2.480196
     11          6           0      -18.584052    1.657817   -3.098066
     12          6           0      -14.957437    3.159068   -3.163650
     13          6           0      -15.055990    4.127770   -4.345707
     14          1           0      -13.990293    5.097926   -4.546790
     15          7           0      -15.667907   -2.236194   -1.212525
     16          6           0      -16.048053   -2.051746   -2.499675
     17          6           0      -15.881553   -3.361560   -3.165518
     18          6           0      -15.554726   -4.366979   -2.116514
     19          6           0      -15.719752   -3.580758   -0.920687
     20          6           0      -15.984905   -3.550052   -4.647928
     21          6           0      -15.167028   -5.810468   -2.181013
     22          8           0      -15.153620   -6.558130   -1.144000
     23          6           0      -14.885128   -6.355711   -3.521268
     24          7           0      -16.080377   -2.187179    1.786286
     25          6           0      -16.064556   -3.511776    1.601419
     26          6           0      -16.120308   -4.246157    2.908139
     27          6           0      -15.931958   -3.140688    4.044895
     28          6           0      -15.879541   -1.882236    3.143884
     29          6           0      -17.406918   -5.039273    3.175743
     30          6           0      -14.786287   -3.367109    5.063026
     31          6           0      -13.449408   -3.247682    4.366183
     32          7           0      -15.673426    0.716743    1.694433
     33          6           0      -15.802946    0.577627    3.083874
     34          6           0      -15.875190    1.937458    3.649302
     35          6           0      -15.798852    2.778391    2.540767
     36          6           0      -15.712496    1.993235    1.355708
     37          6           0      -16.053612    2.260193    5.023508
     38          6           0      -15.794957    4.157297    2.079833
     39          8           0      -15.751392    5.256691    2.633842
     40          6           0      -15.973107    4.157149    0.497401
     41          6           0      -14.938321    5.086179   -0.076560
     42          8           0      -13.722853    4.812543   -0.004957
     43          8           0      -15.545769    6.022337   -0.821648
     44          6           0      -14.573041    6.959348   -1.444517
     45          1           0      -17.049131   -0.994266   -4.032878
     46          1           0      -15.869621   -5.119566    0.497537
     47          1           0      -15.878197   -0.518941    4.772273
     48          1           0      -16.950436    3.686611   -2.452857
     49          1           0      -16.762206    1.565221   -4.299943
     50          1           0      -18.892026    2.410516   -2.372451
     51          1           0      -18.864345    0.661563   -2.755418
     52          1           0      -19.070702    1.790149   -4.064729
     53          1           0      -14.568450    2.279474   -3.676548
     54          1           0      -14.251348    3.553576   -2.432127
     55          1           0      -16.029658    4.617388   -4.379667
     56          1           0      -15.012295    3.547463   -5.267409
     57          1           0      -16.397025   -2.667767   -5.136062
     58          1           0      -16.729119   -4.327627   -4.818902
     59          1           0      -15.034301   -3.847189   -5.091092
     60          1           0      -15.767126   -6.236868   -4.150954
     61          1           0      -14.538076   -7.376305   -3.363810
     62          1           0      -14.095607   -5.763293   -3.984568
     63          1           0      -15.314317   -4.975121    2.981735
     64          1           0      -16.822319   -3.036257    4.665399
     65          1           0      -17.235874   -6.098109    3.371489
     66          1           0      -18.071219   -4.901536    2.323086
     67          1           0      -18.019036   -4.655626    3.991552
     68          1           0      -14.842262   -4.372292    5.479463
     69          1           0      -14.803775   -2.662258    5.894368
     70          1           0      -13.306790   -4.240648    3.941318
     71          1           0      -12.664457   -3.014802    5.086482
     72          1           0      -13.494520   -2.541735    3.536672
     73          1           0      -15.360774    3.073730    5.238222
     74          1           0      -15.861392    1.397523    5.661046
     75          1           0      -17.102462    2.556434    5.026828
     76          1           0      -16.987591    4.499839    0.296135
     77          1           0      -14.860037    7.966925   -1.143424
     78          1           0      -14.564171    6.733140   -2.510893
     79          1           0      -13.551059    6.914842   -1.066483
     80         12           0       16.102105   -0.590590   -0.014668
     81          6           0       14.781363    2.742205    0.150289
     82          6           0       14.277905   -1.012141   -2.865840
     83          6           0       16.888123   -3.663812    0.055177
     84          6           0       16.882580   -0.299790    3.369407
     85          7           0       14.744134    0.763924   -1.116244
     86          6           0       14.366979    2.027619   -0.992994
     87          6           0       13.562990    2.579591   -2.200675
     88          6           0       12.998352    1.188142   -2.769819
     89          6           0       14.088643    0.252020   -2.252511
     90          6           0       11.676829    0.773947   -2.144209
     91          6           0       14.480246    3.299698   -3.250480
     92          6           0       13.732049    4.128921   -4.296589
     93          1           0       14.344478    5.366490   -4.771785
     94          7           0       16.056685   -1.960735   -1.449661
     95          6           0       15.271536   -1.963759   -2.547300
     96          6           0       15.603973   -3.197498   -3.276358
     97          6           0       16.530540   -4.003731   -2.436023
     98          6           0       16.510881   -3.233571   -1.208603
     99          6           0       15.119034   -3.475105   -4.669623
    100          6           0       17.296304   -5.266746   -2.690181
    101          8           0       17.853706   -5.919378   -1.738228
    102          6           0       17.295548   -5.766926   -4.072685
    103          7           0       16.592509   -1.885625    1.536047
    104          6           0       16.945275   -3.159145    1.287795
    105          6           0       17.518301   -3.816646    2.520562
    106          6           0       17.701494   -2.640741    3.588858
    107          6           0       17.092825   -1.471092    2.784600
    108          6           0       16.672819   -4.933108    3.132993
    109          6           0       19.117956   -2.459445    4.199960
    110          6           0       20.082413   -1.986831    3.136087
    111          7           0       16.055950    0.985623    1.462321
    112          6           0       16.401525    0.885398    2.827826
    113          6           0       16.097348    2.189936    3.450793
    114          6           0       15.570244    2.957330    2.401143
    115          6           0       15.528739    2.179044    1.212846
    116          6           0       16.268954    2.515365    4.825836
    117          6           0       15.029622    4.245412    2.030641
    118          8           0       14.900529    5.329224    2.598460
    119          6           0       14.377212    4.123177    0.586407
    120          6           0       14.854800    5.286421   -0.238981
    121          8           0       16.056010    5.395524   -0.542000
    122          8           0       13.789192    5.956139   -0.714721
    123          6           0       14.211720    7.112605   -1.548902
    124          1           0       13.573417   -1.325414   -3.636839
    125          1           0       17.272587   -4.684903    0.110363
    126          1           0       17.188454   -0.097672    4.398132
    127          1           0       12.741099    3.234764   -1.937940
    128          1           0       12.977368    1.185291   -3.856508
    129          1           0       11.393392    1.426808   -1.332063
    130          1           0       11.825537   -0.235549   -1.783884
    131          1           0       10.900424    0.708644   -2.911849
    132          1           0       14.939350    2.545139   -3.902098
    133          1           0       15.212405    3.911636   -2.760458
    134          1           0       12.686126    4.301181   -4.014955
    135          1           0       13.668796    3.547660   -5.219713
    136          1           0       14.322657   -2.780555   -4.964221
    137          1           0       14.630597   -4.455343   -4.648828
    138          1           0       15.929895   -3.499726   -5.400763
    139          1           0       16.271327   -5.944442   -4.391937
    140          1           0       17.968097   -6.626902   -4.072686
    141          1           0       17.698442   -4.986167   -4.727432
    142          1           0       18.486373   -4.254690    2.310660
    143          1           0       17.057639   -2.785698    4.468784
    144          1           0       17.213305   -5.894994    3.214993
    145          1           0       15.777611   -5.049573    2.536701
    146          1           0       16.266699   -4.716610    4.119598
    147          1           0       19.499809   -3.417327    4.561626
    148          1           0       19.142837   -1.766953    5.034732
    149          1           0       20.375855   -2.916081    2.638630
    150          1           0       20.940233   -1.493446    3.588584
    151          1           0       19.573494   -1.361725    2.393184
    152          1           0       16.710076    3.502679    4.859417
    153          1           0       16.893312    1.782667    5.332897
    154          1           0       15.230864    2.476120    5.166582
    155          1           0       13.294117    4.129456    0.714604
    156          1           0       13.736469    8.002722   -1.125221
    157          1           0       13.943754    6.844963   -2.588290
    158          1           0       15.257139    7.396620   -1.519203
 ---------------------------------------------------------------------

 SCF Done:  E(RCAM-B3LYP) =  -4069.81176742     A.U. after   19 cycles

 Excitation energies and oscillator strengths:

 Excited State   1:      Singlet-A      1.6753 eV  740.07 nm  f=0.2090  <S**2>=0.000
     310 -> 316        0.16838
     311 -> 314       -0.16562
     312 -> 313        0.66576
     310 <- 316        0.10151
 This state for optimization and/or second-order correction.
 Total Energy, E(TD-HF/TD-DFT) =  -4069.75020133
 Copying the excited state density for this state as the 1-particle RhoCI density.

 Excited State   2:      Singlet-A      1.6801 eV  737.96 nm  f=0.5683  <S**2>=0.000
     309 -> 315        0.17041
     311 -> 314        0.66540
     312 -> 313        0.16557
     309 <- 315        0.10203

 Excited State   3:      Singlet-A      2.1861 eV  567.16 nm  f=0.0966  <S**2>=0.000
     310 -> 313        0.64218
     312 -> 316       -0.27295

 Excited State   4:      Singlet-A      2.1925 eV  565.49 nm  f=0.1038  <S**2>=0.000
     309 -> 314        0.64040
     311 -> 315       -0.27816

 Excited State   5:      Singlet-A      3.0642 eV  404.63 nm  f=0.0000  <S**2>=0.000
     312 -> 314        0.70710

 The electronic state is 1-A.
 Alpha  occ. eigenvalues --  -46.87805 -46.87660 -19.26344 -19.26291 -19.19157
 Alpha  occ. eigenvalues --  -19.19027 -19.18825 -19.18715 -19.18176 -19.18048
 Alpha  occ. eigenvalues --  -14.42496 -14.42458 -14.41457 -14.41359 -14.39411
 Alpha  occ. eigenvalues --  -14.39352 -14.38599 -14.38595 -10.39087 -10.39086
 Alpha  occ. eigenvalues --  -10.35459 -10.35393 -10.34396 -10.34226 -10.31750
 Alpha  occ. eigenvalues --  -10.31685 -10.31413 -10.31307 -10.31022 -10.30917
 Alpha  occ. eigenvalues --  -10.30578 -10.30515 -10.30397 -10.30360 -10.30215
 Alpha  occ. eigenvalues --  -10.30141 -10.29928 -10.29894 -10.29639 -10.29437
 Alpha  occ. eigenvalues --  -10.29400 -10.29263 -10.28758 -10.28716 -10.28651
 Alpha  occ. eigenvalues --  -10.28549 -10.28404 -10.28373 -10.28137 -10.28125
 Alpha  occ. eigenvalues --  -10.28000 -10.27801 -10.27735 -10.27668 -10.27593
 Alpha  occ. eigenvalues --  -10.27519 -10.27508 -10.27492 -10.27483 -10.27468
 Alpha  occ. eigenvalues --  -10.27465 -10.27457 -10.27411 -10.27377 -10.27165
 Alpha  occ. eigenvalues --  -10.27047 -10.26714 -10.26690 -10.26422 -10.26417
 Alpha  occ. eigenvalues --  -10.26242 -10.26191 -10.26139 -10.26027 -10.26020
 Alpha  occ. eigenvalues --  -10.25934 -10.25849 -10.25849 -10.25442 -10.25398
 Alpha  occ. eigenvalues --  -10.24872 -10.24840 -10.24796 -10.24733 -10.24694
 Alpha  occ. eigenvalues --  -10.24689  -3.16548  -3.16410  -1.91429  -1.91292
 Alpha  occ. eigenvalues --   -1.91016  -1.90881  -1.90858  -1.90717  -1.16639
 Alpha  occ. eigenvalues --   -1.16638  -1.08655  -1.08634  -1.07226  -1.06967
 Alpha  occ. eigenvalues --   -1.06941  -1.06649  -1.04589  -1.04494  -1.03768
 Alpha  occ. eigenvalues --   -1.03662  -1.03242  -1.03038  -1.02419  -1.02111
 Alpha  occ. eigenvalues --   -0.91986  -0.91980  -0.89527  -0.89494  -0.89196
 Alpha  occ. eigenvalues --   -0.89149  -0.88294  -0.88221  -0.87877  -0.87793
 Alpha  occ. eigenvalues --   -0.87683  -0.87681  -0.87283  -0.87121  -0.84998
 Alpha  occ. eigenvalues --   -0.84991  -0.83944  -0.83876  -0.82977  -0.82933
 Alpha  occ. eigenvalues --   -0.82657  -0.82651  -0.81594  -0.81593  -0.80604
 Alpha  occ. eigenvalues --   -0.80441  -0.78806  -0.78635  -0.77226  -0.77143
 Alpha  occ. eigenvalues --   -0.76942  -0.76896  -0.75931  -0.75836  -0.74905
 Alpha  occ. eigenvalues --   -0.74803  -0.72782  -0.72698  -0.71680  -0.71580
 Alpha  occ. eigenvalues --   -0.69914  -0.69758  -0.68881  -0.68826  -0.67649
 Alpha  occ. eigenvalues --   -0.67601  -0.67229  -0.67199  -0.65295  -0.65270
 Alpha  occ. eigenvalues --   -0.64861  -0.64769  -0.64652  -0.64628  -0.64277
 Alpha  occ. eigenvalues --   -0.64204  -0.62305  -0.62276  -0.60451  -0.60340
 Alpha  occ. eigenvalues --   -0.59812  -0.59795  -0.58995  -0.58992  -0.58511
 Alpha  occ. eigenvalues --   -0.58424  -0.57592  -0.57552  -0.57317  -0.57236
 Alpha  occ. eigenvalues --   -0.56318  -0.56203  -0.55986  -0.55883  -0.55529
 Alpha  occ. eigenvalues --   -0.55451  -0.55347  -0.55247  -0.54531  -0.54486
 Alpha  occ. eigenvalues --   -0.53910  -0.53903  -0.53307  -0.53231  -0.53227
 Alpha  occ. eigenvalues --   -0.53140  -0.52922  -0.52900  -0.52766  -0.52668
 Alpha  occ. eigenvalues --   -0.52446  -0.52402  -0.51921  -0.51883  -0.51657
 Alpha  occ. eigenvalues --   -0.51625  -0.51203  -0.51200  -0.50583  -0.50476
 Alpha  occ. eigenvalues --   -0.50039  -0.49979  -0.49928  -0.49868  -0.49523
 Alpha  occ. eigenvalues --   -0.49487  -0.49222  -0.49201  -0.49104  -0.49102
 Alpha  occ. eigenvalues --   -0.48600  -0.48556  -0.48469  -0.48454  -0.48376
 Alpha  occ. eigenvalues --   -0.48338  -0.47703  -0.47594  -0.47305  -0.47118
 Alpha  occ. eigenvalues --   -0.46805  -0.46708  -0.46564  -0.46552  -0.46367
 Alpha  occ. eigenvalues --   -0.46270  -0.46170  -0.46085  -0.45829  -0.45820
 Alpha  occ. eigenvalues --   -0.45209  -0.45209  -0.44585  -0.44516  -0.44512
 Alpha  occ. eigenvalues --   -0.44475  -0.44153  -0.44126  -0.44096  -0.44078
 Alpha  occ. eigenvalues --   -0.44027  -0.43938  -0.43551  -0.43502  -0.43394
 Alpha  occ. eigenvalues --   -0.43384  -0.43035  -0.42928  -0.42899  -0.42706
 Alpha  occ. eigenvalues --   -0.42662  -0.42554  -0.42017  -0.41964  -0.41712
 Alpha  occ. eigenvalues --   -0.41668  -0.41542  -0.41457  -0.41149  -0.40988
 Alpha  occ. eigenvalues --   -0.40878  -0.40833  -0.40722  -0.40698  -0.40579
 Alpha  occ. eigenvalues --   -0.40493  -0.40243  -0.40225  -0.39448  -0.39426
 Alpha  occ. eigenvalues --   -0.38477  -0.38350  -0.37757  -0.37652  -0.37328
 Alpha  occ. eigenvalues --   -0.37272  -0.37266  -0.37198  -0.36768  -0.36720
 Alpha  occ. eigenvalues --   -0.36216  -0.36200  -0.34294  -0.34253  -0.33859
 Alpha  occ. eigenvalues --   -0.33777  -0.33194  -0.33175  -0.31355  -0.31274
 Alpha  occ. eigenvalues --   -0.31044  -0.30972  -0.30035  -0.29953  -0.29458
 Alpha  occ. eigenvalues --   -0.29329  -0.29327  -0.29211  -0.24088  -0.24035
 Alpha  occ. eigenvalues --   -0.21136  -0.21116
 Alpha virt. eigenvalues --   -0.08791  -0.08782  -0.01758  -0.01683  -0.00067
 Alpha virt. eigenvalues --   -0.00029   0.02193   0.02208   0.03112   0.03226
 Alpha virt. eigenvalues --    0.04709   0.04731   0.05091   0.05169   0.06168

 Mulliken charges:
               1
     1  Mg   0.838703
     2  C   -0.002975
     3  C   -0.094134
     4  C   -0.045888
     5  C   -0.063957
     6  N   -0.256770
     7  C   -0.052467
     8  C   -0.014010
     9  C   -0.086995
    10  C    0.046304
    11  C    0.104811
    12  C    0.053483
    13  C   -0.071807
    14  H    0.036110
    15  N   -0.433139
    16  C    0.168422
    17  C   -0.177175
    18  C   -0.004013
    19  C    0.148709
    20  C    0.110181
    21  C    0.012263
    22  O   -0.249629
    23  C    0.062485
    24  N   -0.341158
    25  C    0.041256
    26  C   -0.028170
    27  C   -0.024014
    28  C    0.074874
    29  C    0.076176
    30  C    0.035140
    31  C   -0.004513
    32  N   -0.310467
    33  C    0.080414
    34  C   -0.169697
    35  C    0.008386
    36  C    0.082995
    37  C    0.127306
    38  C    0.046125
    39  O   -0.188392
    40  C   -0.005332
    41  C    0.212874
    42  O   -0.257108
    43  O   -0.304787
    44  C    0.157682
    45  H   -0.017611
    46  H   -0.016843
    47  H   -0.041463
    48  H    0.000955
    49  H   -0.004052
    50  H    0.025489
    51  H    0.016454
    52  H    0.016658
    53  H    0.011173
    54  H    0.044121
    55  H    0.017896
    56  H    0.017928
    57  H    0.005868
    58  H    0.026823
    59  H    0.039499
    60  H    0.037353
    61  H    0.035624
    62  H    0.031459
    63  H    0.016543
    64  H    0.009484
    65  H    0.023208
    66  H    0.012546
    67  H    0.004770
    68  H    0.006375
    69  H    0.004758
    70  H    0.008760
    71  H    0.018162
    72  H    0.028971
    73  H    0.047604
    74  H    0.009131
    75  H    0.046032
    76  H    0.035169
    77  H    0.042981
    78  H    0.046384
    79  H    0.053691
    80  Mg   0.837835
    81  C   -0.016829
    82  C   -0.087778
    83  C   -0.045515
    84  C   -0.064906
    85  N   -0.254580
    86  C   -0.049814
    87  C   -0.015097
    88  C   -0.090513
    89  C    0.045784
    90  C    0.114364
    91  C    0.062526
    92  C   -0.077907
    93  H    0.034901
    94  N   -0.423489
    95  C    0.162916
    96  C   -0.174613
    97  C   -0.007820
    98  C    0.152114
    99  C    0.099362
   100  C    0.015570
   101  O   -0.253192
   102  C    0.061197
   103  N   -0.350083
   104  C    0.037529
   105  C   -0.019836
   106  C   -0.034839
   107  C    0.088958
   108  C    0.073662
   109  C    0.034744
   110  C   -0.007679
   111  N   -0.324122
   112  C    0.078455
   113  C   -0.163111
   114  C    0.002254
   115  C    0.096219
   116  C    0.131475
   117  C    0.042404
   118  O   -0.187805
   119  C    0.000911
   120  C    0.211266
   121  O   -0.251051
   122  O   -0.305597
   123  C    0.152015
   124  H   -0.019653
   125  H   -0.015577
   126  H   -0.040441
   127  H   -0.000586
   128  H   -0.004337
   129  H    0.022526
   130  H    0.014428
   131  H    0.016316
   132  H    0.013894
   133  H    0.037677
   134  H    0.020839
   135  H    0.019571
   136  H    0.008764
   137  H    0.026142
   138  H    0.039777
   139  H    0.038249
   140  H    0.036385
   141  H    0.033890
   142  H    0.014392
   143  H    0.012441
   144  H    0.025129
   145  H    0.011652
   146  H    0.005691
   147  H    0.006258
   148  H    0.003662
   149  H    0.010925
   150  H    0.017932
   151  H    0.030104
   152  H    0.046023
   153  H    0.008508
   154  H    0.047004
   155  H    0.035104
   156  H    0.043969
   157  H    0.049492
   158  H    0.053566
 Sum of Mulliken charges =  -0.00000

 Dipole moment (field-independent basis, Debye):
    X=             -4.5272    Y=             -3.8232    Z=             -6.7837  Tot=              9.0072
 Quadrupole moment (field-independent basis, Debye-Ang):
   XX=           -524.5371   YY=           -560.8054   ZZ=           -445.6941
   XY=            -12.7079   XZ=             30.2429   YZ=            -35.4509

 Normal termination of Gaussian 16 at Sun Sep 12 19:05:07 2021.
