 Gaussian 16, Revision A.03,
 Gaussian 16:  ES64L-G16RevA.03 25-Dec-2016

 -----------------------------------
 #p cam-b3lyp/Def2SVP td=(nstates=5)
 -----------------------------------

 --------------------------------
 TDDFT excited states in gaussian
 --------------------------------
 Symbolic Z-matrix:
 Charge =  0 Multiplicity = 1

                         Standard orientation:
 ---------------------------------------------------------------------
 Center     Atomic      Atomic             Coordinates (Angstroms)
 Number     Number       Type             X           Y           Z
 ---------------------------------------------------------------------
      1         12           0       -7.838615    0.624276    0.487667
      2          6           0       -8.222349   -1.997386   -1.918958
      3          6           0       -8.554455   -1.684357    2.896162
      4          6           0       -7.953062    3.003676    2.580986
      5          6           0       -8.276734    2.887212   -2.126302
      6          7           0       -8.309169   -1.536082    0.377771
      7          6           0       -8.365598   -2.434645   -0.600274
      8          6           0       -8.516122   -3.897933   -0.086948
      9          6           0       -9.168902   -3.599389    1.336690
     10          6           0       -8.617166   -2.203853    1.569051
     11          6           0      -10.692119   -3.526409    1.305277
     12          6           0       -7.135564   -4.622657    0.056462
     13          6           0       -7.210564   -6.141708    0.235941
     14          1           0       -6.178267   -6.970107   -0.368595
     15          7           0       -7.718951    0.602823    2.459486
     16          6           0       -8.035224   -0.428640    3.278841
     17          6           0       -7.775934    0.048991    4.654093
     18          6           0       -7.464306    1.503437    4.579463
     19          6           0       -7.728725    1.770633    3.188755
     20          6           0       -7.789242   -0.848731    5.853121
     21          6           0       -7.011716    2.497373    5.601903
     22          8           0       -7.023201    3.756158    5.378515
     23          6           0       -6.633152    1.957526    6.920347
     24          7           0       -8.297712    2.652732    0.308135
     25          6           0       -8.214587    3.474773    1.359954
     26          6           0       -8.310492    4.911317    0.939143
     27          6           0       -8.232923    4.910877   -0.655767
     28          6           0       -8.185308    3.380692   -0.889295
     29          6           0       -9.574465    5.657342    1.388400
     30          6           0       -7.136372    5.790808   -1.306702
     31          6           0       -5.769539    5.229769   -0.984059
     32          7           0       -8.012007    0.507670   -1.672745
     33          6           0       -8.211742    1.574052   -2.561344
     34          6           0       -8.373635    0.991301   -3.906060
     35          6           0       -8.272710   -0.383562   -3.702559
     36          6           0       -8.087407   -0.644607   -2.314824
     37          6           0       -8.641243    1.715247   -5.101351
     38          6           0       -8.302936   -1.694119   -4.331353
     39          8           0       -8.337436   -2.097052   -5.494946
     40          6           0       -8.393477   -2.797216   -3.186449
     41          6           0       -7.369701   -3.855972   -3.493415
     42          8           0       -6.149349   -3.600728   -3.439044
     43          8           0       -7.975014   -5.051164   -3.568607
     44          6           0       -7.010795   -6.150163   -3.841803
     45          1           0       -8.995026   -2.262601    3.710700
     46          1           0       -7.889945    3.861453    3.253795
     47          1           0       -8.332494    3.536163   -3.002205
     48          1           0       -9.185594   -4.521085   -0.680171
     49          1           0       -8.804539   -4.283358    2.102945
     50          1           0      -11.071788   -3.563633    0.284304
     51          1           0      -10.947610   -2.574890    1.771998
     52          1           0      -11.130040   -4.298096    1.938920
     53          1           0       -6.681321   -4.345643    1.007770
     54          1           0       -6.488523   -4.391187   -0.790348
     55          1           0       -8.201103   -6.523959   -0.012304
     56          1           0       -7.091164   -6.366706    1.295809
     57          1           0       -8.211536   -1.824889    5.617901
     58          1           0       -8.488661   -0.415237    6.567688
     59          1           0       -6.803736   -0.937026    6.310627
     60          1           0       -7.483432    1.427238    7.349729
     61          1           0       -6.251584    2.802208    7.492857
     62          1           0       -5.845611    1.215592    6.785209
     63          1           0       -7.479075    5.491703    1.337042
     64          1           0       -9.159788    5.261407   -1.110436
     65          1           0       -9.368932    6.554826    1.972337
     66          1           0      -10.196113    4.959845    1.949063
     67          1           0      -10.246575    5.945536    0.580545
     68          1           0       -7.171774    6.801779   -0.902187
     69          1           0       -7.230027    5.863697   -2.390292
     70          1           0       -5.561020    5.647623    0.000192
     71          1           0       -5.036238    5.570006   -1.715987
     72          1           0       -5.799310    4.145175   -0.877962
     73          1           0       -7.997036    1.286021   -5.868639
     74          1           0       -8.447386    2.779733   -4.971379
     75          1           0       -9.700488    1.497183   -5.236642
     76          1           0       -9.409176   -3.190820   -3.210010
     77          1           0       -7.357151   -6.665758   -4.737589
     78          1           0       -6.933445   -6.730292   -2.922090
     79          1           0       -6.010220   -5.847420   -4.152506
     80         12           0        8.004633    0.564799   -0.627168
     81          6           0        7.941061   -2.286926    1.550590
     82          6           0        7.326726    2.483273    2.110440
     83          6           0        7.608235    3.034500   -2.579314
     84          6           0        7.539396   -1.633399   -3.291216
     85          7           0        7.696429    0.049057    1.501508
     86          6           0        7.757054   -1.060441    2.222400
     87          6           0        7.692638   -0.834794    3.756834
     88          6           0        6.936757    0.582064    3.760012
     89          6           0        7.370516    1.093581    2.387835
     90          6           0        5.422331    0.456225    3.766000
     91          6           0        9.117306   -0.727241    4.405499
     92          6           0        9.136783   -0.816233    5.933067
     93          1           0       10.264074   -1.484828    6.577005
     94          7           0        8.022606    2.513650   -0.252669
     95          6           0        7.744379    3.119357    0.920777
     96          6           0        7.877283    4.562812    0.669910
     97          6           0        8.095424    4.767417   -0.787927
     98          6           0        7.892015    3.418442   -1.276775
     99          6           0        7.873263    5.583753    1.770402
    100          6           0        8.419271    5.979315   -1.608069
    101          8           0        8.329585    5.970733   -2.886622
    102          6           0        8.754155    7.203157   -0.865419
    103          7           0        7.417879    0.709697   -2.616412
    104          6           0        7.378590    1.899953   -3.240656
    105          6           0        7.197876    1.729022   -4.730125
    106          6           0        7.367061    0.162956   -5.006510
    107          6           0        7.535074   -0.333700   -3.553756
    108          6           0        5.860044    2.203936   -5.296741
    109          6           0        8.430821   -0.255176   -6.058295
    110          6           0        9.816850    0.061963   -5.544753
    111          7           0        7.962502   -1.579928   -0.884827
    112          6           0        7.726896   -2.290752   -2.082042
    113          6           0        7.681528   -3.725889   -1.734547
    114          6           0        7.872464   -3.749071   -0.344760
    115          6           0        8.005828   -2.420825    0.142542
    116          6           0        7.437447   -4.794402   -2.642749
    117          6           0        7.980914   -4.594535    0.822343
    118          8           0        8.031780   -5.808841    1.013657
    119          6           0        7.903787   -3.678403    2.118931
    120          6           0        9.017314   -4.087577    3.043674
    121          8           0       10.205080   -3.917305    2.716849
    122          8           0        8.498571   -4.408957    4.242845
    123          6           0        9.565351   -4.810991    5.197911
    124          1           0        6.892503    3.148057    2.857705
    125          1           0        7.571506    3.843937   -3.312078
    126          1           0        7.496239   -2.388276   -4.079238
    127          1           0        7.109224   -1.568682    4.299804
    128          1           0        7.315831    1.230215    4.545860
    129          1           0        5.102725   -0.568438    3.647423
    130          1           0        5.073748    1.059503    2.937990
    131          1           0        5.009444    0.915830    4.668557
    132          1           0        9.495313    0.294539    4.271991
    133          1           0        9.780564   -1.462040    3.992245
    134          1           0        8.187430   -1.189087    6.336372
    135          1           0        9.221538    0.194930    6.338525
    136          1           0        7.529603    5.151908    2.718466
    137          1           0        7.107775    6.324881    1.516224
    138          1           0        8.834412    6.091013    1.877883
    139          1           0        7.924147    7.469646   -0.215378
    140          1           0        9.042042    7.934967   -1.622685
    141          1           0        9.609711    6.993819   -0.213645
    142          1           0        7.962684    2.266981   -5.276724
    143          1           0        6.437910   -0.286402   -5.386765
    144          1           0        5.968747    2.960021   -6.097110
    145          1           0        5.264066    2.594827   -4.482772
    146          1           0        5.221127    1.416883   -5.693657
    147          1           0        8.301145    0.320952   -6.977766
    148          1           0        8.383273   -1.305239   -6.326809
    149          1           0        9.935273    1.121168   -5.792052
    150          1           0       10.562056   -0.547490   -6.051979
    151          1           0        9.862474   -0.028798   -4.453268
    152          1           0        8.144491   -5.576624   -2.400436
    153          1           0        7.541350   -4.469590   -3.675940
    154          1           0        6.400888   -5.032593   -2.389607
    155          1           0        6.921730   -3.829361    2.568769
    156          1           0        9.303249   -5.806602    5.569072
    157          1           0        9.622818   -3.994859    5.942485
    158          1           0       10.556214   -4.988938    4.796696
 ---------------------------------------------------------------------

 SCF Done:  E(RCAM-B3LYP) =  -4069.81182487     A.U. after   19 cycles

 Excitation energies and oscillator strengths:

 Excited State   1:      Singlet-A      1.6748 eV  740.31 nm  f=0.3475  <S**2>=0.000
     310 -> 316        0.16665
     311 -> 313       -0.19031
     312 -> 314        0.65912
     310 <- 316        0.10053
 This state for optimization and/or second-order correction.
 Total Energy, E(TD-HF/TD-DFT) =  -4069.75027844
 Copying the excited state density for this state as the 1-particle RhoCI density.

 Excited State   2:      Singlet-A      1.6798 eV  738.07 nm  f=0.4012  <S**2>=0.000
     309 -> 315        0.16848
     311 -> 313        0.65875
     312 -> 314        0.19031
     309 <- 315        0.10087

 Excited State   3:      Singlet-A      2.1859 eV  567.21 nm  f=0.1014  <S**2>=0.000
     310 -> 314        0.64249
     312 -> 316       -0.27303

 Excited State   4:      Singlet-A      2.1921 eV  565.59 nm  f=0.0982  <S**2>=0.000
     309 -> 313        0.64073
     311 -> 315       -0.27794

 Excited State   5:      Singlet-A      2.7657 eV  448.29 nm  f=0.0000  <S**2>=0.000
     312 -> 313        0.70710

 The electronic state is 1-A.
 Alpha  occ. eigenvalues --  -46.87835 -46.87593 -19.26327 -19.26294 -19.19130
 Alpha  occ. eigenvalues --  -19.19035 -19.18874 -19.18652 -19.18201 -19.17999
 Alpha  occ. eigenvalues --  -14.42485 -14.42433 -14.41488 -14.41287 -14.39443
 Alpha  occ. eigenvalues --  -14.39285 -14.38624 -14.38533 -10.39096 -10.39058
 Alpha  occ. eigenvalues --  -10.35508 -10.35330 -10.34419 -10.34177 -10.31745
 Alpha  occ. eigenvalues --  -10.31678 -10.31436 -10.31248 -10.30964 -10.30943
 Alpha  occ. eigenvalues --  -10.30605 -10.30548 -10.30330 -10.30296 -10.30250
 Alpha  occ. eigenvalues --  -10.30064 -10.29960 -10.29819 -10.29671 -10.29367
 Alpha  occ. eigenvalues --  -10.29336 -10.29296 -10.28768 -10.28676 -10.28634
 Alpha  occ. eigenvalues --  -10.28533 -10.28402 -10.28342 -10.28138 -10.28092
 Alpha  occ. eigenvalues --  -10.27936 -10.27831 -10.27762 -10.27627 -10.27604
 Alpha  occ. eigenvalues --  -10.27545 -10.27526 -10.27495 -10.27438 -10.27424
 Alpha  occ. eigenvalues --  -10.27421 -10.27408 -10.27401 -10.27283 -10.27184
 Alpha  occ. eigenvalues --  -10.27004 -10.26714 -10.26659 -10.26483 -10.26359
 Alpha  occ. eigenvalues --  -10.26253 -10.26231 -10.26058 -10.26050 -10.25976
 Alpha  occ. eigenvalues --  -10.25876 -10.25860 -10.25777 -10.25480 -10.25281
 Alpha  occ. eigenvalues --  -10.24870 -10.24828 -10.24809 -10.24741 -10.24654
 Alpha  occ. eigenvalues --  -10.24619  -3.16578  -3.16343  -1.91460  -1.91225
 Alpha  occ. eigenvalues --   -1.91046  -1.90888  -1.90813  -1.90650  -1.16644
 Alpha  occ. eigenvalues --   -1.16618  -1.08657  -1.08609  -1.07276  -1.06915
 Alpha  occ. eigenvalues --   -1.06905  -1.06657  -1.04615  -1.04432  -1.03799
 Alpha  occ. eigenvalues --   -1.03596  -1.03273  -1.02968  -1.02449  -1.02043
 Alpha  occ. eigenvalues --   -0.92005  -0.91927  -0.89561  -0.89420  -0.89209
 Alpha  occ. eigenvalues --   -0.89102  -0.88329  -0.88139  -0.87906  -0.87727
 Alpha  occ. eigenvalues --   -0.87706  -0.87620  -0.87321  -0.87058  -0.85008
 Alpha  occ. eigenvalues --   -0.84947  -0.83979  -0.83797  -0.83021  -0.82866
 Alpha  occ. eigenvalues --   -0.82679  -0.82599  -0.81609  -0.81550  -0.80629
 Alpha  occ. eigenvalues --   -0.80388  -0.78839  -0.78571  -0.77253  -0.77085
 Alpha  occ. eigenvalues --   -0.76958  -0.76842  -0.75948  -0.75788  -0.74936
 Alpha  occ. eigenvalues --   -0.74724  -0.72811  -0.72632  -0.71706  -0.71514
 Alpha  occ. eigenvalues --   -0.69952  -0.69676  -0.68902  -0.68774  -0.67679
 Alpha  occ. eigenvalues --   -0.67540  -0.67247  -0.67152  -0.65312  -0.65221
 Alpha  occ. eigenvalues --   -0.64886  -0.64708  -0.64651  -0.64599  -0.64309
 Alpha  occ. eigenvalues --   -0.64129  -0.62320  -0.62232  -0.60488  -0.60272
 Alpha  occ. eigenvalues --   -0.59832  -0.59743  -0.59023  -0.58927  -0.58539
 Alpha  occ. eigenvalues --   -0.58363  -0.57611  -0.57506  -0.57347  -0.57168
 Alpha  occ. eigenvalues --   -0.56346  -0.56143  -0.55997  -0.55845  -0.55561
 Alpha  occ. eigenvalues --   -0.55399  -0.55375  -0.55179  -0.54554  -0.54426
 Alpha  occ. eigenvalues --   -0.53917  -0.53864  -0.53340  -0.53255  -0.53164
 Alpha  occ. eigenvalues --   -0.53088  -0.52945  -0.52851  -0.52797  -0.52613
 Alpha  occ. eigenvalues --   -0.52483  -0.52323  -0.51949  -0.51816  -0.51645
 Alpha  occ. eigenvalues --   -0.51610  -0.51228  -0.51142  -0.50626  -0.50413
 Alpha  occ. eigenvalues --   -0.50074  -0.49962  -0.49921  -0.49788  -0.49549
 Alpha  occ. eigenvalues --   -0.49432  -0.49249  -0.49148  -0.49121  -0.49051
 Alpha  occ. eigenvalues --   -0.48621  -0.48507  -0.48506  -0.48484  -0.48300
 Alpha  occ. eigenvalues --   -0.48279  -0.47730  -0.47536  -0.47335  -0.47052
 Alpha  occ. eigenvalues --   -0.46832  -0.46644  -0.46579  -0.46502  -0.46396
 Alpha  occ. eigenvalues --   -0.46204  -0.46196  -0.46016  -0.45848  -0.45767
 Alpha  occ. eigenvalues --   -0.45242  -0.45128  -0.44609  -0.44547  -0.44460
 Alpha  occ. eigenvalues --   -0.44420  -0.44185  -0.44115  -0.44072  -0.44054
 Alpha  occ. eigenvalues --   -0.44012  -0.43885  -0.43521  -0.43505  -0.43418
 Alpha  occ. eigenvalues --   -0.43327  -0.43061  -0.42888  -0.42840  -0.42730
 Alpha  occ. eigenvalues --   -0.42684  -0.42479  -0.42045  -0.41900  -0.41738
 Alpha  occ. eigenvalues --   -0.41610  -0.41558  -0.41404  -0.41174  -0.40926
 Alpha  occ. eigenvalues --   -0.40901  -0.40871  -0.40667  -0.40642  -0.40609
 Alpha  occ. eigenvalues --   -0.40418  -0.40251  -0.40186  -0.39487  -0.39344
 Alpha  occ. eigenvalues --   -0.38507  -0.38273  -0.37767  -0.37609  -0.37359
 Alpha  occ. eigenvalues --   -0.37289  -0.37194  -0.37144  -0.36736  -0.36731
 Alpha  occ. eigenvalues --   -0.36221  -0.36152  -0.34323  -0.34188  -0.33824
 Alpha  occ. eigenvalues --   -0.33790  -0.33223  -0.33109  -0.31403  -0.31210
 Alpha  occ. eigenvalues --   -0.31073  -0.30908  -0.30059  -0.29905  -0.29492
 Alpha  occ. eigenvalues --   -0.29359  -0.29263  -0.29147  -0.24117  -0.23969
 Alpha  occ. eigenvalues --   -0.21165  -0.21050
 Alpha virt. eigenvalues --   -0.08814  -0.08726  -0.01790  -0.01615  -0.00102
 Alpha virt. eigenvalues --    0.00032   0.02164   0.02269   0.03077   0.03288
 Alpha virt. eigenvalues --    0.04690   0.04789   0.05080   0.05200   0.06167

 Mulliken charges:
               1
     1  Mg   0.838686
     2  C   -0.002926
     3  C   -0.094021
     4  C   -0.046028
     5  C   -0.064003
     6  N   -0.256806
     7  C   -0.052371
     8  C   -0.013982
     9  C   -0.087006
    10  C    0.046304
    11  C    0.104789
    12  C    0.053429
    13  C   -0.072030
    14  H    0.036662
    15  N   -0.433127
    16  C    0.168321
    17  C   -0.177175
    18  C   -0.004184
    19  C    0.148687
    20  C    0.110149
    21  C    0.012055
    22  O   -0.249871
    23  C    0.062589
    24  N   -0.341153
    25  C    0.041247
    26  C   -0.028137
    27  C   -0.023983
    28  C    0.074856
    29  C    0.076168
    30  C    0.035147
    31  C   -0.004489
    32  N   -0.310509
    33  C    0.080465
    34  C   -0.169692
    35  C    0.008408
    36  C    0.082978
    37  C    0.127309
    38  C    0.046143
    39  O   -0.188275
    40  C   -0.005329
    41  C    0.212904
    42  O   -0.257112
    43  O   -0.304784
    44  C    0.157630
    45  H   -0.017510
    46  H   -0.017012
    47  H   -0.041449
    48  H    0.001050
    49  H   -0.003897
    50  H    0.025514
    51  H    0.016379
    52  H    0.016783
    53  H    0.011178
    54  H    0.044144
    55  H    0.017888
    56  H    0.018052
    57  H    0.006053
    58  H    0.026815
    59  H    0.039338
    60  H    0.037530
    61  H    0.035268
    62  H    0.031225
    63  H    0.016314
    64  H    0.009546
    65  H    0.023090
    66  H    0.012606
    67  H    0.004832
    68  H    0.006316
    69  H    0.004866
    70  H    0.008482
    71  H    0.018218
    72  H    0.028974
    73  H    0.047613
    74  H    0.009127
    75  H    0.046105
    76  H    0.035259
    77  H    0.043036
    78  H    0.046581
    79  H    0.053748
    80  Mg   0.838030
    81  C   -0.016934
    82  C   -0.087852
    83  C   -0.045417
    84  C   -0.064416
    85  N   -0.254551
    86  C   -0.049834
    87  C   -0.015114
    88  C   -0.090496
    89  C    0.045765
    90  C    0.114369
    91  C    0.062576
    92  C   -0.077753
    93  H    0.034646
    94  N   -0.423521
    95  C    0.162940
    96  C   -0.174612
    97  C   -0.007786
    98  C    0.152153
    99  C    0.099359
   100  C    0.015546
   101  O   -0.253122
   102  C    0.061214
   103  N   -0.349999
   104  C    0.037688
   105  C   -0.019979
   106  C   -0.034844
   107  C    0.088856
   108  C    0.073416
   109  C    0.034675
   110  C   -0.007649
   111  N   -0.324124
   112  C    0.078432
   113  C   -0.162959
   114  C    0.002165
   115  C    0.096258
   116  C    0.131478
   117  C    0.042365
   118  O   -0.188202
   119  C    0.000920
   120  C    0.211183
   121  O   -0.251018
   122  O   -0.305709
   123  C    0.152089
   124  H   -0.019706
   125  H   -0.015473
   126  H   -0.040191
   127  H   -0.000931
   128  H   -0.004499
   129  H    0.022336
   130  H    0.014848
   131  H    0.016013
   132  H    0.013950
   133  H    0.037632
   134  H    0.020555
   135  H    0.019557
   136  H    0.008696
   137  H    0.026212
   138  H    0.039639
   139  H    0.038267
   140  H    0.036308
   141  H    0.033786
   142  H    0.014264
   143  H    0.013104
   144  H    0.025072
   145  H    0.011883
   146  H    0.006517
   147  H    0.006416
   148  H    0.003742
   149  H    0.010867
   150  H    0.017796
   151  H    0.029938
   152  H    0.045751
   153  H    0.008675
   154  H    0.047297
   155  H    0.034844
   156  H    0.043643
   157  H    0.049403
   158  H    0.053560
 Sum of Mulliken charges =  -0.00000

 Dipole moment (field-independent basis, Debye):
    X=             -3.6058    Y=              1.8579    Z=              6.1613  Tot=              7.3767
 Quadrupole moment (field-independent basis, Debye-Ang):
   XX=           -518.8208   YY=           -508.5699   ZZ=           -490.2881
   XY=             43.2801   XZ=            -11.5604   YZ=             -8.6556

 Normal termination of Gaussian 16 at Sun Sep 12 02:48:40 2021.
