 Gaussian 16, Revision A.03,
 Gaussian 16:  ES64L-G16RevA.03 25-Dec-2016

 -----------------------------------
 #p cam-b3lyp/Def2SVP td=(nstates=5)
 -----------------------------------

 --------------------------------
 TDDFT excited states in gaussian
 --------------------------------
 Symbolic Z-matrix:
 Charge =  0 Multiplicity = 1

                         Standard orientation:
 ---------------------------------------------------------------------
 Center     Atomic      Atomic             Coordinates (Angstroms)
 Number     Number       Type             X           Y           Z
 ---------------------------------------------------------------------
      1         12           0        4.124087   -1.173668    0.137689
      2          6           0        4.743072    1.827373   -1.712398
      3          6           0        5.136627    0.513084    2.925644
      4          6           0        4.020310   -3.926607    1.708416
      5          6           0        4.259179   -2.893087   -2.890679
      6          7           0        4.825555    0.904013    0.440718
      7          6           0        4.959972    1.971363   -0.340222
      8          6           0        5.279872    3.276920    0.447534
      9          6           0        5.924876    2.630641    1.754550
     10          6           0        5.228785    1.281333    1.727173
     11          6           0        7.430045    2.409135    1.645444
     12          6           0        3.989965    4.095757    0.790140
     13          6           0        4.234128    5.531010    1.265312
     14          1           0        3.286476    6.566452    0.881693
     15          7           0        4.047522   -1.539832    2.077511
     16          6           0        4.491168   -0.733853    3.071927
     17          6           0        4.209202   -1.450848    4.334105
     18          6           0        3.739065   -2.820063    3.984371
     19          6           0        3.944428   -2.825815    2.558478
     20          6           0        4.344852   -0.820825    5.686296
     21          6           0        3.201420   -3.948504    4.806375
     22          8           0        3.070755   -5.130307    4.336436
     23          6           0        2.910945   -3.650844    6.220612
     24          7           0        4.355050   -3.159973   -0.461381
     25          6           0        4.203961   -4.164996    0.408151
     26          6           0        4.133762   -5.488613   -0.294025
     27          6           0        4.024358   -5.157165   -1.852205
     28          6           0        4.139500   -3.614795   -1.774040
     29          6           0        5.317504   -6.436232   -0.055732
     30          6           0        2.825242   -5.769366   -2.618853
     31          6           0        1.534727   -5.147646   -2.133946
     32          7           0        4.265306   -0.640387   -1.961528
     33          6           0        4.329249   -1.519465   -3.052311
     34          6           0        4.526527   -0.696258   -4.259573
     35          6           0        4.580587    0.611821   -3.782236
     36          6           0        4.453117    0.604041   -2.363792
     37          6           0        4.689117   -1.186723   -5.585258
     38          6           0        4.741069    2.012351   -4.138072
     39          8           0        4.795770    2.636871   -5.198485
     40          6           0        4.974816    2.845390   -2.801196
     41          6           0        4.066842    4.044016   -2.847944
     42          8           0        2.827262    3.910057   -2.794432
     43          8           0        4.797476    5.160872   -2.708842
     44          6           0        3.953772    6.385719   -2.717005
     45          1           0        5.654183    0.865877    3.819856
     46          1           0        3.877508   -4.891726    2.198915
     47          1           0        4.225909   -3.353401   -3.879849
     48          1           0        6.001250    3.935013   -0.037185
     49          1           0        5.653056    3.179033    2.656271
     50          1           0        7.790711    2.613091    0.637356
     51          1           0        7.589452    1.361669    1.902150
     52          1           0        7.962432    2.987223    2.401193
     53          1           0        3.527573    3.680068    1.685381
     54          1           0        3.304457    4.108460   -0.057942
     55          1           0        5.255261    5.851580    1.056910
     56          1           0        4.161560    5.547749    2.352811
     57          1           0        4.866420    0.133977    5.632758
     58          1           0        5.007071   -1.459709    6.270251
     59          1           0        3.384382   -0.726056    6.193098
     60          1           0        3.822614   -3.308918    6.711014
     61          1           0        2.451061   -4.550115    6.628862
     62          1           0        2.206610   -2.819874    6.269087
     63          1           0        3.252152   -6.048826    0.014764
     64          1           0        4.897952   -5.501848   -2.406009
     65          1           0        5.027027   -7.407360    0.345814
     66          1           0        6.022893   -5.934526    0.606090
     67          1           0        5.937567   -6.622452   -0.932237
     68          1           0        2.758165   -6.839472   -2.425674
     69          1           0        2.888363   -5.630517   -3.698199
     70          1           0        1.301814   -5.732459   -1.244802
     71          1           0        0.753939   -5.255255   -2.887605
     72          1           0        1.684979   -4.115970   -1.815270
     73          1           0        4.080232   -0.547001   -6.223993
     74          1           0        4.382784   -2.229740   -5.661929
     75          1           0        5.762883   -1.055998   -5.718654
     76          1           0        6.026752    3.128917   -2.788410
     77          1           0        4.336143    7.033611   -3.505842
     78          1           0        3.958955    6.772359   -1.697747
     79          1           0        2.920011    6.256822   -3.039592
     80         12           0       -4.804699   -0.078458   -0.107613
     81          6           0       -2.102029    2.053282    0.907433
     82          6           0       -6.934501    2.340458    1.009254
     83          6           0       -7.197324   -2.109777   -0.572919
     84          6           0       -2.542182   -2.729068   -0.075940
     85          7           0       -4.444439    1.897766    0.818131
     86          6           0       -3.375736    2.628413    1.098080
     87          6           0       -3.688680    4.084550    1.535424
     88          6           0       -5.185905    3.858484    2.070274
     89          6           0       -5.566665    2.644588    1.225193
     90          6           0       -5.247777    3.459018    3.535178
     91          6           0       -3.654457    5.090589    0.331794
     92          6           0       -3.644919    6.568407    0.728930
     93          1           0       -2.877861    7.503971   -0.088889
     94          7           0       -6.753644    0.251619   -0.284382
     95          6           0       -7.450371    1.295721    0.211303
     96          6           0       -8.851161    1.063702   -0.173550
     97          6           0       -8.949744   -0.285128   -0.794580
     98          6           0       -7.612013   -0.786104   -0.550523
     99          6           0       -9.921781    2.103803   -0.014192
    100          6           0      -10.067374   -1.009737   -1.481626
    101          8           0      -10.002070   -2.264903   -1.732909
    102          6           0      -11.278416   -0.226717   -1.767553
    103          7           0       -4.914910   -2.154499   -0.092376
    104          6           0       -6.066158   -2.787801   -0.377868
    105          6           0       -5.839979   -4.267602   -0.576429
    106          6           0       -4.252543   -4.459783   -0.603291
    107          6           0       -3.816779   -3.006637   -0.313715
    108          6           0       -6.445084   -5.181847    0.488653
    109          6           0       -3.651549   -5.178758   -1.842060
    110          6           0       -3.822613   -4.317038   -3.072329
    111          7           0       -2.670800   -0.298965    0.149127
    112          6           0       -1.931847   -1.502302    0.151934
    113          6           0       -0.533661   -1.153834    0.477617
    114          6           0       -0.560938    0.236245    0.665808
    115          6           0       -1.886664    0.717260    0.491000
    116          6           0        0.543382   -2.074667    0.612417
    117          6           0        0.228322    1.404635    0.983032
    118          8           0        1.427800    1.624597    1.146188
    119          6           0       -0.757823    2.615787    1.277982
    120          6           0       -0.264444    3.813338    0.513144
    121          8           0       -0.269763    3.815138   -0.730467
    122          8           0       -0.073393    4.834314    1.368411
    123          6           0        0.405566    6.048357    0.655302
    124          1           0       -7.686343    2.931116    1.533411
    125          1           0       -7.965107   -2.839965   -0.839019
    126          1           0       -1.757611   -3.485798   -0.142912
    127          1           0       -3.061960    4.463731    2.333690
    128          1           0       -5.823286    4.705450    1.829958
    129          1           0       -4.265364    3.277442    3.945104
    130          1           0       -5.844563    2.556945    3.569142
    131          1           0       -5.801913    4.208690    4.107246
    132          1           0       -4.613451    5.045194   -0.200193
    133          1           0       -2.822779    4.884470   -0.313540
    134          1           0       -3.413572    6.708088    1.791912
    135          1           0       -4.658046    6.963290    0.620998
    136          1           0       -9.586396    2.932090    0.622078
    137          1           0      -10.736900    1.639599    0.551448
    138          1           0      -10.311957    2.456713   -0.971209
    139          1           0      -11.679065    0.171049   -0.838181
    140          1           0      -11.928041   -0.891743   -2.339910
    141          1           0      -11.000315    0.634930   -2.384679
    142          1           0       -6.250015   -4.597910   -1.522920
    143          1           0       -3.901339   -5.067812    0.243340
    144          1           0       -7.138526   -5.937026    0.072837
    145          1           0       -6.948938   -4.565501    1.221311
    146          1           0       -5.722645   -5.721680    1.098463
    147          1           0       -4.189648   -6.109506   -2.037792
    148          1           0       -2.602543   -5.431046   -1.728297
    149          1           0       -4.844580   -4.542536   -3.391418
    150          1           0       -3.100082   -4.593873   -3.837419
    151          1           0       -3.784958   -3.252073   -2.815245
    152          1           0        1.392662   -1.636876    0.104911
    153          1           0        0.289099   -3.047505    0.196855
    154          1           0        0.638515   -2.105508    1.701118
    155          1           0       -0.752875    2.787444    2.355056
    156          1           0        1.340274    6.353300    1.135932
    157          1           0       -0.435647    6.765970    0.688982
    158          1           0        0.725053    5.931868   -0.373690
 ---------------------------------------------------------------------

 SCF Done:  E(RCAM-B3LYP) =  -4069.81509157     A.U. after   18 cycles

 Excitation energies and oscillator strengths:

 Excited State   1:      Singlet-A      1.6601 eV  746.84 nm  f=0.4230  <S**2>=0.000
     309 -> 315        0.15516
     311 -> 313        0.62755
     312 -> 314        0.27883
 This state for optimization and/or second-order correction.
 Total Energy, E(TD-HF/TD-DFT) =  -4069.75408377
 Copying the excited state density for this state as the 1-particle RhoCI density.

 Excited State   2:      Singlet-A      1.6780 eV  738.90 nm  f=0.3924  <S**2>=0.000
     310 -> 316        0.15647
     311 -> 313       -0.27830
     312 -> 314        0.62652

 Excited State   3:      Singlet-A      2.0521 eV  604.19 nm  f=0.0001  <S**2>=0.000
     312 -> 313        0.70346

 Excited State   4:      Singlet-A      2.1612 eV  573.69 nm  f=0.0023  <S**2>=0.000
     309 -> 313       -0.41385
     310 -> 314        0.50047
     311 -> 315        0.16458
     312 -> 316       -0.19544

 Excited State   5:      Singlet-A      2.1852 eV  567.38 nm  f=0.1666  <S**2>=0.000
     309 -> 313        0.49470
     310 -> 314        0.40693
     311 -> 315       -0.20936
     312 -> 316       -0.17511

 The electronic state is 1-A.
 Alpha  occ. eigenvalues --  -46.87747 -46.86756 -19.26240 -19.25516 -19.18884
 Alpha  occ. eigenvalues --  -19.18859 -19.18809 -19.18215 -19.18042 -19.17372
 Alpha  occ. eigenvalues --  -14.42583 -14.41439 -14.41340 -14.40569 -14.39455
 Alpha  occ. eigenvalues --  -14.38714 -14.38379 -14.37651 -10.38852 -10.38106
 Alpha  occ. eigenvalues --  -10.35483 -10.34862 -10.34687 -10.33578 -10.31528
 Alpha  occ. eigenvalues --  -10.31439 -10.31192 -10.31091 -10.30530 -10.30511
 Alpha  occ. eigenvalues --  -10.30378 -10.30176 -10.30005 -10.29898 -10.29653
 Alpha  occ. eigenvalues --  -10.29619 -10.29548 -10.29545 -10.29469 -10.29159
 Alpha  occ. eigenvalues --  -10.28823 -10.28773 -10.28645 -10.28526 -10.28421
 Alpha  occ. eigenvalues --  -10.28225 -10.28209 -10.28072 -10.27776 -10.27774
 Alpha  occ. eigenvalues --  -10.27599 -10.27576 -10.27561 -10.27517 -10.27438
 Alpha  occ. eigenvalues --  -10.27408 -10.27241 -10.27180 -10.27034 -10.26964
 Alpha  occ. eigenvalues --  -10.26954 -10.26816 -10.26785 -10.26778 -10.26667
 Alpha  occ. eigenvalues --  -10.26486 -10.26480 -10.26474 -10.26299 -10.26141
 Alpha  occ. eigenvalues --  -10.26107 -10.25984 -10.25981 -10.25951 -10.25465
 Alpha  occ. eigenvalues --  -10.25460 -10.25416 -10.25220 -10.25182 -10.25094
 Alpha  occ. eigenvalues --  -10.24991 -10.24792 -10.24735 -10.24701 -10.23995
 Alpha  occ. eigenvalues --  -10.23978  -3.16495  -3.15438  -1.91376  -1.90966
 Alpha  occ. eigenvalues --   -1.90804  -1.90325  -1.89904  -1.89753  -1.16486
 Alpha  occ. eigenvalues --   -1.15829  -1.09261  -1.07826  -1.07057  -1.06700
 Alpha  occ. eigenvalues --   -1.06637  -1.05686  -1.04591  -1.03764  -1.03545
 Alpha  occ. eigenvalues --   -1.03139  -1.02848  -1.02333  -1.02221  -1.01512
 Alpha  occ. eigenvalues --   -0.92117  -0.91082  -0.89556  -0.89223  -0.88945
 Alpha  occ. eigenvalues --   -0.88267  -0.88225  -0.88098  -0.87766  -0.87666
 Alpha  occ. eigenvalues --   -0.87231  -0.87075  -0.86766  -0.86533  -0.85072
 Alpha  occ. eigenvalues --   -0.84155  -0.83905  -0.83459  -0.83002  -0.82715
 Alpha  occ. eigenvalues --   -0.82385  -0.81891  -0.81657  -0.80846  -0.80510
 Alpha  occ. eigenvalues --   -0.79804  -0.78795  -0.78017  -0.77257  -0.76944
 Alpha  occ. eigenvalues --   -0.76583  -0.76206  -0.75918  -0.75153  -0.74855
 Alpha  occ. eigenvalues --   -0.74284  -0.72865  -0.71983  -0.71670  -0.70885
 Alpha  occ. eigenvalues --   -0.69775  -0.69504  -0.68917  -0.68087  -0.67722
 Alpha  occ. eigenvalues --   -0.67263  -0.66859  -0.66382  -0.65348  -0.64850
 Alpha  occ. eigenvalues --   -0.64698  -0.64420  -0.64250  -0.64055  -0.63896
 Alpha  occ. eigenvalues --   -0.63539  -0.62274  -0.61550  -0.60441  -0.59907
 Alpha  occ. eigenvalues --   -0.59721  -0.59102  -0.58863  -0.58528  -0.58185
 Alpha  occ. eigenvalues --   -0.57735  -0.57661  -0.57319  -0.56763  -0.56593
 Alpha  occ. eigenvalues --   -0.56349  -0.55912  -0.55574  -0.55548  -0.55314
 Alpha  occ. eigenvalues --   -0.55244  -0.54834  -0.54728  -0.54508  -0.53980
 Alpha  occ. eigenvalues --   -0.53854  -0.53378  -0.53215  -0.52977  -0.52895
 Alpha  occ. eigenvalues --   -0.52753  -0.52637  -0.52511  -0.52443  -0.52302
 Alpha  occ. eigenvalues --   -0.52207  -0.52067  -0.51884  -0.51751  -0.51420
 Alpha  occ. eigenvalues --   -0.51177  -0.50795  -0.50555  -0.50447  -0.50081
 Alpha  occ. eigenvalues --   -0.49979  -0.49956  -0.49578  -0.49544  -0.49382
 Alpha  occ. eigenvalues --   -0.49274  -0.49179  -0.48765  -0.48680  -0.48532
 Alpha  occ. eigenvalues --   -0.48452  -0.48420  -0.48311  -0.47926  -0.47789
 Alpha  occ. eigenvalues --   -0.47750  -0.47659  -0.47197  -0.47009  -0.46814
 Alpha  occ. eigenvalues --   -0.46629  -0.46566  -0.46393  -0.46265  -0.46109
 Alpha  occ. eigenvalues --   -0.45985  -0.45638  -0.45581  -0.45442  -0.45265
 Alpha  occ. eigenvalues --   -0.45079  -0.44847  -0.44582  -0.44549  -0.44311
 Alpha  occ. eigenvalues --   -0.44172  -0.44062  -0.43940  -0.43832  -0.43588
 Alpha  occ. eigenvalues --   -0.43526  -0.43467  -0.43287  -0.43242  -0.43021
 Alpha  occ. eigenvalues --   -0.42854  -0.42765  -0.42610  -0.42576  -0.42371
 Alpha  occ. eigenvalues --   -0.42093  -0.42033  -0.41919  -0.41848  -0.41517
 Alpha  occ. eigenvalues --   -0.41359  -0.41112  -0.40892  -0.40790  -0.40760
 Alpha  occ. eigenvalues --   -0.40729  -0.40546  -0.40347  -0.40255  -0.40199
 Alpha  occ. eigenvalues --   -0.40167  -0.39860  -0.39434  -0.39226  -0.39015
 Alpha  occ. eigenvalues --   -0.38387  -0.37850  -0.37696  -0.37309  -0.37285
 Alpha  occ. eigenvalues --   -0.37028  -0.36609  -0.36548  -0.36337  -0.36096
 Alpha  occ. eigenvalues --   -0.35905  -0.35373  -0.34367  -0.33637  -0.33373
 Alpha  occ. eigenvalues --   -0.33216  -0.32768  -0.32295  -0.31361  -0.31055
 Alpha  occ. eigenvalues --   -0.30747  -0.30543  -0.30147  -0.29491  -0.29378
 Alpha  occ. eigenvalues --   -0.29220  -0.28608  -0.28466  -0.24121  -0.23110
 Alpha  occ. eigenvalues --   -0.21228  -0.20252
 Alpha virt. eigenvalues --   -0.08932  -0.07907  -0.01767  -0.00903  -0.00171
 Alpha virt. eigenvalues --    0.00761   0.01919   0.02987   0.03249   0.04643
 Alpha virt. eigenvalues --    0.04953   0.05509   0.05682   0.05983   0.06191

 Mulliken charges:
               1
     1  Mg   0.762089
     2  C    0.007526
     3  C   -0.090875
     4  C   -0.052362
     5  C   -0.065024
     6  N   -0.250217
     7  C   -0.038234
     8  C   -0.018362
     9  C   -0.092178
    10  C    0.065233
    11  C    0.105693
    12  C    0.058754
    13  C   -0.074433
    14  H    0.023726
    15  N   -0.423625
    16  C    0.178105
    17  C   -0.179615
    18  C   -0.008184
    19  C    0.145852
    20  C    0.111857
    21  C    0.008645
    22  O   -0.253230
    23  C    0.063730
    24  N   -0.333951
    25  C    0.042415
    26  C   -0.026950
    27  C   -0.023018
    28  C    0.071652
    29  C    0.077037
    30  C    0.039537
    31  C   -0.018002
    32  N   -0.303312
    33  C    0.077908
    34  C   -0.171443
    35  C    0.007058
    36  C    0.084689
    37  C    0.127782
    38  C    0.048136
    39  O   -0.190928
    40  C   -0.009661
    41  C    0.208964
    42  O   -0.243965
    43  O   -0.306462
    44  C    0.156770
    45  H   -0.021826
    46  H   -0.021851
    47  H   -0.046250
    48  H   -0.003648
    49  H   -0.006097
    50  H    0.024010
    51  H    0.015769
    52  H    0.013453
    53  H    0.023497
    54  H    0.047934
    55  H    0.014913
    56  H    0.018459
    57  H    0.005577
    58  H    0.024122
    59  H    0.037082
    60  H    0.037060
    61  H    0.032797
    62  H    0.029954
    63  H    0.012072
    64  H    0.008646
    65  H    0.020857
    66  H    0.013464
    67  H    0.003473
    68  H    0.004578
    69  H    0.004286
    70  H    0.007582
    71  H    0.016903
    72  H    0.034350
    73  H    0.046447
    74  H    0.006867
    75  H    0.044232
    76  H    0.032543
    77  H    0.040825
    78  H    0.042193
    79  H    0.055923
    80  Mg   0.840941
    81  C   -0.017009
    82  C   -0.087834
    83  C   -0.045375
    84  C   -0.066387
    85  N   -0.254846
    86  C   -0.050131
    87  C   -0.015237
    88  C   -0.090644
    89  C    0.046678
    90  C    0.114488
    91  C    0.062415
    92  C   -0.077689
    93  H    0.035787
    94  N   -0.423600
    95  C    0.163993
    96  C   -0.174179
    97  C   -0.007217
    98  C    0.152774
    99  C    0.099271
   100  C    0.016080
   101  O   -0.252490
   102  C    0.060954
   103  N   -0.350165
   104  C    0.038329
   105  C   -0.020206
   106  C   -0.034844
   107  C    0.087855
   108  C    0.073417
   109  C    0.033089
   110  C   -0.007534
   111  N   -0.324265
   112  C    0.080280
   113  C   -0.165741
   114  C    0.001403
   115  C    0.100327
   116  C    0.125090
   117  C    0.062019
   118  O   -0.182500
   119  C    0.002822
   120  C    0.213431
   121  O   -0.236027
   122  O   -0.311942
   123  C    0.156223
   124  H   -0.019457
   125  H   -0.015039
   126  H   -0.037630
   127  H   -0.001503
   128  H   -0.003913
   129  H    0.021681
   130  H    0.014396
   131  H    0.016336
   132  H    0.014081
   133  H    0.040695
   134  H    0.019627
   135  H    0.019301
   136  H    0.009072
   137  H    0.026501
   138  H    0.040594
   139  H    0.038275
   140  H    0.036881
   141  H    0.034366
   142  H    0.014748
   143  H    0.013830
   144  H    0.025324
   145  H    0.011383
   146  H    0.006693
   147  H    0.005987
   148  H    0.005841
   149  H    0.010705
   150  H    0.017646
   151  H    0.030808
   152  H    0.060974
   153  H    0.016459
   154  H    0.065659
   155  H    0.033170
   156  H    0.029727
   157  H    0.045141
   158  H    0.060511
 Sum of Mulliken charges =  -0.00000

 Dipole moment (field-independent basis, Debye):
    X=             -2.9481    Y=              2.8601    Z=              5.8209  Tot=              7.1242
 Quadrupole moment (field-independent basis, Debye-Ang):
   XX=           -485.9273   YY=           -476.1756   ZZ=           -517.1114
   XY=            -26.5671   XZ=              7.1593   YZ=             39.9455

 Normal termination of Gaussian 16 at Thu Sep  9 22:42:25 2021.
