 Gaussian 16, Revision A.03,
 Gaussian 16:  ES64L-G16RevA.03 25-Dec-2016

 -----------------------------------
 #p cam-b3lyp/Def2SVP td=(nstates=5)
 -----------------------------------

 --------------------------------
 TDDFT excited states in gaussian
 --------------------------------
 Symbolic Z-matrix:
 Charge =  0 Multiplicity = 1

                         Standard orientation:
 ---------------------------------------------------------------------
 Center     Atomic      Atomic             Coordinates (Angstroms)
 Number     Number       Type             X           Y           Z
 ---------------------------------------------------------------------
      1         12           0      -15.793273   -0.754185   -0.111639
      2          6           0      -16.008961    2.645388    0.987723
      3          6           0      -16.631462    0.356320   -3.227290
      4          6           0      -16.053947   -3.786190   -1.003612
      5          6           0      -16.094222   -1.698898    3.229410
      6          7           0      -16.237197    1.268023   -0.895381
      7          6           0      -16.226997    2.494855   -0.383571
      8          6           0      -16.394974    3.612903   -1.455544
      9          6           0      -17.134426    2.767574   -2.587193
     10          6           0      -16.610006    1.385495   -2.239681
     11          6           0      -18.653619    2.765042   -2.451003
     12          6           0      -15.019093    4.164753   -1.959670
     13          6           0      -15.091206    5.470675   -2.756363
     14          1           0      -14.017256    6.441323   -2.608641
     15          7           0      -15.791667   -1.564252   -1.913482
     16          6           0      -16.147243   -0.960727   -3.073055
     17          6           0      -15.974991   -1.978587   -4.131813
     18          6           0      -15.672386   -3.277629   -3.469232
     19          6           0      -15.855448   -2.929078   -2.083455
     20          6           0      -16.052072   -1.665451   -5.594603
     21          6           0      -15.290655   -4.622749   -4.001272
     22          8           0      -15.299928   -5.671220   -3.269700
     23          6           0      -14.986909   -4.697395   -5.441830
     24          7           0      -16.258799   -2.504661    0.926029
     25          6           0      -16.246089   -3.693821    0.313884
     26          6           0      -16.329389   -4.818154    1.303266
     27          6           0      -16.156490   -4.152568    2.744396
     28          6           0      -16.081392   -2.667690    2.311073
     29          6           0      -17.624563   -5.641343    1.273387
     30          6           0      -15.030801   -4.714981    3.648240
     31          6           0      -13.680802   -4.386264    3.051126
     32          7           0      -15.835993    0.261919    1.805847
     33          6           0      -15.991645   -0.327183    3.068941
     34          6           0      -16.067572    0.770060    4.050960
     35          6           0      -15.966801    1.929233    3.284142
     36          6           0      -15.862586    1.578969    1.907644
     37          6           0      -16.269572    0.622387    5.451610
     38          6           0      -15.947692    3.382866    3.305154
     39          8           0      -15.908899    4.236859    4.192106
     40          6           0      -16.096801    3.907609    1.809079
     41          6           0      -15.047123    4.963006    1.590859
     42          8           0      -13.834528    4.668106    1.587014
     43          8           0      -15.636209    6.099243    1.187764
     44          6           0      -14.647642    7.178999    0.925058
     45          1           0      -17.114846    0.554679   -4.185901
     46          1           0      -16.038837   -4.848434   -1.256295
     47          1           0      -16.103214   -1.919263    4.298434
     48          1           0      -17.022176    4.449016   -1.145775
     49          1           0      -16.810522    3.055387   -3.587179
     50          1           0      -18.971149    3.238885   -1.522257
     51          1           0      -18.945030    1.714583   -2.461452
     52          1           0      -19.121811    3.214604   -3.327055
     53          1           0      -14.625087    3.499986   -2.728374
     54          1           0      -14.324606    4.287761   -1.127875
     55          1           0      -16.061675    5.954384   -2.641796
     56          1           0      -15.033468    5.227157   -3.817290
     57          1           0      -16.450841   -0.667066   -5.769977
     58          1           0      -16.796832   -2.334826   -6.024695
     59          1           0      -15.094972   -1.809574   -6.096122
     60          1           0      -15.856622   -4.367704   -6.010559
     61          1           0      -14.647813   -5.716328   -5.625241
     62          1           0      -14.186132   -3.993624   -5.670765
     63          1           0      -15.528468   -5.539052    1.144338
     64          1           0      -17.057554   -4.249564    3.350489
     65          1           0      -17.462332   -6.707139    1.110702
     66          1           0      -18.272437   -5.222459    0.503915
     67          1           0      -18.249645   -5.542350    2.160455
     68          1           0      -15.099331   -5.800651    3.707986
     69          1           0      -15.060070   -4.324342    4.665489
     70          1           0      -13.535292   -5.184485    2.324146
     71          1           0      -12.908055   -4.412926    3.820127
     72          1           0      -13.707236   -3.445400    2.501070
     73          1           0      -15.576805    1.311794    5.934062
     74          1           0      -16.093306   -0.404511    5.771004
     75          1           0      -17.316841    0.912079    5.536242
     76          1           0      -17.105732    4.308383    1.716553
     77          1           0      -14.935164    8.033458    1.537810
     78          1           0      -14.620333    7.317847   -0.155859
     79          1           0      -13.632992    7.001136    1.283093
     80         12           0       15.962388   -0.752520    0.258802
     81          6           0       15.764422    2.762572   -0.436926
     82          6           0       15.124062   -1.293384   -3.002998
     83          6           0       15.687139   -3.838169    0.944662
     84          6           0       15.654838    0.040359    3.638509
     85          7           0       15.526334    0.636098   -1.406693
     86          6           0       15.542107    1.950588   -1.568600
     87          6           0       15.386056    2.419306   -3.040171
     88          6           0       14.633266    1.127212   -3.625540
     89          6           0       15.149253    0.077741   -2.643179
     90          6           0       13.121039    1.201093   -3.494888
     91          6           0       16.769388    2.646562   -3.744985
     92          6           0       16.697071    3.397186   -5.076553
     93          1           0       17.782798    4.311311   -5.420111
     94          7           0       15.960490   -2.338191   -0.934602
     95          6           0       15.613194   -2.375116   -2.238179
     96          6           0       15.762856   -3.778036   -2.654814
     97          6           0       16.068328   -4.595354   -1.449248
     98          6           0       15.892795   -3.603771   -0.407121
     99          6           0       15.694205   -4.212357   -4.090110
    100          6           0       16.442435   -6.034757   -1.263859
    101          8           0       16.429594   -6.590434   -0.108924
    102          6           0       16.733810   -6.798986   -2.485560
    103          7           0       15.496218   -1.771534    2.009976
    104          6           0       15.496053   -3.115573    2.048584
    105          6           0       15.404793   -3.620473    3.468841
    106          6           0       15.588142   -2.330408    4.396048
    107          6           0       15.668026   -1.242335    3.302828
    108          6           0       14.104008   -4.332515    3.839432
    109          6           0       16.712509   -2.386915    5.466207
    110          6           0       18.065664   -2.408255    4.792488
    111          7           0       15.932889    1.059701    1.434830
    112          6           0       15.768566    1.166440    2.833290
    113          6           0       15.700499    2.606685    3.154978
    114          6           0       15.807693    3.242483    1.908881
    115          6           0       15.913373    2.266911    0.880987
    116          6           0       15.509896    3.161272    4.451992
    117          6           0       15.844778    4.516895    1.228281
    118          8           0       15.882435    5.692925    1.587812
    119          6           0       15.691248    4.260714   -0.332869
    120          6           0       16.746733    5.064649   -1.041497
    121          8           0       17.952198    4.801081   -0.886597
    122          8           0       16.156556    5.865070   -1.947792
    123          6           0       17.163573    6.674615   -2.684254
    124          1           0       14.646687   -1.574644   -3.942083
    125          1           0       15.695535   -4.887697    1.247828
    126          1           0       15.658012    0.371487    4.679190
    127          1           0       14.770127    3.300600   -3.173320
    128          1           0       14.965383    0.900244   -4.635262
    129          1           0       12.807742    2.060623   -2.921125
    130          1           0       12.823574    0.286362   -2.999078
    131          1           0       12.655372    1.172847   -4.484175
    132          1           0       17.156104    1.680647   -4.094553
    133          1           0       17.455255    3.143563   -3.086789
    134          1           0       15.724731    3.882835   -5.223683
    135          1           0       16.758713    2.669170   -5.889088
    136          1           0       15.293704   -3.418039   -4.732025
    137          1           0       14.946342   -5.010681   -4.147190
    138          1           0       16.647853   -4.594323   -4.460678
    139          1           0       15.866677   -6.776056   -3.141305
    140          1           0       17.067602   -7.780577   -2.143592
    141          1           0       17.548447   -6.301418   -3.023531
    142          1           0       16.201735   -4.322371    3.681716
    143          1           0       14.682870   -2.119236    4.984029
    144          1           0       14.261546   -5.359771    4.218911
    145          1           0       13.460799   -4.342963    2.969538
    146          1           0       13.488980   -3.817334    4.575327
    147          1           0       16.639012   -3.311351    6.044285
    148          1           0       16.679749   -1.562847    6.171078
    149          1           0       18.200149   -3.464867    4.542315
    150          1           0       18.839140   -2.062807    5.475461
    151          1           0       18.045601   -1.846630    3.851300
    152          1           0       16.200072    3.989663    4.540890
    153          1           0       15.676030    2.419119    5.230064
    154          1           0       14.459692    3.457679    4.384963
    155          1           0       14.683771    4.566572   -0.617516
    156          1           0       16.878332    7.724469   -2.565436
    157          1           0       17.177372    6.269794   -3.713666
    158          1           0       18.176487    6.685756   -2.299101
 ---------------------------------------------------------------------

 SCF Done:  E(RCAM-B3LYP) =  -4069.81177312     A.U. after   19 cycles

 Excitation energies and oscillator strengths:

 Excited State   1:      Singlet-A      1.6754 eV  740.04 nm  f=0.2526  <S**2>=0.000
     310 -> 316        0.16963
     311 -> 314       -0.14513
     312 -> 313        0.67052
     310 <- 316        0.10226
 This state for optimization and/or second-order correction.
 Total Energy, E(TD-HF/TD-DFT) =  -4069.75020473
 Copying the excited state density for this state as the 1-particle RhoCI density.

 Excited State   2:      Singlet-A      1.6800 eV  737.98 nm  f=0.5244  <S**2>=0.000
     309 -> 315        0.17161
     311 -> 314        0.67016
     312 -> 313        0.14509
     309 <- 315        0.10275

 Excited State   3:      Singlet-A      2.1861 eV  567.15 nm  f=0.0971  <S**2>=0.000
     310 -> 313        0.64221
     312 -> 316       -0.27300

 Excited State   4:      Singlet-A      2.1925 eV  565.49 nm  f=0.1033  <S**2>=0.000
     309 -> 314        0.64044
     311 -> 315       -0.27817

 Excited State   5:      Singlet-A      3.0657 eV  404.42 nm  f=0.0000  <S**2>=0.000
     311 -> 313        0.70711

 The electronic state is 1-A.
 Alpha  occ. eigenvalues --  -46.87796 -46.87660 -19.26351 -19.26280 -19.19162
 Alpha  occ. eigenvalues --  -19.19016 -19.18816 -19.18714 -19.18167 -19.18051
 Alpha  occ. eigenvalues --  -14.42498 -14.42449 -14.41449 -14.41359 -14.39402
 Alpha  occ. eigenvalues --  -14.39352 -14.38600 -14.38586 -10.39092 -10.39076
 Alpha  occ. eigenvalues --  -10.35450 -10.35392 -10.34387 -10.34228 -10.31758
 Alpha  occ. eigenvalues --  -10.31674 -10.31404 -10.31309 -10.31024 -10.30908
 Alpha  occ. eigenvalues --  -10.30569 -10.30507 -10.30398 -10.30361 -10.30207
 Alpha  occ. eigenvalues --  -10.30141 -10.29920 -10.29894 -10.29630 -10.29437
 Alpha  occ. eigenvalues --  -10.29401 -10.29254 -10.28747 -10.28720 -10.28657
 Alpha  occ. eigenvalues --  -10.28536 -10.28405 -10.28364 -10.28141 -10.28115
 Alpha  occ. eigenvalues --  -10.28001 -10.27792 -10.27726 -10.27669 -10.27584
 Alpha  occ. eigenvalues --  -10.27516 -10.27501 -10.27484 -10.27483 -10.27468
 Alpha  occ. eigenvalues --  -10.27465 -10.27449 -10.27403 -10.27374 -10.27156
 Alpha  occ. eigenvalues --  -10.27051 -10.26703 -10.26695 -10.26416 -10.26414
 Alpha  occ. eigenvalues --  -10.26233 -10.26184 -10.26136 -10.26026 -10.26019
 Alpha  occ. eigenvalues --  -10.25934 -10.25849 -10.25841 -10.25436 -10.25394
 Alpha  occ. eigenvalues --  -10.24873 -10.24832 -10.24787 -10.24730 -10.24690
 Alpha  occ. eigenvalues --  -10.24687  -3.16539  -3.16410  -1.91420  -1.91292
 Alpha  occ. eigenvalues --   -1.91007  -1.90881  -1.90849  -1.90718  -1.16645
 Alpha  occ. eigenvalues --   -1.16628  -1.08658  -1.08625  -1.07218  -1.06967
 Alpha  occ. eigenvalues --   -1.06947  -1.06638  -1.04580  -1.04495  -1.03760
 Alpha  occ. eigenvalues --   -1.03663  -1.03233  -1.03039  -1.02410  -1.02111
 Alpha  occ. eigenvalues --   -0.91987  -0.91971  -0.89519  -0.89494  -0.89186
 Alpha  occ. eigenvalues --   -0.89152  -0.88286  -0.88219  -0.87869  -0.87793
 Alpha  occ. eigenvalues --   -0.87684  -0.87672  -0.87274  -0.87121  -0.85001
 Alpha  occ. eigenvalues --   -0.84981  -0.83936  -0.83875  -0.82968  -0.82932
 Alpha  occ. eigenvalues --   -0.82653  -0.82648  -0.81597  -0.81583  -0.80595
 Alpha  occ. eigenvalues --   -0.80443  -0.78797  -0.78636  -0.77218  -0.77145
 Alpha  occ. eigenvalues --   -0.76932  -0.76899  -0.75921  -0.75839  -0.74897
 Alpha  occ. eigenvalues --   -0.74802  -0.72773  -0.72699  -0.71671  -0.71581
 Alpha  occ. eigenvalues --   -0.69907  -0.69757  -0.68872  -0.68828  -0.67640
 Alpha  occ. eigenvalues --   -0.67602  -0.67219  -0.67201  -0.65285  -0.65273
 Alpha  occ. eigenvalues --   -0.64852  -0.64770  -0.64654  -0.64619  -0.64269
 Alpha  occ. eigenvalues --   -0.64203  -0.62295  -0.62279  -0.60442  -0.60340
 Alpha  occ. eigenvalues --   -0.59803  -0.59797  -0.58993  -0.58986  -0.58503
 Alpha  occ. eigenvalues --   -0.58426  -0.57582  -0.57555  -0.57308  -0.57236
 Alpha  occ. eigenvalues --   -0.56309  -0.56204  -0.55975  -0.55887  -0.55520
 Alpha  occ. eigenvalues --   -0.55453  -0.55338  -0.55247  -0.54522  -0.54488
 Alpha  occ. eigenvalues --   -0.53914  -0.53893  -0.53298  -0.53228  -0.53221
 Alpha  occ. eigenvalues --   -0.53142  -0.52913  -0.52903  -0.52756  -0.52669
 Alpha  occ. eigenvalues --   -0.52438  -0.52400  -0.51913  -0.51884  -0.51660
 Alpha  occ. eigenvalues --   -0.51616  -0.51201  -0.51194  -0.50574  -0.50476
 Alpha  occ. eigenvalues --   -0.50031  -0.49980  -0.49919  -0.49867  -0.49514
 Alpha  occ. eigenvalues --   -0.49488  -0.49213  -0.49203  -0.49105  -0.49094
 Alpha  occ. eigenvalues --   -0.48591  -0.48559  -0.48461  -0.48445  -0.48375
 Alpha  occ. eigenvalues --   -0.48339  -0.47694  -0.47595  -0.47296  -0.47118
 Alpha  occ. eigenvalues --   -0.46796  -0.46709  -0.46555  -0.46554  -0.46358
 Alpha  occ. eigenvalues --   -0.46270  -0.46161  -0.46085  -0.45822  -0.45820
 Alpha  occ. eigenvalues --   -0.45208  -0.45201  -0.44576  -0.44514  -0.44507
 Alpha  occ. eigenvalues --   -0.44477  -0.44144  -0.44128  -0.44087  -0.44078
 Alpha  occ. eigenvalues --   -0.44018  -0.43940  -0.43554  -0.43492  -0.43386
 Alpha  occ. eigenvalues --   -0.43385  -0.43026  -0.42931  -0.42901  -0.42697
 Alpha  occ. eigenvalues --   -0.42653  -0.42553  -0.42008  -0.41964  -0.41703
 Alpha  occ. eigenvalues --   -0.41669  -0.41532  -0.41460  -0.41140  -0.40990
 Alpha  occ. eigenvalues --   -0.40868  -0.40824  -0.40723  -0.40699  -0.40571
 Alpha  occ. eigenvalues --   -0.40493  -0.40232  -0.40229  -0.39441  -0.39425
 Alpha  occ. eigenvalues --   -0.38468  -0.38350  -0.37747  -0.37655  -0.37320
 Alpha  occ. eigenvalues --   -0.37266  -0.37262  -0.37200  -0.36772  -0.36710
 Alpha  occ. eigenvalues --   -0.36217  -0.36191  -0.34285  -0.34254  -0.33863
 Alpha  occ. eigenvalues --   -0.33767  -0.33185  -0.33176  -0.31346  -0.31273
 Alpha  occ. eigenvalues --   -0.31035  -0.30973  -0.30027  -0.29955  -0.29449
 Alpha  occ. eigenvalues --   -0.29327  -0.29321  -0.29211  -0.24080  -0.24036
 Alpha  occ. eigenvalues --   -0.21127  -0.21117
 Alpha virt. eigenvalues --   -0.08792  -0.08774  -0.01749  -0.01684  -0.00058
 Alpha virt. eigenvalues --   -0.00029   0.02202   0.02207   0.03122   0.03226
 Alpha virt. eigenvalues --    0.04719   0.04729   0.05102   0.05164   0.06179

 Mulliken charges:
               1
     1  Mg   0.838675
     2  C   -0.002966
     3  C   -0.094120
     4  C   -0.045867
     5  C   -0.063960
     6  N   -0.256762
     7  C   -0.052471
     8  C   -0.014005
     9  C   -0.087007
    10  C    0.046317
    11  C    0.104815
    12  C    0.053463
    13  C   -0.071813
    14  H    0.036163
    15  N   -0.433127
    16  C    0.168427
    17  C   -0.177158
    18  C   -0.004025
    19  C    0.148705
    20  C    0.110179
    21  C    0.012273
    22  O   -0.249641
    23  C    0.062482
    24  N   -0.341133
    25  C    0.041228
    26  C   -0.028154
    27  C   -0.023990
    28  C    0.074858
    29  C    0.076168
    30  C    0.035125
    31  C   -0.004503
    32  N   -0.310471
    33  C    0.080427
    34  C   -0.169700
    35  C    0.008360
    36  C    0.083002
    37  C    0.127310
    38  C    0.046130
    39  O   -0.188397
    40  C   -0.005337
    41  C    0.212888
    42  O   -0.257096
    43  O   -0.304800
    44  C    0.157674
    45  H   -0.017610
    46  H   -0.016855
    47  H   -0.041483
    48  H    0.000953
    49  H   -0.004037
    50  H    0.025483
    51  H    0.016441
    52  H    0.016659
    53  H    0.011191
    54  H    0.044136
    55  H    0.017879
    56  H    0.017936
    57  H    0.005875
    58  H    0.026812
    59  H    0.039519
    60  H    0.037347
    61  H    0.035616
    62  H    0.031481
    63  H    0.016538
    64  H    0.009468
    65  H    0.023198
    66  H    0.012546
    67  H    0.004758
    68  H    0.006359
    69  H    0.004744
    70  H    0.008762
    71  H    0.018150
    72  H    0.028988
    73  H    0.047596
    74  H    0.009115
    75  H    0.046019
    76  H    0.035161
    77  H    0.042976
    78  H    0.046400
    79  H    0.053712
    80  Mg   0.837815
    81  C   -0.016816
    82  C   -0.087787
    83  C   -0.045458
    84  C   -0.064850
    85  N   -0.254562
    86  C   -0.049836
    87  C   -0.015094
    88  C   -0.090499
    89  C    0.045757
    90  C    0.114368
    91  C    0.062520
    92  C   -0.077882
    93  H    0.034885
    94  N   -0.423485
    95  C    0.162923
    96  C   -0.174616
    97  C   -0.007797
    98  C    0.152084
    99  C    0.099357
   100  C    0.015570
   101  O   -0.253161
   102  C    0.061200
   103  N   -0.350035
   104  C    0.037512
   105  C   -0.019853
   106  C   -0.034796
   107  C    0.088921
   108  C    0.073622
   109  C    0.034702
   110  C   -0.007680
   111  N   -0.324121
   112  C    0.078438
   113  C   -0.163113
   114  C    0.002250
   115  C    0.096195
   116  C    0.131487
   117  C    0.042404
   118  O   -0.187842
   119  C    0.000898
   120  C    0.211261
   121  O   -0.251029
   122  O   -0.305622
   123  C    0.152032
   124  H   -0.019668
   125  H   -0.015549
   126  H   -0.040417
   127  H   -0.000637
   128  H   -0.004347
   129  H    0.022489
   130  H    0.014457
   131  H    0.016268
   132  H    0.013915
   133  H    0.037681
   134  H    0.020784
   135  H    0.019578
   136  H    0.008750
   137  H    0.026156
   138  H    0.039785
   139  H    0.038254
   140  H    0.036405
   141  H    0.033885
   142  H    0.014400
   143  H    0.012475
   144  H    0.025159
   145  H    0.011660
   146  H    0.005737
   147  H    0.006292
   148  H    0.003679
   149  H    0.010932
   150  H    0.017939
   151  H    0.030086
   152  H    0.046009
   153  H    0.008536
   154  H    0.047009
   155  H    0.035054
   156  H    0.043918
   157  H    0.049478
   158  H    0.053579
 Sum of Mulliken charges =  -0.00000

 Dipole moment (field-independent basis, Debye):
    X=             -3.9099    Y=             -2.3474    Z=             -7.5953  Tot=              8.8593
 Quadrupole moment (field-independent basis, Debye-Ang):
   XX=           -516.4466   YY=           -545.1657   ZZ=           -453.7104
   XY=            -34.1270   XZ=             10.2649   YZ=            -42.4049

 Normal termination of Gaussian 16 at Sun Sep 12 19:03:32 2021.
