 Gaussian 16, Revision A.03,
 Gaussian 16:  ES64L-G16RevA.03 25-Dec-2016

 -----------------------------------
 #p cam-b3lyp/Def2SVP td=(nstates=5)
 -----------------------------------

 --------------------------------
 TDDFT excited states in gaussian
 --------------------------------
 Symbolic Z-matrix:
 Charge =  0 Multiplicity = 1

                         Standard orientation:
 ---------------------------------------------------------------------
 Center     Atomic      Atomic             Coordinates (Angstroms)
 Number     Number       Type             X           Y           Z
 ---------------------------------------------------------------------
      1         12           0       -6.690026   -0.384359    0.019369
      2          6           0       -6.687116    3.194937   -0.009767
      3          6           0       -7.507444   -0.262344   -3.291221
      4          6           0       -7.143487   -3.521131    0.127332
      5          6           0       -6.996395   -0.208844    3.486499
      6          7           0       -7.024874    1.311353   -1.363775
      7          6           0       -6.934227    2.633901   -1.264686
      8          6           0       -7.051614    3.365621   -2.635153
      9          6           0       -7.856798    2.253772   -3.445996
     10          6           0       -7.410160    1.022111   -2.678241
     11          6           0       -9.371253    2.386977   -3.322768
     12          6           0       -5.653122    3.645615   -3.281338
     13          6           0       -5.659552    4.636108   -4.449343
     14          1           0       -4.527806    5.536444   -4.610264
     15          7           0       -6.763493   -1.719056   -1.435292
     16          6           0       -7.099970   -1.490809   -2.727566
     17          6           0       -7.004304   -2.798772   -3.410766
     18          6           0       -6.769416   -3.839043   -2.371170
     19          6           0       -6.910685   -3.061408   -1.166718
     20          6           0       -7.084583   -2.958044   -4.898024
     21          6           0       -6.476189   -5.303922   -2.450416
     22          8           0       -6.536693   -6.066099   -1.425722
     23          6           0       -6.199031   -5.846733   -3.792646
     24          7           0       -7.242995   -1.687234    1.553766
     25          6           0       -7.310042   -3.007090    1.347688
     26          6           0       -7.445072   -3.755431    2.640627
     27          6           0       -7.211406   -2.681807    3.799284
     28          6           0       -7.054836   -1.416388    2.920381
     29          6           0       -8.787111   -4.465492    2.865914
     30          6           0       -6.107653   -2.998635    4.839365
     31          6           0       -4.749628   -2.957685    4.175144
     32          7           0       -6.643638    1.184411    1.518653
     33          6           0       -6.815023    1.033624    2.902331
     34          6           0       -6.810984    2.386735    3.488115
     35          6           0       -6.653113    3.237085    2.395491
     36          6           0       -6.590507    2.465562    1.200031
     37          6           0       -7.000377    2.700198    4.862998
     38          6           0       -6.547472    4.619379    1.957358
     39          8           0       -6.444787    5.705155    2.530105
     40          6           0       -6.687587    4.654452    0.371494
     41          6           0       -5.580523    5.521322   -0.163534
     42          8           0       -4.387758    5.166779   -0.068795
     43          8           0       -6.107127    6.506573   -0.906844
     44          6           0       -5.060281    7.386239   -1.492042
     45          1           0       -7.992519   -0.346786   -4.265651
     46          1           0       -7.195222   -4.607742    0.222398
     47          1           0       -7.002424   -0.080429    4.570439
     48          1           0       -7.623385    4.293381   -2.607518
     49          1           0       -7.531410    2.191758   -4.484264
     50          1           0       -9.646152    3.147592   -2.592141
     51          1           0       -9.724605    1.406506   -3.002907
     52          1           0       -9.825021    2.565535   -4.297955
     53          1           0       -5.310820    2.749885   -3.799563
     54          1           0       -4.940172    3.981635   -2.527601
     55          1           0       -6.597783    5.189569   -4.497428
     56          1           0       -5.632271    4.067890   -5.379173
     57          1           0       -7.425992   -2.043278   -5.380920
     58          1           0       -7.874110   -3.682020   -5.098558
     59          1           0       -6.145345   -3.310876   -5.324256
     60          1           0       -7.056074   -5.660444   -4.440196
     61          1           0       -5.923778   -6.890286   -3.644035
     62          1           0       -5.361426   -5.301097   -4.228132
     63          1           0       -6.690810   -4.537171    2.720609
     64          1           0       -8.107454   -2.527850    4.401007
     65          1           0       -8.690863   -5.536111    3.048170
     66          1           0       -9.420448   -4.271466    2.000737
     67          1           0       -9.391853   -4.054276    3.673754
     68          1           0       -6.239579   -4.003960    5.237941
     69          1           0       -6.098442   -2.306556    5.681501
     70          1           0       -4.662649   -3.951516    3.737462
     71          1           0       -3.968387   -2.787977    4.916812
     72          1           0       -4.728429   -2.238098    3.356467
     73          1           0       -6.260771    3.462807    5.106675
     74          1           0       -6.880586    1.817351    5.490561
     75          1           0       -8.027225    3.065153    4.847310
     76          1           0       -7.672232    5.066502    0.152840
     77          1           0       -5.287380    8.406040   -1.181128
     78          1           0       -5.040984    7.175751   -2.561494
     79          1           0       -4.052721    7.268573   -1.091647
     80         12           0        6.525370   -1.142324    0.223131
     81          6           0        7.489189    2.314050    0.283168
     82          6           0        6.653433   -0.964402   -3.180764
     83          6           0        5.246286   -4.044267    0.122462
     84          6           0        5.381917   -0.736546    3.490178
     85          7           0        7.020921    0.515837   -1.154254
     86          6           0        7.432032    1.767295   -1.015761
     87          6           0        7.879545    2.447287   -2.337472
     88          6           0        7.039608    1.546306   -3.367812
     89          6           0        6.922607    0.269915   -2.537252
     90          6           0        5.639544    2.076693   -3.628264
     91          6           0        9.423324    2.314847   -2.584891
     92          6           0        9.976835    3.215264   -3.691527
     93          1           0       11.315368    3.775808   -3.528423
     94          7           0        6.485341   -2.477963   -1.244187
     95          6           0        6.572439   -2.234517   -2.568735
     96          6           0        6.472281   -3.546620   -3.226400
     97          6           0        6.153680   -4.567119   -2.191121
     98          6           0        5.923864   -3.714277   -1.042246
     99          6           0        6.750654   -3.747730   -4.687723
    100          6           0        6.057589   -6.062221   -2.231820
    101          8           0        5.533707   -6.729676   -1.271150
    102          6           0        6.509639   -6.714771   -3.469282
    103          7           0        5.277590   -2.179075    1.523340
    104          6           0        4.912030   -3.447312    1.266682
    105          6           0        4.245905   -4.076538    2.466992
    106          6           0        4.458005   -3.041686    3.667697
    107          6           0        5.163314   -1.902989    2.898742
    108          6           0        2.755922   -4.382673    2.316540
    109          6           0        5.128490   -3.588350    4.957771
    110          6           0        6.569583   -3.948922    4.677419
    111          7           0        6.601819    0.418411    1.715212
    112          6           0        6.036753    0.389989    3.009035
    113          6           0        6.251177    1.723670    3.607158
    114          6           0        6.910993    2.448394    2.603217
    115          6           0        7.076845    1.630825    1.452757
    116          6           0        5.811989    2.137589    4.896310
    117          6           0        7.495443    3.722457    2.251262
    118          8           0        7.724797    4.769499    2.855274
    119          6           0        7.783177    3.731873    0.688081
    120          6           0        9.180947    4.245556    0.476164
    121          8           0       10.161090    3.596915    0.882583
    122          8           0        9.140781    5.301482   -0.356776
    123          6           0       10.504680    5.839342   -0.606416
    124          1           0        6.442236   -0.956600   -4.250448
    125          1           0        4.882033   -5.072560    0.180826
    126          1           0        5.141875   -0.560760    4.540969
    127          1           0        7.592052    3.487457   -2.433173
    128          1           0        7.602755    1.358486   -4.278279
    129          1           0        5.397984    2.909449   -2.984595
    130          1           0        4.970907    1.246844   -3.440293
    131          1           0        5.521413    2.325094   -4.686880
    132          1           0        9.632754    1.329928   -3.021718
    133          1           0        9.970256    2.480242   -1.677068
    134          1           0        9.265017    3.997990   -3.980674
    135          1           0       10.099321    2.616484   -4.597327
    136          1           0        6.797927   -2.791642   -5.223504
    137          1           0        5.877469   -4.254410   -5.112797
    138          1           0        7.636815   -4.360207   -4.867321
    139          1           0        5.933357   -6.334504   -4.309380
    140          1           0        6.447457   -7.787044   -3.273744
    141          1           0        7.553309   -6.434994   -3.651212
    142          1           0        4.720220   -5.015592    2.724491
    143          1           0        3.502120   -2.633129    4.027127
    144          1           0        2.509245   -5.447022    2.490847
    145          1           0        2.442834   -4.076871    1.327100
    146          1           0        2.097527   -3.799177    2.957834
    147          1           0        4.635322   -4.508715    5.280066
    148          1           0        5.091683   -2.894491    5.790964
    149          1           0        6.493808   -4.952226    4.247625
    150          1           0        7.148671   -3.956859    5.598634
    151          1           0        6.997279   -3.293093    3.910196
    152          1           0        6.630435    2.686664    5.342606
    153          1           0        5.521698    1.287012    5.509506
    154          1           0        4.954105    2.756694    4.620617
    155          1           0        7.035700    4.374472    0.221255
    156          1           0       10.482938    6.900916   -0.341322
    157          1           0       10.737240    5.587473   -1.658186
    158          1           0       11.308536    5.480001    0.025346
 ---------------------------------------------------------------------

 SCF Done:  E(RCAM-B3LYP) =  -4069.81162380     A.U. after   19 cycles

 Excitation energies and oscillator strengths:

 Excited State   1:      Singlet-A      1.6655 eV  744.44 nm  f=0.0074  <S**2>=0.000
     309 -> 315       -0.10934
     310 -> 316        0.13198
     311 -> 313       -0.43660
     312 -> 314        0.52993
 This state for optimization and/or second-order correction.
 Total Energy, E(TD-HF/TD-DFT) =  -4069.75041908
 Copying the excited state density for this state as the 1-particle RhoCI density.

 Excited State   2:      Singlet-A      1.6894 eV  733.91 nm  f=0.7363  <S**2>=0.000
     309 -> 315        0.13744
     310 -> 316        0.11260
     311 -> 313        0.52874
     312 -> 314        0.43569

 Excited State   3:      Singlet-A      2.1847 eV  567.52 nm  f=0.0477  <S**2>=0.000
     309 -> 313       -0.19041
     310 -> 314        0.61424
     312 -> 316       -0.25994

 Excited State   4:      Singlet-A      2.1935 eV  565.24 nm  f=0.1425  <S**2>=0.000
     309 -> 313        0.61184
     310 -> 314        0.18864
     311 -> 315       -0.26661

 Excited State   5:      Singlet-A      2.6570 eV  466.63 nm  f=0.0000  <S**2>=0.000
     312 -> 313        0.70707

 The electronic state is 1-A.
 Alpha  occ. eigenvalues --  -46.87828 -46.87551 -19.26302 -19.26254 -19.19063
 Alpha  occ. eigenvalues --  -19.19039 -19.18834 -19.18628 -19.18188 -19.17932
 Alpha  occ. eigenvalues --  -14.42482 -14.42391 -14.41482 -14.41249 -14.39433
 Alpha  occ. eigenvalues --  -14.39246 -14.38617 -14.38487 -10.39099 -10.38991
 Alpha  occ. eigenvalues --  -10.35467 -10.35307 -10.34409 -10.34109 -10.31694
 Alpha  occ. eigenvalues --  -10.31671 -10.31437 -10.31199 -10.30941 -10.30925
 Alpha  occ. eigenvalues --  -10.30601 -10.30536 -10.30286 -10.30249 -10.30240
 Alpha  occ. eigenvalues --  -10.30037 -10.29951 -10.29778 -10.29659 -10.29332
 Alpha  occ. eigenvalues --  -10.29294 -10.29284 -10.28787 -10.28626 -10.28593
 Alpha  occ. eigenvalues --  -10.28588 -10.28394 -10.28298 -10.28153 -10.28045
 Alpha  occ. eigenvalues --  -10.27891 -10.27820 -10.27760 -10.27613 -10.27566
 Alpha  occ. eigenvalues --  -10.27539 -10.27517 -10.27482 -10.27433 -10.27409
 Alpha  occ. eigenvalues --  -10.27400 -10.27376 -10.27364 -10.27263 -10.27181
 Alpha  occ. eigenvalues --  -10.26934 -10.26752 -10.26614 -10.26426 -10.26354
 Alpha  occ. eigenvalues --  -10.26267 -10.26236 -10.26052 -10.26044 -10.25922
 Alpha  occ. eigenvalues --  -10.25865 -10.25823 -10.25703 -10.25461 -10.25270
 Alpha  occ. eigenvalues --  -10.24859 -10.24817 -10.24758 -10.24756 -10.24645
 Alpha  occ. eigenvalues --  -10.24581  -3.16571  -3.16301  -1.91453  -1.91183
 Alpha  occ. eigenvalues --   -1.91039  -1.90881  -1.90772  -1.90609  -1.16651
 Alpha  occ. eigenvalues --   -1.16547  -1.08645  -1.08539  -1.07234  -1.06881
 Alpha  occ. eigenvalues --   -1.06847  -1.06661  -1.04613  -1.04389  -1.03792
 Alpha  occ. eigenvalues --   -1.03555  -1.03264  -1.02929  -1.02442  -1.02001
 Alpha  occ. eigenvalues --   -0.92000  -0.91876  -0.89556  -0.89388  -0.89225
 Alpha  occ. eigenvalues --   -0.89056  -0.88322  -0.88113  -0.87897  -0.87707
 Alpha  occ. eigenvalues --   -0.87671  -0.87580  -0.87302  -0.87031  -0.85018
 Alpha  occ. eigenvalues --   -0.84904  -0.83974  -0.83770  -0.82994  -0.82847
 Alpha  occ. eigenvalues --   -0.82680  -0.82560  -0.81611  -0.81494  -0.80624
 Alpha  occ. eigenvalues --   -0.80342  -0.78826  -0.78536  -0.77254  -0.77045
 Alpha  occ. eigenvalues --   -0.76969  -0.76799  -0.75953  -0.75738  -0.74930
 Alpha  occ. eigenvalues --   -0.74693  -0.72805  -0.72589  -0.71702  -0.71473
 Alpha  occ. eigenvalues --   -0.69951  -0.69656  -0.68907  -0.68731  -0.67669
 Alpha  occ. eigenvalues --   -0.67498  -0.67256  -0.67114  -0.65321  -0.65174
 Alpha  occ. eigenvalues --   -0.64884  -0.64665  -0.64653  -0.64553  -0.64305
 Alpha  occ. eigenvalues --   -0.64099  -0.62322  -0.62177  -0.60471  -0.60243
 Alpha  occ. eigenvalues --   -0.59838  -0.59696  -0.59018  -0.58885  -0.58533
 Alpha  occ. eigenvalues --   -0.58319  -0.57608  -0.57443  -0.57338  -0.57132
 Alpha  occ. eigenvalues --   -0.56338  -0.56100  -0.56004  -0.55791  -0.55547
 Alpha  occ. eigenvalues --   -0.55371  -0.55357  -0.55140  -0.54553  -0.54385
 Alpha  occ. eigenvalues --   -0.53931  -0.53818  -0.53328  -0.53252  -0.53127
 Alpha  occ. eigenvalues --   -0.53046  -0.52944  -0.52805  -0.52786  -0.52587
 Alpha  occ. eigenvalues --   -0.52483  -0.52304  -0.51939  -0.51751  -0.51649
 Alpha  occ. eigenvalues --   -0.51569  -0.51226  -0.51095  -0.50601  -0.50397
 Alpha  occ. eigenvalues --   -0.50070  -0.49947  -0.49886  -0.49764  -0.49544
 Alpha  occ. eigenvalues --   -0.49396  -0.49241  -0.49128  -0.49102  -0.48999
 Alpha  occ. eigenvalues --   -0.48620  -0.48490  -0.48468  -0.48455  -0.48265
 Alpha  occ. eigenvalues --   -0.48248  -0.47727  -0.47500  -0.47326  -0.47021
 Alpha  occ. eigenvalues --   -0.46832  -0.46606  -0.46591  -0.46461  -0.46390
 Alpha  occ. eigenvalues --   -0.46191  -0.46166  -0.45972  -0.45847  -0.45710
 Alpha  occ. eigenvalues --   -0.45234  -0.45099  -0.44603  -0.44541  -0.44412
 Alpha  occ. eigenvalues --   -0.44377  -0.44179  -0.44122  -0.44045  -0.44027
 Alpha  occ. eigenvalues --   -0.43980  -0.43844  -0.43520  -0.43452  -0.43420
 Alpha  occ. eigenvalues --   -0.43283  -0.43057  -0.42831  -0.42792  -0.42728
 Alpha  occ. eigenvalues --   -0.42688  -0.42453  -0.42048  -0.41866  -0.41733
 Alpha  occ. eigenvalues --   -0.41571  -0.41560  -0.41364  -0.41172  -0.40908
 Alpha  occ. eigenvalues --   -0.40884  -0.40849  -0.40637  -0.40607  -0.40607
 Alpha  occ. eigenvalues --   -0.40389  -0.40276  -0.40145  -0.39489  -0.39326
 Alpha  occ. eigenvalues --   -0.38506  -0.38245  -0.37789  -0.37566  -0.37355
 Alpha  occ. eigenvalues --   -0.37299  -0.37161  -0.37100  -0.36738  -0.36672
 Alpha  occ. eigenvalues --   -0.36222  -0.36113  -0.34317  -0.34145  -0.33791
 Alpha  occ. eigenvalues --   -0.33762  -0.33216  -0.33067  -0.31364  -0.31186
 Alpha  occ. eigenvalues --   -0.31065  -0.30866  -0.30048  -0.29836  -0.29476
 Alpha  occ. eigenvalues --   -0.29349  -0.29225  -0.29096  -0.24111  -0.23926
 Alpha  occ. eigenvalues --   -0.21159  -0.21009
 Alpha virt. eigenvalues --   -0.08803  -0.08684  -0.01780  -0.01577  -0.00084
 Alpha virt. eigenvalues --    0.00068   0.02176   0.02323   0.03082   0.03323
 Alpha virt. eigenvalues --    0.04682   0.04833   0.05078   0.05266   0.06134

 Mulliken charges:
               1
     1  Mg   0.838624
     2  C   -0.002967
     3  C   -0.094267
     4  C   -0.045805
     5  C   -0.064052
     6  N   -0.256769
     7  C   -0.052505
     8  C   -0.013989
     9  C   -0.086975
    10  C    0.046289
    11  C    0.104805
    12  C    0.053530
    13  C   -0.071665
    14  H    0.035838
    15  N   -0.433161
    16  C    0.168404
    17  C   -0.177218
    18  C   -0.003926
    19  C    0.148699
    20  C    0.110218
    21  C    0.012443
    22  O   -0.249395
    23  C    0.062439
    24  N   -0.341110
    25  C    0.041167
    26  C   -0.028210
    27  C   -0.023958
    28  C    0.074762
    29  C    0.076129
    30  C    0.035146
    31  C   -0.004492
    32  N   -0.310502
    33  C    0.080365
    34  C   -0.169729
    35  C    0.008454
    36  C    0.082968
    37  C    0.127300
    38  C    0.046201
    39  O   -0.188114
    40  C   -0.005373
    41  C    0.212945
    42  O   -0.257090
    43  O   -0.304802
    44  C    0.157587
    45  H   -0.017648
    46  H   -0.016714
    47  H   -0.041511
    48  H    0.001035
    49  H   -0.004216
    50  H    0.025564
    51  H    0.016508
    52  H    0.016633
    53  H    0.010934
    54  H    0.044149
    55  H    0.018047
    56  H    0.017698
    57  H    0.005728
    58  H    0.026901
    59  H    0.039339
    60  H    0.037233
    61  H    0.035982
    62  H    0.031407
    63  H    0.016584
    64  H    0.009578
    65  H    0.023329
    66  H    0.012616
    67  H    0.004800
    68  H    0.006448
    69  H    0.004719
    70  H    0.008935
    71  H    0.017320
    72  H    0.029036
    73  H    0.047740
    74  H    0.009007
    75  H    0.046128
    76  H    0.035214
    77  H    0.043193
    78  H    0.046168
    79  H    0.053878
    80  Mg   0.838099
    81  C   -0.016763
    82  C   -0.087944
    83  C   -0.045555
    84  C   -0.064332
    85  N   -0.254544
    86  C   -0.049570
    87  C   -0.015121
    88  C   -0.090580
    89  C    0.045844
    90  C    0.114424
    91  C    0.062595
    92  C   -0.077721
    93  H    0.034640
    94  N   -0.423439
    95  C    0.162863
    96  C   -0.175003
    97  C   -0.007994
    98  C    0.152021
    99  C    0.099565
   100  C    0.015367
   101  O   -0.253236
   102  C    0.061295
   103  N   -0.349972
   104  C    0.037591
   105  C   -0.019882
   106  C   -0.034847
   107  C    0.089058
   108  C    0.073618
   109  C    0.034713
   110  C   -0.007622
   111  N   -0.324247
   112  C    0.078635
   113  C   -0.162611
   114  C    0.002571
   115  C    0.096327
   116  C    0.131360
   117  C    0.042795
   118  O   -0.187541
   119  C    0.000746
   120  C    0.211190
   121  O   -0.251204
   122  O   -0.305518
   123  C    0.152108
   124  H   -0.020208
   125  H   -0.015635
   126  H   -0.040241
   127  H   -0.000545
   128  H   -0.004770
   129  H    0.023150
   130  H    0.014605
   131  H    0.015587
   132  H    0.013783
   133  H    0.037664
   134  H    0.020747
   135  H    0.019327
   136  H    0.008422
   137  H    0.025516
   138  H    0.039467
   139  H    0.037871
   140  H    0.036172
   141  H    0.033766
   142  H    0.014145
   143  H    0.012815
   144  H    0.025042
   145  H    0.011949
   146  H    0.005932
   147  H    0.006033
   148  H    0.003645
   149  H    0.010822
   150  H    0.017724
   151  H    0.030135
   152  H    0.045818
   153  H    0.008333
   154  H    0.048474
   155  H    0.035649
   156  H    0.043910
   157  H    0.049272
   158  H    0.053446
 Sum of Mulliken charges =  -0.00000

 Dipole moment (field-independent basis, Debye):
    X=             -3.3338    Y=             -2.2420    Z=             -7.9321  Tot=              8.8915
 Quadrupole moment (field-independent basis, Debye-Ang):
   XX=           -504.8651   YY=           -556.0135   ZZ=           -446.0949
   XY=             -3.7486   XZ=            -20.0160   YZ=            -38.6253

 Normal termination of Gaussian 16 at Sat Sep 11 08:43:44 2021.
