 Gaussian 16, Revision A.03,
 Gaussian 16:  ES64L-G16RevA.03 25-Dec-2016

 -----------------------------------
 #p cam-b3lyp/Def2SVP td=(nstates=5)
 -----------------------------------

 --------------------------------
 TDDFT excited states in gaussian
 --------------------------------
 Symbolic Z-matrix:
 Charge =  0 Multiplicity = 1

                         Standard orientation:
 ---------------------------------------------------------------------
 Center     Atomic      Atomic             Coordinates (Angstroms)
 Number     Number       Type             X           Y           Z
 ---------------------------------------------------------------------
      1         12           0       16.012774   -0.633422    0.100994
      2          6           0       16.194104    2.654429   -1.302349
      3          6           0       16.881461    0.757335    3.093358
      4          6           0       16.302986   -3.571442    1.258766
      5          6           0       16.279380   -1.873538   -3.145033
      6          7           0       16.453523    1.453373    0.694016
      7          6           0       16.429548    2.629078    0.074084
      8          6           0       16.603458    3.839936    1.038943
      9          6           0       17.361704    3.103706    2.232687
     10          6           0       16.841737    1.693294    2.017517
     11          6           0       18.879136    3.096676    2.078241
     12          6           0       15.230338    4.427901    1.508591
     13          6           0       15.303915    5.800597    2.183608
     14          1           0       14.222258    6.748510    1.962643
     15          7           0       16.037871   -1.277980    1.968282
     16          6           0       16.403613   -0.570704    3.064311
     17          6           0       16.250433   -1.489979    4.212419
     18          6           0       15.947955   -2.844924    3.673230
     19          6           0       16.112169   -2.621618    2.259531
     20          6           0       16.343155   -1.046032    5.640026
     21          6           0       15.581014   -4.138614    4.328862
     22          8           0       15.588000   -5.248628    3.694517
     23          6           0       15.295085   -4.084814    5.773989
     24          7           0       16.476651   -2.467810   -0.780751
     25          6           0       16.478690   -3.597080   -0.064002
     26          6           0       16.557067   -4.805479   -0.949195
     27          6           0       16.362717   -4.273230   -2.442075
     28          6           0       16.283614   -2.755774   -2.143180
     29          6           0       17.857595   -5.616015   -0.861625
     30          6           0       15.229754   -4.920469   -3.277477
     31          6           0       13.885018   -4.546224   -2.695476
     32          7           0       16.026117    0.206133   -1.900509
     33          6           0       16.170222   -0.493489   -3.107339
     34          6           0       16.227516    0.511262   -4.184957
     35          6           0       16.128777    1.734234   -3.524324
     36          6           0       16.043303    1.508789   -2.120699
     37          6           0       16.413569    0.239124   -5.569066
     38          6           0       16.100388    3.179956   -3.675776
     39          8           0       16.045626    3.950421   -4.635399
     40          6           0       16.264217    3.838011   -2.234959
     41          6           0       15.210704    4.903397   -2.099423
     42          8           0       14.000099    4.603856   -2.053862
     43          8           0       15.797527    6.074302   -1.807594
     44          6           0       14.805503    7.168265   -1.630713
     45          1           0       17.375099    1.043654    4.024102
     46          1           0       16.297515   -4.606686    1.606153
     47          1           0       16.276883   -2.189202   -4.189927
     48          1           0       17.221683    4.647956    0.647375
     49          1           0       17.048069    3.478720    3.206710
     50          1           0       19.182522    3.486596    1.106727
     51          1           0       19.177170    2.052925    2.179492
     52          1           0       19.355029    3.625666    2.904360
     53          1           0       14.849743    3.833037    2.338859
     54          1           0       14.525147    4.471979    0.677876
     55          1           0       16.269912    6.276973    2.013834
     56          1           0       15.260455    5.653290    3.262780
     57          1           0       16.737795   -0.033891    5.719862
     58          1           0       17.097177   -1.670158    6.119219
     59          1           0       15.393070   -1.149301    6.164437
     60          1           0       16.169511   -3.700826    6.299804
     61          1           0       14.964555   -5.084815    6.052555
     62          1           0       14.492763   -3.367387    5.948707
     63          1           0       15.762609   -5.513220   -0.716032
     64          1           0       17.257011   -4.419798   -3.048235
     65          1           0       17.703956   -6.663650   -0.601701
     66          1           0       18.512062   -5.126256   -0.141139
     67          1           0       18.471336   -5.594096   -1.761769
     68          1           0       15.304303   -6.006745   -3.240169
     69          1           0       15.244358   -4.622853   -4.326029
     70          1           0       13.753223   -5.276487   -1.897869
     71          1           0       13.103259   -4.645953   -3.449212
     72          1           0       13.912221   -3.559537   -2.232664
     73          1           0       15.710780    0.878752   -6.102857
     74          1           0       16.239855   -0.813245   -5.792552
     75          1           0       17.457925    0.525362   -5.692538
     76          1           0       17.271679    4.250632   -2.191518
     77          1           0       15.080321    7.965546   -2.321403
     78          1           0       14.790335    7.403721   -0.566413
     79          1           0       13.787745    6.953714   -1.958547
     80         12           0      -15.737417   -0.825254    0.132508
     81          6           0      -17.840181    2.061635   -0.218716
     82          6           0      -13.295900    1.274845    1.256417
     83          6           0      -13.721562   -3.273253    0.027366
     84          6           0      -17.890304   -2.486553   -2.047141
     85          7           0      -15.694174    1.365243    0.436048
     86          6           0      -16.572195    2.350923    0.327126
     87          6           0      -16.090514    3.708255    0.906079
     88          6           0      -14.506506    3.468066    0.796044
     89          6           0      -14.484960    1.942646    0.868756
     90          6           0      -13.925304    3.890682   -0.542960
     91          6           0      -16.537991    3.915254    2.395677
     92          6           0      -16.370821    5.341253    2.925141
     93          1           0      -17.362263    5.854995    3.866211
     94          7           0      -13.979228   -1.079982    1.017059
     95          6           0      -13.127746   -0.116823    1.427638
     96          6           0      -11.967794   -0.820837    1.996014
     97          6           0      -12.130583   -2.277443    1.738091
     98          6           0      -13.298712   -2.264373    0.880542
     99          6           0      -10.890328   -0.119924    2.771384
    100          6           0      -11.354754   -3.481708    2.178591
    101          8           0      -11.533869   -4.631576    1.641408
    102          6           0      -10.313783   -3.256272    3.192022
    103          7           0      -15.673871   -2.550686   -1.025592
    104          6           0      -14.718905   -3.477519   -0.833392
    105          6           0      -15.033530   -4.748915   -1.585020
    106          6           0      -16.526008   -4.567564   -2.130193
    107          6           0      -16.795450   -3.123115   -1.654410
    108          6           0      -14.102660   -5.079878   -2.751354
    109          6           0      -17.551282   -5.672578   -1.755452
    110          6           0      -17.820341   -5.644023   -0.268109
    111          7           0      -17.636481   -0.397351   -0.804800
    112          6           0      -18.349620   -1.221794   -1.702461
    113          6           0      -19.526140   -0.453420   -2.158367
    114          6           0      -19.402470    0.783025   -1.506883
    115          6           0      -18.220803    0.792361   -0.717547
    116          6           0      -20.500166   -0.901061   -3.094844
    117          6           0      -19.997242    2.086255   -1.315752
    118          8           0      -21.050479    2.619694   -1.661996
    119          6           0      -18.945519    3.017604   -0.572231
    120          6           0      -19.657154    3.713714    0.555390
    121          8           0      -20.103938    3.064410    1.517357
    122          8           0      -19.502453    5.043406    0.419947
    123          6           0      -20.181508    5.776896    1.521172
    124          1           0      -12.392491    1.867362    1.403570
    125          1           0      -13.118801   -4.184303    0.039263
    126          1           0      -18.661688   -2.969660   -2.650674
    127          1           0      -16.376107    4.576936    0.325043
    128          1           0      -13.981905    3.897733    1.645489
    129          1           0      -14.695344    4.174158   -1.244968
    130          1           0      -13.376498    3.032972   -0.909311
    131          1           0      -13.185225    4.683152   -0.399425
    132          1           0      -15.838985    3.386395    3.056321
    133          1           0      -17.551517    3.593734    2.537219
    134          1           0      -16.197143    6.062999    2.117764
    135          1           0      -15.457873    5.384248    3.524050
    136          1           0      -10.953758    0.968925    2.654009
    137          1           0       -9.935593   -0.388109    2.306168
    138          1           0      -10.866968   -0.416245    3.822249
    139          1           0       -9.594434   -2.532643    2.816056
    140          1           0       -9.930933   -4.247349    3.443166
    141          1           0      -10.778470   -2.807453    4.077027
    142          1           0      -15.002551   -5.606540   -0.924250
    143          1           0      -16.558656   -4.547576   -3.229452
    144          1           0      -13.624071   -6.073149   -2.659528
    145          1           0      -13.353945   -4.302070   -2.821837
    146          1           0      -14.565640   -5.044792   -3.736050
    147          1           0      -17.141202   -6.660803   -1.977747
    148          1           0      -18.492449   -5.587174   -2.288273
    149          1           0      -16.989211   -6.223934    0.144198
    150          1           0      -18.777219   -6.110609   -0.042887
    151          1           0      -17.739110   -4.624744    0.127032
    152          1           0      -21.466160   -0.616646   -2.699298
    153          1           0      -20.435204   -1.975539   -3.253110
    154          1           0      -20.193947   -0.336578   -3.979630
    155          1           0      -18.555161    3.722619   -1.307187
    156          1           0      -20.870970    6.487159    1.054421
    157          1           0      -19.370311    6.197813    2.144487
    158          1           0      -20.855406    5.214681    2.156963
 ---------------------------------------------------------------------

 SCF Done:  E(RCAM-B3LYP) =  -4069.81177677     A.U. after   19 cycles

 Excitation energies and oscillator strengths:

 Excited State   1:      Singlet-A      1.6755 eV  739.97 nm  f=0.3515  <S**2>=0.000
     310 -> 316        0.17244
     312 -> 314        0.68144
     310 <- 316        0.10394
 This state for optimization and/or second-order correction.
 Total Energy, E(TD-HF/TD-DFT) =  -4069.75020220
 Copying the excited state density for this state as the 1-particle RhoCI density.

 Excited State   2:      Singlet-A      1.6799 eV  738.05 nm  f=0.4295  <S**2>=0.000
     309 -> 315        0.17440
     311 -> 313        0.68109
     309 <- 315        0.10444

 Excited State   3:      Singlet-A      2.1861 eV  567.14 nm  f=0.0951  <S**2>=0.000
     310 -> 314        0.64210
     312 -> 316       -0.27296

 Excited State   4:      Singlet-A      2.1926 eV  565.47 nm  f=0.1050  <S**2>=0.000
     309 -> 313        0.64032
     311 -> 315       -0.27817

 Excited State   5:      Singlet-A      3.0617 eV  404.96 nm  f=0.0000  <S**2>=0.000
     312 -> 313        0.70710

 The electronic state is 1-A.
 Alpha  occ. eigenvalues --  -46.87816 -46.87660 -19.26351 -19.26309 -19.19163
 Alpha  occ. eigenvalues --  -19.19044 -19.18833 -19.18712 -19.18190 -19.18052
 Alpha  occ. eigenvalues --  -14.42497 -14.42469 -14.41468 -14.41359 -14.39422
 Alpha  occ. eigenvalues --  -14.39352 -14.38606 -14.38600 -10.39103 -10.39092
 Alpha  occ. eigenvalues --  -10.35466 -10.35389 -10.34410 -10.34229 -10.31759
 Alpha  occ. eigenvalues --  -10.31705 -10.31425 -10.31309 -10.31022 -10.30929
 Alpha  occ. eigenvalues --  -10.30589 -10.30526 -10.30398 -10.30361 -10.30225
 Alpha  occ. eigenvalues --  -10.30140 -10.29939 -10.29895 -10.29650 -10.29436
 Alpha  occ. eigenvalues --  -10.29401 -10.29273 -10.28770 -10.28718 -10.28655
 Alpha  occ. eigenvalues --  -10.28564 -10.28404 -10.28384 -10.28139 -10.28137
 Alpha  occ. eigenvalues --  -10.28001 -10.27812 -10.27746 -10.27668 -10.27603
 Alpha  occ. eigenvalues --  -10.27518 -10.27517 -10.27500 -10.27483 -10.27466
 Alpha  occ. eigenvalues --  -10.27466 -10.27462 -10.27423 -10.27375 -10.27179
 Alpha  occ. eigenvalues --  -10.27051 -10.26729 -10.26693 -10.26427 -10.26411
 Alpha  occ. eigenvalues --  -10.26253 -10.26200 -10.26139 -10.26038 -10.26022
 Alpha  occ. eigenvalues --  -10.25934 -10.25862 -10.25853 -10.25450 -10.25395
 Alpha  occ. eigenvalues --  -10.24873 -10.24852 -10.24806 -10.24733 -10.24704
 Alpha  occ. eigenvalues --  -10.24689  -3.16559  -3.16410  -1.91440  -1.91292
 Alpha  occ. eigenvalues --   -1.91027  -1.90881  -1.90869  -1.90718  -1.16657
 Alpha  occ. eigenvalues --   -1.16646  -1.08659  -1.08648  -1.07234  -1.06964
 Alpha  occ. eigenvalues --   -1.06947  -1.06666  -1.04600  -1.04495  -1.03779
 Alpha  occ. eigenvalues --   -1.03663  -1.03253  -1.03038  -1.02430  -1.02111
 Alpha  occ. eigenvalues --   -0.91992  -0.91987  -0.89538  -0.89494  -0.89209
 Alpha  occ. eigenvalues --   -0.89150  -0.88304  -0.88220  -0.87889  -0.87794
 Alpha  occ. eigenvalues --   -0.87692  -0.87684  -0.87293  -0.87118  -0.85003
 Alpha  occ. eigenvalues --   -0.84999  -0.83954  -0.83876  -0.82985  -0.82930
 Alpha  occ. eigenvalues --   -0.82669  -0.82652  -0.81607  -0.81597  -0.80617
 Alpha  occ. eigenvalues --   -0.80443  -0.78816  -0.78635  -0.77238  -0.77144
 Alpha  occ. eigenvalues --   -0.76955  -0.76898  -0.75944  -0.75838  -0.74916
 Alpha  occ. eigenvalues --   -0.74802  -0.72793  -0.72699  -0.71691  -0.71580
 Alpha  occ. eigenvalues --   -0.69924  -0.69758  -0.68893  -0.68827  -0.67660
 Alpha  occ. eigenvalues --   -0.67601  -0.67241  -0.67199  -0.65307  -0.65271
 Alpha  occ. eigenvalues --   -0.64873  -0.64770  -0.64654  -0.64641  -0.64287
 Alpha  occ. eigenvalues --   -0.64204  -0.62319  -0.62279  -0.60460  -0.60338
 Alpha  occ. eigenvalues --   -0.59824  -0.59796  -0.59007  -0.58993  -0.58523
 Alpha  occ. eigenvalues --   -0.58426  -0.57605  -0.57555  -0.57328  -0.57236
 Alpha  occ. eigenvalues --   -0.56329  -0.56204  -0.56001  -0.55887  -0.55539
 Alpha  occ. eigenvalues --   -0.55451  -0.55358  -0.55248  -0.54544  -0.54488
 Alpha  occ. eigenvalues --   -0.53916  -0.53912  -0.53318  -0.53242  -0.53227
 Alpha  occ. eigenvalues --   -0.53141  -0.52935  -0.52902  -0.52775  -0.52666
 Alpha  occ. eigenvalues --   -0.52456  -0.52402  -0.51934  -0.51886  -0.51658
 Alpha  occ. eigenvalues --   -0.51637  -0.51216  -0.51202  -0.50591  -0.50473
 Alpha  occ. eigenvalues --   -0.50049  -0.49978  -0.49937  -0.49866  -0.49534
 Alpha  occ. eigenvalues --   -0.49486  -0.49234  -0.49202  -0.49116  -0.49104
 Alpha  occ. eigenvalues --   -0.48613  -0.48558  -0.48479  -0.48465  -0.48376
 Alpha  occ. eigenvalues --   -0.48337  -0.47714  -0.47594  -0.47316  -0.47117
 Alpha  occ. eigenvalues --   -0.46816  -0.46709  -0.46576  -0.46553  -0.46378
 Alpha  occ. eigenvalues --   -0.46270  -0.46182  -0.46086  -0.45842  -0.45823
 Alpha  occ. eigenvalues --   -0.45219  -0.45208  -0.44598  -0.44526  -0.44514
 Alpha  occ. eigenvalues --   -0.44476  -0.44163  -0.44127  -0.44108  -0.44078
 Alpha  occ. eigenvalues --   -0.44039  -0.43938  -0.43554  -0.43516  -0.43405
 Alpha  occ. eigenvalues --   -0.43385  -0.43046  -0.42931  -0.42902  -0.42720
 Alpha  occ. eigenvalues --   -0.42674  -0.42553  -0.42028  -0.41965  -0.41723
 Alpha  occ. eigenvalues --   -0.41669  -0.41554  -0.41458  -0.41160  -0.40989
 Alpha  occ. eigenvalues --   -0.40889  -0.40842  -0.40721  -0.40697  -0.40589
 Alpha  occ. eigenvalues --   -0.40493  -0.40256  -0.40226  -0.39458  -0.39426
 Alpha  occ. eigenvalues --   -0.38487  -0.38350  -0.37770  -0.37654  -0.37338
 Alpha  occ. eigenvalues --   -0.37284  -0.37266  -0.37199  -0.36773  -0.36735
 Alpha  occ. eigenvalues --   -0.36217  -0.36213  -0.34305  -0.34253  -0.33863
 Alpha  occ. eigenvalues --   -0.33794  -0.33206  -0.33175  -0.31362  -0.31271
 Alpha  occ. eigenvalues --   -0.31055  -0.30972  -0.30049  -0.29956  -0.29468
 Alpha  occ. eigenvalues --   -0.29341  -0.29326  -0.29211  -0.24100  -0.24036
 Alpha  occ. eigenvalues --   -0.21147  -0.21117
 Alpha virt. eigenvalues --   -0.08793  -0.08791  -0.01768  -0.01683  -0.00077
 Alpha virt. eigenvalues --   -0.00028   0.02181   0.02207   0.03103   0.03226
 Alpha virt. eigenvalues --    0.04698   0.04730   0.05075   0.05164   0.06154

 Mulliken charges:
               1
     1  Mg   0.838746
     2  C   -0.002981
     3  C   -0.094144
     4  C   -0.045858
     5  C   -0.063943
     6  N   -0.256791
     7  C   -0.052475
     8  C   -0.014024
     9  C   -0.086988
    10  C    0.046326
    11  C    0.104807
    12  C    0.053471
    13  C   -0.071776
    14  H    0.036037
    15  N   -0.433144
    16  C    0.168408
    17  C   -0.177140
    18  C   -0.003999
    19  C    0.148706
    20  C    0.110172
    21  C    0.012282
    22  O   -0.249584
    23  C    0.062478
    24  N   -0.341145
    25  C    0.041232
    26  C   -0.028197
    27  C   -0.023982
    28  C    0.074840
    29  C    0.076165
    30  C    0.035134
    31  C   -0.004511
    32  N   -0.310470
    33  C    0.080403
    34  C   -0.169724
    35  C    0.008357
    36  C    0.082972
    37  C    0.127316
    38  C    0.046102
    39  O   -0.188464
    40  C   -0.005317
    41  C    0.212861
    42  O   -0.257151
    43  O   -0.304773
    44  C    0.157716
    45  H   -0.017591
    46  H   -0.016803
    47  H   -0.041473
    48  H    0.000943
    49  H   -0.004048
    50  H    0.025482
    51  H    0.016472
    52  H    0.016672
    53  H    0.011187
    54  H    0.044084
    55  H    0.017900
    56  H    0.017947
    57  H    0.005871
    58  H    0.026860
    59  H    0.039533
    60  H    0.037363
    61  H    0.035685
    62  H    0.031470
    63  H    0.016573
    64  H    0.009484
    65  H    0.023248
    66  H    0.012552
    67  H    0.004776
    68  H    0.006406
    69  H    0.004736
    70  H    0.008798
    71  H    0.018145
    72  H    0.028944
    73  H    0.047546
    74  H    0.009126
    75  H    0.046027
    76  H    0.035166
    77  H    0.042946
    78  H    0.046392
    79  H    0.053629
    80  Mg   0.837802
    81  C   -0.016783
    82  C   -0.087753
    83  C   -0.045471
    84  C   -0.064900
    85  N   -0.254557
    86  C   -0.049883
    87  C   -0.015060
    88  C   -0.090526
    89  C    0.045755
    90  C    0.114354
    91  C    0.062509
    92  C   -0.077894
    93  H    0.034866
    94  N   -0.423490
    95  C    0.162909
    96  C   -0.174566
    97  C   -0.007787
    98  C    0.152117
    99  C    0.099342
   100  C    0.015597
   101  O   -0.253154
   102  C    0.061190
   103  N   -0.350058
   104  C    0.037516
   105  C   -0.019851
   106  C   -0.034818
   107  C    0.088953
   108  C    0.073645
   109  C    0.034738
   110  C   -0.007682
   111  N   -0.324111
   112  C    0.078441
   113  C   -0.163144
   114  C    0.002228
   115  C    0.096163
   116  C    0.131496
   117  C    0.042374
   118  O   -0.187915
   119  C    0.000901
   120  C    0.211261
   121  O   -0.251031
   122  O   -0.305622
   123  C    0.152035
   124  H   -0.019593
   125  H   -0.015533
   126  H   -0.040468
   127  H   -0.000644
   128  H   -0.004311
   129  H    0.022462
   130  H    0.014476
   131  H    0.016345
   132  H    0.013915
   133  H    0.037667
   134  H    0.020809
   135  H    0.019601
   136  H    0.008791
   137  H    0.026256
   138  H    0.039787
   139  H    0.038327
   140  H    0.036429
   141  H    0.033861
   142  H    0.014405
   143  H    0.012429
   144  H    0.025171
   145  H    0.011691
   146  H    0.005691
   147  H    0.006275
   148  H    0.003635
   149  H    0.010940
   150  H    0.017916
   151  H    0.030098
   152  H    0.045982
   153  H    0.008502
   154  H    0.046941
   155  H    0.035040
   156  H    0.043906
   157  H    0.049500
   158  H    0.053565
 Sum of Mulliken charges =  -0.00000

 Dipole moment (field-independent basis, Debye):
    X=              6.2092    Y=              1.6227    Z=              4.7122  Tot=              7.9619
 Quadrupole moment (field-independent basis, Debye-Ang):
   XX=           -596.9908   YY=           -496.2622   ZZ=           -493.4892
   XY=              6.3053   XZ=             63.0081   YZ=             54.8889

 Normal termination of Gaussian 16 at Sun Sep 12 21:17:18 2021.
