 Gaussian 16, Revision A.03,
 Gaussian 16:  ES64L-G16RevA.03 25-Dec-2016

 -----------------------------------
 #p cam-b3lyp/Def2SVP td=(nstates=5)
 -----------------------------------

 --------------------------------
 TDDFT excited states in gaussian
 --------------------------------
 Symbolic Z-matrix:
 Charge =  0 Multiplicity = 1

                         Standard orientation:
 ---------------------------------------------------------------------
 Center     Atomic      Atomic             Coordinates (Angstroms)
 Number     Number       Type             X           Y           Z
 ---------------------------------------------------------------------
      1         12           0        8.190557    0.430023    0.718745
      2          6           0        8.499832   -2.563838   -1.218613
      3          6           0        9.267682    2.142223   -2.029207
      4          6           0        8.361054    3.023375    2.535907
      5          6           0        8.243378   -1.581599    3.564135
      6          7           0        8.776368   -0.237753   -1.308950
      7          6           0        8.793226   -1.406167   -1.942743
      8          6           0        9.078595   -1.277097   -3.468941
      9          6           0        9.844456    0.121272   -3.464452
     10          6           0        9.235122    0.727917   -2.212806
     11          6           0       11.350775   -0.009695   -3.263570
     12          6           0        7.763461   -1.207293   -4.315866
     13          6           0        7.945453   -1.408705   -5.823071
     14          1           0        6.911660   -2.114346   -6.565156
     15          7           0        8.259849    2.340680    0.221312
     16          6           0        8.713224    2.857711   -0.945914
     17          6           0        8.557498    4.323664   -0.830095
     18          6           0        8.154152    4.629138    0.570652
     19          6           0        8.269161    3.328835    1.180047
     20          6           0        8.737842    5.263839   -1.982179
     21          6           0        7.742152    5.894429    1.254337
     22          8           0        7.657437    5.983423    2.526924
     23          6           0        7.523100    7.067474    0.388875
     24          7           0        8.508969    0.713679    2.762219
     25          6           0        8.477132    1.936906    3.302299
     26          6           0        8.447006    1.871645    4.800555
     27          6           0        8.218754    0.335428    5.171623
     28          6           0        8.240411   -0.258506    3.741573
     29          6           0        9.701202    2.389131    5.518337
     30          6           0        7.014995    0.005036    6.089350
     31          6           0        5.720745    0.286850    5.359558
     32          7           0        8.164996   -1.700709    1.131506
     33          6           0        8.215742   -2.316292    2.390536
     34          6           0        8.283837   -3.770696    2.157856
     35          6           0        8.284701   -3.900178    0.770384
     36          6           0        8.247663   -2.607400    0.174025
     37          6           0        8.393345   -4.771308    3.163450
     38          6           0        8.333162   -4.828977   -0.347131
     39          8           0        8.281128   -6.054660   -0.458878
     40          6           0        8.597351   -3.997039   -1.679014
     41          6           0        7.613951   -4.471594   -2.713920
     42          8           0        6.391226   -4.262200   -2.578041
     43          8           0        8.279496   -4.881750   -3.804500
     44          6           0        7.360876   -5.338058   -4.881567
     45          1           0        9.817131    2.755073   -2.746467
     46          1           0        8.311041    3.887263    3.201966
     47          1           0        8.177112   -2.275157    4.404397
     48          1           0        9.724726   -2.054121   -3.877808
     49          1           0        9.595749    0.724274   -4.337525
     50          1           0       11.633486   -1.035424   -3.027193
     51          1           0       11.592248    0.652953   -2.432257
     52          1           0       11.891959    0.381445   -4.125490
     53          1           0        7.385764   -0.184862   -4.309591
     54          1           0        7.026429   -1.919573   -3.943352
     55          1           0        8.928992   -1.818570   -6.054525
     56          1           0        7.940675   -0.429306   -6.301563
     57          1           0        9.193305    4.766393   -2.837542
     58          1           0        9.474793    6.005767   -1.675333
     59          1           0        7.807158    5.761308   -2.255464
     60          1           0        8.440314    7.287737   -0.157706
     61          1           0        7.147909    7.855938    1.040340
     62          1           0        6.771874    6.817697   -0.360939
     63          1           0        7.623978    2.461998    5.201223
     64          1           0        9.075819   -0.091020    5.693404
     65          1           0        9.498880    3.187800    6.232409
     66          1           0       10.413624    2.713462    4.760342
     67          1           0       10.275344    1.625827    6.042880
     68          1           0        7.028326    0.639079    6.975215
     69          1           0        7.000997   -1.032263    6.424113
     70          1           0        5.581963    1.356269    5.514200
     71          1           0        4.902409   -0.281219    5.803218
     72          1           0        5.824967    0.123570    4.286728
     73          1           0        7.706006   -5.567465    2.877674
     74          1           0        8.149645   -4.371910    4.147672
     75          1           0        9.446090   -5.037396    3.069748
     76          1           0        9.627867   -4.194367   -1.972646
     77          1           0        7.650834   -6.356398   -5.140683
     78          1           0        7.405742   -4.583738   -5.667311
     79          1           0        6.319110   -5.487187   -4.595519
     80         12           0       -7.653173    0.566082   -0.344597
     81          6           0      -10.271086   -1.736547    0.505968
     82          6           0      -10.092212    2.780566   -1.228757
     83          6           0       -5.382933    2.443903   -1.522399
     84          6           0       -5.489113   -2.162045   -0.485613
     85          7           0       -9.860331    0.424488   -0.318783
     86          6           0      -10.743864   -0.476807    0.082914
     87          6           0      -12.212068    0.026683    0.104084
     88          6           0      -12.077848    1.204970   -0.978728
     89          6           0      -10.592677    1.520699   -0.813562
     90          6           0      -12.311345    0.739746   -2.406451
     91          6           0      -12.632866    0.583289    1.509487
     92          6           0      -14.136287    0.804705    1.689632
     93          1           0      -14.724621    0.552502    3.002159
     94          7           0       -7.685746    2.501856   -0.780788
     95          6           0       -8.766269    3.247413   -1.093664
     96          6           0       -8.258495    4.604187   -1.349572
     97          6           0       -6.771156    4.561115   -1.323258
     98          6           0       -6.550505    3.132126   -1.226313
     99          6           0       -9.160037    5.793862   -1.508683
    100          6           0       -5.721002    5.628374   -1.389015
    101          8           0       -4.486730    5.347091   -1.589743
    102          6           0       -6.192680    7.018311   -1.304807
    103          7           0       -5.766932    0.176961   -1.127568
    104          6           0       -4.961136    1.179229   -1.520094
    105          6           0       -3.560939    0.680689   -1.787159
    106          6           0       -3.533719   -0.828010   -1.257398
    107          6           0       -5.013027   -0.975996   -0.838889
    108          6           0       -3.109606    0.715382   -3.247122
    109          6           0       -2.433119   -1.191024   -0.223198
    110          6           0       -2.691746   -0.470175    1.080208
    111          7           0       -7.771164   -1.538867    0.127965
    112          6           0       -6.755280   -2.506860   -0.030304
    113          6           0       -7.344024   -3.816592    0.316701
    114          6           0       -8.678436   -3.520442    0.633104
    115          6           0       -8.910637   -2.127548    0.473691
    116          6           0       -6.672038   -5.070385    0.266069
    117          6           0       -9.946204   -4.070970    1.055459
    118          8           0      -10.331952   -5.179045    1.425746
    119          6           0      -11.066883   -2.959190    0.869962
    120          6           0      -11.887173   -2.911777    2.129883
    121          8           0      -11.377473   -2.542317    3.202403
    122          8           0      -13.182803   -3.099891    1.819473
    123          6           0      -14.037846   -3.050381    3.035310
    124          1           0      -10.767991    3.462538   -1.745590
    125          1           0       -4.535443    3.062301   -1.827055
    126          1           0       -4.853865   -3.047163   -0.410100
    127          1           0      -12.945976   -0.699076   -0.225196
    128          1           0      -12.683311    2.064777   -0.703950
    129          1           0      -12.412932   -0.333531   -2.468934
    130          1           0      -11.448342    1.071463   -2.968796
    131          1           0      -13.170593    1.261700   -2.837233
    132          1           0      -12.277763    1.617375    1.606027
    133          1           0      -12.263763   -0.047049    2.295021
    134          1           0      -14.722506    0.311779    0.904569
    135          1           0      -14.349001    1.868054    1.555238
    136          1           0      -10.205450    5.490907   -1.645551
    137          1           0       -8.890534    6.274989   -2.455115
    138          1           0       -9.047962    6.518520   -0.699363
    139          1           0       -6.895031    7.210871   -2.112334
    140          1           0       -5.290215    7.632139   -1.279389
    141          1           0       -6.747795    7.143258   -0.368401
    142          1           0       -2.831996    1.260467   -1.234340
    143          1           0       -3.365369   -1.544044   -2.075194
    144          1           0       -2.185369    1.302848   -3.404406
    145          1           0       -3.918986    1.112454   -3.845254
    146          1           0       -2.942724   -0.259432   -3.702186
    147          1           0       -1.455633   -0.853157   -0.576069
    148          1           0       -2.355604   -2.255890   -0.030746
    149          1           0       -2.254598    0.517716    0.906809
    150          1           0       -2.198510   -0.980836    1.904807
    151          1           0       -3.766268   -0.330615    1.246281
    152          1           0       -6.944880   -5.606394    1.165380
    153          1           0       -5.594349   -4.941121    0.190868
    154          1           0       -7.100728   -5.484564   -0.650414
    155          1           0      -11.665345   -3.238877    0.002101
    156          1           0      -14.604679   -3.986050    3.065585
    157          1           0      -14.618343   -2.112190    2.954302
    158          1           0      -13.541435   -3.072587    3.998390
 ---------------------------------------------------------------------

 SCF Done:  E(RCAM-B3LYP) =  -4069.81191657     A.U. after   19 cycles

 Excitation energies and oscillator strengths:

 Excited State   1:      Singlet-A      1.6693 eV  742.74 nm  f=0.0201  <S**2>=0.000
     309 -> 315       -0.10204
     310 -> 316        0.13892
     311 -> 313       -0.40483
     312 -> 314        0.55428
 This state for optimization and/or second-order correction.
 Total Energy, E(TD-HF/TD-DFT) =  -4069.75057182
 Copying the excited state density for this state as the 1-particle RhoCI density.

 Excited State   2:      Singlet-A      1.6854 eV  735.63 nm  f=0.7355  <S**2>=0.000
     309 -> 315        0.14303
     310 -> 316        0.10387
     311 -> 313        0.55345
     312 -> 314        0.40430

 Excited State   3:      Singlet-A      2.1855 eV  567.29 nm  f=0.1032  <S**2>=0.000
     310 -> 314        0.64206
     312 -> 316       -0.27261

 Excited State   4:      Singlet-A      2.1932 eV  565.31 nm  f=0.0986  <S**2>=0.000
     309 -> 313        0.64009
     311 -> 315       -0.27846

 Excited State   5:      Singlet-A      2.7802 eV  445.95 nm  f=0.0000  <S**2>=0.000
     312 -> 313        0.70696

 The electronic state is 1-A.
 Alpha  occ. eigenvalues --  -46.87781 -46.87577 -19.26300 -19.26290 -19.19097
 Alpha  occ. eigenvalues --  -19.19039 -19.18774 -19.18653 -19.18160 -19.17976
 Alpha  occ. eigenvalues --  -14.42435 -14.42418 -14.41431 -14.41268 -14.39384
 Alpha  occ. eigenvalues --  -14.39272 -14.38573 -14.38516 -10.39095 -10.39026
 Alpha  occ. eigenvalues --  -10.35406 -10.35332 -10.34381 -10.34154 -10.31703
 Alpha  occ. eigenvalues --  -10.31699 -10.31394 -10.31229 -10.30953 -10.30893
 Alpha  occ. eigenvalues --  -10.30556 -10.30489 -10.30312 -10.30277 -10.30182
 Alpha  occ. eigenvalues --  -10.30044 -10.29903 -10.29798 -10.29610 -10.29356
 Alpha  occ. eigenvalues --  -10.29320 -10.29232 -10.28743 -10.28657 -10.28605
 Alpha  occ. eigenvalues --  -10.28545 -10.28349 -10.28329 -10.28107 -10.28077
 Alpha  occ. eigenvalues --  -10.27921 -10.27774 -10.27710 -10.27591 -10.27561
 Alpha  occ. eigenvalues --  -10.27473 -10.27446 -10.27421 -10.27409 -10.27405
 Alpha  occ. eigenvalues --  -10.27390 -10.27389 -10.27376 -10.27256 -10.27155
 Alpha  occ. eigenvalues --  -10.26980 -10.26710 -10.26636 -10.26372 -10.26350
 Alpha  occ. eigenvalues --  -10.26222 -10.26152 -10.25999 -10.25969 -10.25941
 Alpha  occ. eigenvalues --  -10.25834 -10.25826 -10.25741 -10.25405 -10.25289
 Alpha  occ. eigenvalues --  -10.24817 -10.24793 -10.24768 -10.24657 -10.24604
 Alpha  occ. eigenvalues --  -10.24558  -3.16524  -3.16327  -1.91406  -1.91210
 Alpha  occ. eigenvalues --   -1.90992  -1.90834  -1.90798  -1.90635  -1.16648
 Alpha  occ. eigenvalues --   -1.16582  -1.08620  -1.08584  -1.07174  -1.06906
 Alpha  occ. eigenvalues --   -1.06882  -1.06660  -1.04566  -1.04418  -1.03742
 Alpha  occ. eigenvalues --   -1.03580  -1.03216  -1.02951  -1.02394  -1.02027
 Alpha  occ. eigenvalues --   -0.91960  -0.91908  -0.89497  -0.89383  -0.89179
 Alpha  occ. eigenvalues --   -0.89083  -0.88263  -0.88103  -0.87853  -0.87704
 Alpha  occ. eigenvalues --   -0.87657  -0.87602  -0.87243  -0.87052  -0.84971
 Alpha  occ. eigenvalues --   -0.84929  -0.83913  -0.83755  -0.82929  -0.82857
 Alpha  occ. eigenvalues --   -0.82632  -0.82581  -0.81582  -0.81521  -0.80582
 Alpha  occ. eigenvalues --   -0.80367  -0.78772  -0.78559  -0.77200  -0.77063
 Alpha  occ. eigenvalues --   -0.76925  -0.76813  -0.75914  -0.75767  -0.74877
 Alpha  occ. eigenvalues --   -0.74702  -0.72756  -0.72611  -0.71656  -0.71498
 Alpha  occ. eigenvalues --   -0.69881  -0.69619  -0.68859  -0.68754  -0.67623
 Alpha  occ. eigenvalues --   -0.67522  -0.67206  -0.67136  -0.65277  -0.65200
 Alpha  occ. eigenvalues --   -0.64841  -0.64683  -0.64608  -0.64574  -0.64248
 Alpha  occ. eigenvalues --   -0.64090  -0.62296  -0.62200  -0.60414  -0.60260
 Alpha  occ. eigenvalues --   -0.59792  -0.59725  -0.58971  -0.58906  -0.58488
 Alpha  occ. eigenvalues --   -0.58340  -0.57581  -0.57480  -0.57289  -0.57144
 Alpha  occ. eigenvalues --   -0.56291  -0.56123  -0.55980  -0.55817  -0.55496
 Alpha  occ. eigenvalues --   -0.55384  -0.55324  -0.55146  -0.54514  -0.54387
 Alpha  occ. eigenvalues --   -0.53886  -0.53846  -0.53276  -0.53204  -0.53144
 Alpha  occ. eigenvalues --   -0.53069  -0.52906  -0.52826  -0.52728  -0.52608
 Alpha  occ. eigenvalues --   -0.52412  -0.52250  -0.51900  -0.51788  -0.51602
 Alpha  occ. eigenvalues --   -0.51595  -0.51183  -0.51112  -0.50532  -0.50409
 Alpha  occ. eigenvalues --   -0.50005  -0.49907  -0.49891  -0.49760  -0.49495
 Alpha  occ. eigenvalues --   -0.49421  -0.49198  -0.49132  -0.49084  -0.49030
 Alpha  occ. eigenvalues --   -0.48584  -0.48486  -0.48439  -0.48418  -0.48275
 Alpha  occ. eigenvalues --   -0.48274  -0.47676  -0.47516  -0.47275  -0.47040
 Alpha  occ. eigenvalues --   -0.46780  -0.46617  -0.46545  -0.46484  -0.46341
 Alpha  occ. eigenvalues --   -0.46181  -0.46148  -0.45994  -0.45814  -0.45739
 Alpha  occ. eigenvalues --   -0.45178  -0.45109  -0.44567  -0.44482  -0.44442
 Alpha  occ. eigenvalues --   -0.44393  -0.44123  -0.44074  -0.44054  -0.44001
 Alpha  occ. eigenvalues --   -0.43978  -0.43873  -0.43488  -0.43471  -0.43370
 Alpha  occ. eigenvalues --   -0.43307  -0.43011  -0.42858  -0.42817  -0.42700
 Alpha  occ. eigenvalues --   -0.42637  -0.42443  -0.41993  -0.41857  -0.41689
 Alpha  occ. eigenvalues --   -0.41587  -0.41522  -0.41376  -0.41125  -0.40910
 Alpha  occ. eigenvalues --   -0.40854  -0.40790  -0.40658  -0.40616  -0.40550
 Alpha  occ. eigenvalues --   -0.40376  -0.40228  -0.40168  -0.39414  -0.39284
 Alpha  occ. eigenvalues --   -0.38448  -0.38242  -0.37743  -0.37587  -0.37299
 Alpha  occ. eigenvalues --   -0.37254  -0.37163  -0.37125  -0.36716  -0.36696
 Alpha  occ. eigenvalues --   -0.36184  -0.36123  -0.34270  -0.34169  -0.33795
 Alpha  occ. eigenvalues --   -0.33783  -0.33171  -0.33092  -0.31305  -0.31211
 Alpha  occ. eigenvalues --   -0.31018  -0.30892  -0.30021  -0.29881  -0.29427
 Alpha  occ. eigenvalues --   -0.29305  -0.29252  -0.29130  -0.24065  -0.23953
 Alpha  occ. eigenvalues --   -0.21109  -0.21033
 Alpha virt. eigenvalues --   -0.08755  -0.08712  -0.01730  -0.01599  -0.00032
 Alpha virt. eigenvalues --    0.00040   0.02215   0.02290   0.03121   0.03312
 Alpha virt. eigenvalues --    0.04729   0.04805   0.05087   0.05231   0.06178

 Mulliken charges:
               1
     1  Mg   0.838337
     2  C   -0.003204
     3  C   -0.094092
     4  C   -0.045751
     5  C   -0.063950
     6  N   -0.256790
     7  C   -0.052624
     8  C   -0.013970
     9  C   -0.086996
    10  C    0.046277
    11  C    0.104793
    12  C    0.053463
    13  C   -0.071748
    14  H    0.035782
    15  N   -0.433187
    16  C    0.168456
    17  C   -0.177017
    18  C   -0.003814
    19  C    0.148736
    20  C    0.110137
    21  C    0.012533
    22  O   -0.249438
    23  C    0.062348
    24  N   -0.341102
    25  C    0.041237
    26  C   -0.028239
    27  C   -0.023954
    28  C    0.074746
    29  C    0.076150
    30  C    0.035102
    31  C   -0.004530
    32  N   -0.310384
    33  C    0.080189
    34  C   -0.169875
    35  C    0.008275
    36  C    0.082726
    37  C    0.127357
    38  C    0.045890
    39  O   -0.188590
    40  C   -0.005231
    41  C    0.212962
    42  O   -0.257673
    43  O   -0.304655
    44  C    0.157770
    45  H   -0.017534
    46  H   -0.016652
    47  H   -0.041441
    48  H    0.000920
    49  H   -0.003991
    50  H    0.025476
    51  H    0.016516
    52  H    0.016696
    53  H    0.011229
    54  H    0.043711
    55  H    0.017976
    56  H    0.018104
    57  H    0.005830
    58  H    0.026883
    59  H    0.039997
    60  H    0.037204
    61  H    0.035950
    62  H    0.031993
    63  H    0.016751
    64  H    0.009493
    65  H    0.023344
    66  H    0.012517
    67  H    0.004778
    68  H    0.006553
    69  H    0.004750
    70  H    0.009067
    71  H    0.018168
    72  H    0.028622
    73  H    0.047405
    74  H    0.009179
    75  H    0.046048
    76  H    0.035209
    77  H    0.043046
    78  H    0.046445
    79  H    0.053302
    80  Mg   0.837779
    81  C   -0.016955
    82  C   -0.087997
    83  C   -0.045494
    84  C   -0.064792
    85  N   -0.254579
    86  C   -0.049874
    87  C   -0.015081
    88  C   -0.090479
    89  C    0.045732
    90  C    0.114436
    91  C    0.062548
    92  C   -0.077807
    93  H    0.034765
    94  N   -0.423435
    95  C    0.162847
    96  C   -0.174849
    97  C   -0.007962
    98  C    0.152077
    99  C    0.099453
   100  C    0.015448
   101  O   -0.253430
   102  C    0.061255
   103  N   -0.350092
   104  C    0.037499
   105  C   -0.019819
   106  C   -0.035213
   107  C    0.088906
   108  C    0.073829
   109  C    0.034646
   110  C   -0.007816
   111  N   -0.324145
   112  C    0.078555
   113  C   -0.162882
   114  C    0.002201
   115  C    0.096281
   116  C    0.131369
   117  C    0.042448
   118  O   -0.187872
   119  C    0.000909
   120  C    0.211227
   121  O   -0.250996
   122  O   -0.305665
   123  C    0.152070
   124  H   -0.019961
   125  H   -0.015761
   126  H   -0.039538
   127  H   -0.000752
   128  H   -0.004493
   129  H    0.022404
   130  H    0.014383
   131  H    0.016051
   132  H    0.013908
   133  H    0.037695
   134  H    0.020712
   135  H    0.019493
   136  H    0.008618
   137  H    0.025803
   138  H    0.039595
   139  H    0.038041
   140  H    0.036035
   141  H    0.033939
   142  H    0.014465
   143  H    0.013106
   144  H    0.024843
   145  H    0.011024
   146  H    0.006161
   147  H    0.007668
   148  H    0.004905
   149  H    0.010669
   150  H    0.018503
   151  H    0.029335
   152  H    0.046087
   153  H    0.009381
   154  H    0.046948
   155  H    0.034896
   156  H    0.043833
   157  H    0.049395
   158  H    0.053561
 Sum of Mulliken charges =  -0.00000

 Dipole moment (field-independent basis, Debye):
    X=              0.4248    Y=              6.6131    Z=             -4.5675  Tot=              8.0484
 Quadrupole moment (field-independent basis, Debye-Ang):
   XX=           -422.9260   YY=           -545.0609   ZZ=           -481.8257
   XY=            -29.4514   XZ=              0.1287   YZ=             -8.4189

 Normal termination of Gaussian 16 at Sat Sep 11 18:58:03 2021.
