 Gaussian 16, Revision A.03,
 Gaussian 16:  ES64L-G16RevA.03 25-Dec-2016

 -----------------------------------
 #p cam-b3lyp/Def2SVP td=(nstates=5)
 -----------------------------------

 --------------------------------
 TDDFT excited states in gaussian
 --------------------------------
 Symbolic Z-matrix:
 Charge =  0 Multiplicity = 1

                         Standard orientation:
 ---------------------------------------------------------------------
 Center     Atomic      Atomic             Coordinates (Angstroms)
 Number     Number       Type             X           Y           Z
 ---------------------------------------------------------------------
      1         12           0       -7.749990   -0.799927   -0.023490
      2          6           0       -8.026646    2.065294    2.103993
      3          6           0       -8.644664    1.226244   -2.619112
      4          6           0       -7.955222   -3.394301   -1.835596
      5          6           0       -7.995288   -2.767836    2.842312
      6          7           0       -8.245312    1.355552   -0.119464
      7          6           0       -8.255921    2.354923    0.757073
      8          6           0       -8.459098    3.752200    0.098506
      9          6           0       -9.192251    3.294768   -1.241359
     10          6           0       -8.634758    1.886840   -1.354775
     11          6           0      -10.709516    3.213019   -1.108219
     12          6           0       -7.100742    4.468386   -0.207562
     13          6           0       -7.209184    5.958127   -0.545595
     14          1           0       -6.154724    6.856050   -0.099282
     15          7           0       -7.750145   -0.992659   -1.989630
     16          6           0       -8.130797   -0.059368   -2.894813
     17          6           0       -7.948046   -0.681970   -4.223591
     18          6           0       -7.610744   -2.116965   -4.011201
     19          6           0       -7.786534   -2.233079   -2.586072
     20          6           0       -8.047286    0.079488   -5.509703
     21          6           0       -7.206002   -3.212694   -4.945918
     22          8           0       -7.185116   -4.439659   -4.587177
     23          6           0       -6.915998   -2.816737   -6.335938
     24          7           0       -8.166981   -2.800441    0.402770
     25          6           0       -8.135335   -3.731573   -0.556904
     26          6           0       -8.184103   -5.114400    0.022191
     27          6           0       -8.010224   -4.939376    1.599812
     28          6           0       -7.971475   -3.392507    1.662784
     29          6           0       -9.461629   -5.915429   -0.264672
     30          6           0       -6.863264   -5.733941    2.273287
     31          6           0       -5.526997   -5.200118    1.807968
     32          7           0       -7.794118   -0.449840    2.118130
     33          6           0       -7.923760   -1.414570    3.127666
     34          6           0       -8.012723   -0.690000    4.408741
     35          6           0       -7.944878    0.655256    4.051634
     36          6           0       -7.847779    0.764924    2.635005
     37          6           0       -8.196681   -1.281462    5.689665
     38          6           0       -7.956624    2.026278    4.535389
     39          8           0       -7.926707    2.553410    5.648371
     40          6           0       -8.132747    2.997140    3.285496
     41          6           0       -7.108237    4.091514    3.412129
     42          8           0       -5.889725    3.841994    3.310476
     43          8           0       -7.725711    5.282715    3.394618
     44          6           0       -6.763288    6.412913    3.487062
     45          1           0       -9.142300    1.708530   -3.462735
     46          1           0       -7.920086   -4.319786   -2.414112
     47          1           0       -7.988249   -3.317829    3.785133
     48          1           0       -9.100714    4.430758    0.660923
     49          1           0       -8.885178    3.894087   -2.098240
     50          1           0      -11.027251    3.358218   -0.075804
     51          1           0      -10.978501    2.214187   -1.452424
     52          1           0      -11.196460    3.907337   -1.793483
     53          1           0       -6.700776    4.093050   -1.149481
     54          1           0       -6.400276    4.336026    0.617759
     55          1           0       -8.188503    6.356943   -0.279533
     56          1           0       -7.157489    6.067175   -1.628940
     57          1           0       -8.469139    1.071940   -5.356005
     58          1           0       -8.782079   -0.435138   -6.128531
     59          1           0       -7.092687    0.125531   -6.034063
     60          1           0       -7.798533   -2.343512   -6.766915
     61          1           0       -6.557160   -3.715625   -6.836023
     62          1           0       -6.132916   -2.057984   -6.330876
     63          1           0       -7.369683   -5.727803   -0.361061
     64          1           0       -8.902542   -5.245903    2.146149
     65          1           0       -9.278385   -6.869509   -0.759503
     66          1           0      -10.126419   -5.288420   -0.858142
     67          1           0      -10.079258   -6.119363    0.609606
     68          1           0       -6.907935   -6.783256    1.983653
     69          1           0       -6.890105   -5.688991    3.362098
     70          1           0       -5.372163   -5.721079    0.863798
     71          1           0       -4.745759   -5.452406    2.525762
     72          1           0       -5.579359   -4.133849    1.587024
     73          1           0       -7.513739   -0.765787    6.364675
     74          1           0       -7.995132   -2.352129    5.664071
     75          1           0       -9.248948   -1.058738    5.865686
     76          1           0       -9.150936    3.382527    3.328950
     77          1           0       -7.062505    7.020238    4.341381
     78          1           0       -6.750398    6.889898    2.506896
     79          1           0       -5.741334    6.154172    3.766351
     80         12           0        8.118947   -0.476987    0.111534
     81          6           0        6.470937    1.825761   -2.093118
     82          6           0       10.328277    2.021263    0.827217
     83          6           0        9.851774   -2.601906    1.708240
     84          6           0        6.521298   -3.052249   -1.609302
     85          7           0        8.274691    1.610304   -0.603444
     86          6           0        7.555970    2.393721   -1.393419
     87          6           0        7.977608    3.887506   -1.374047
     88          6           0        9.500220    3.701455   -0.898769
     89          6           0        9.361501    2.379887   -0.145842
     90          6           0       10.469415    3.495287   -2.050946
     91          6           0        7.151329    4.728424   -0.338612
     92          6           0        7.292549    6.245295   -0.483301
     93          1           0        6.128177    7.082219   -0.207161
     94          7           0        9.527918   -0.214183    1.484240
     95          6           0       10.314222    0.870654    1.645900
     96          6           0       11.199224    0.560766    2.779438
     97          6           0       10.983294   -0.859332    3.168553
     98          6           0       10.108601   -1.295722    2.098713
     99          6           0       12.075334    1.589837    3.432778
    100          6           0       11.491512   -1.690915    4.307148
    101          8           0       11.366198   -2.966461    4.317801
    102          6           0       12.222728   -0.977726    5.364591
    103          7           0        8.347113   -2.535168   -0.073311
    104          6           0        9.121390   -3.224557    0.782949
    105          6           0        8.915614   -4.712489    0.627636
    106          6           0        7.658746   -4.872833   -0.348151
    107          6           0        7.399464   -3.385416   -0.673358
    108          6           0       10.101903   -5.492594    0.061475
    109          6           0        6.473337   -5.734362    0.166871
    110          6           0        5.801941   -5.044330    1.332399
    111          7           0        6.605916   -0.616833   -1.424450
    112          6           0        6.100960   -1.793581   -2.019731
    113          6           0        5.174468   -1.376049   -3.091972
    114          6           0        5.222653    0.025818   -3.061067
    115          6           0        6.131449    0.451706   -2.054982
    116          6           0        4.465418   -2.248370   -3.965134
    117          6           0        4.719418    1.242076   -3.657878
    118          8           0        3.858603    1.506812   -4.496113
    119          6           0        5.600862    2.460180   -3.142442
    120          6           0        4.668167    3.557904   -2.709312
    121          8           0        3.912455    3.397342   -1.734762
    122          8           0        4.975063    4.685545   -3.376093
    123          6           0        4.084314    5.806060   -2.972577
    124          1           0       11.204278    2.659174    0.947925
    125          1           0       10.341452   -3.376684    2.302721
    126          1           0        5.909341   -3.794440   -2.126343
    127          1           0        7.946676    4.380784   -2.338157
    128          1           0        9.802564    4.496133   -0.221683
    129          1           0        9.956160    3.389607   -2.995158
    130          1           0       11.018408    2.592902   -1.815661
    131          1           0       11.208567    4.301266   -2.070592
    132          1           0        7.585959    4.593688    0.660236
    133          1           0        6.113873    4.457555   -0.369143
    134          1           0        7.750553    6.527318   -1.439147
    135          1           0        8.001002    6.601147    0.268693
    136          1           0       12.146795    2.500975    2.826056
    137          1           0       13.093639    1.186215    3.437677
    138          1           0       11.776130    1.806532    4.460480
    139          1           0       13.081412   -0.470701    4.930945
    140          1           0       12.427917   -1.725364    6.133230
    141          1           0       11.571497   -0.198254    5.775607
    142          1           0        8.681903   -5.172070    1.580140
    143          1           0        7.937482   -5.357635   -1.295305
    144          1           0       10.443041   -6.310095    0.724333
    145          1           0       10.907961   -4.796761   -0.129871
    146          1           0        9.938685   -5.932828   -0.920741
    147          1           0        6.837507   -6.693888    0.542162
    148          1           0        5.731087   -5.947361   -0.595164
    149          1           0        6.427780   -5.331144    2.182785
    150          1           0        4.781947   -5.403229    1.454188
    151          1           0        5.861639   -3.954376    1.231971
    152          1           0        3.457363   -1.862628   -4.039462
    153          1           0        4.473985   -3.272282   -3.597284
    154          1           0        5.057445   -2.134904   -4.877207
    155          1           0        6.244085    2.770935   -3.966617
    156          1           0        3.620992    6.190847   -3.886339
    157          1           0        4.723110    6.503941   -2.399306
    158          1           0        3.210933    5.563135   -2.378730
 ---------------------------------------------------------------------

 SCF Done:  E(RCAM-B3LYP) =  -4069.81171141     A.U. after   19 cycles

 Excitation energies and oscillator strengths:

 Excited State   1:      Singlet-A      1.6713 eV  741.85 nm  f=0.1437  <S**2>=0.000
     309 -> 315       -0.14289
     311 -> 313        0.56834
     312 -> 314        0.38470
 This state for optimization and/or second-order correction.
 Total Energy, E(TD-HF/TD-DFT) =  -4069.75029250
 Copying the excited state density for this state as the 1-particle RhoCI density.

 Excited State   2:      Singlet-A      1.6842 eV  736.18 nm  f=0.6259  <S**2>=0.000
     310 -> 316        0.14625
     311 -> 313       -0.38427
     312 -> 314        0.56762

 Excited State   3:      Singlet-A      2.1854 eV  567.32 nm  f=0.0544  <S**2>=0.000
     309 -> 313        0.62439
     310 -> 314        0.15273
     311 -> 315        0.26485

 Excited State   4:      Singlet-A      2.1929 eV  565.40 nm  f=0.1381  <S**2>=0.000
     309 -> 313       -0.15168
     310 -> 314        0.62239
     312 -> 316       -0.27048

 Excited State   5:      Singlet-A      2.7503 eV  450.80 nm  f=0.0000  <S**2>=0.000
     312 -> 313        0.70697

 The electronic state is 1-A.
 Alpha  occ. eigenvalues --  -46.87604 -46.87568 -19.26312 -19.26074 -19.19108
 Alpha  occ. eigenvalues --  -19.18794 -19.18659 -19.18589 -19.18013 -19.17959
 Alpha  occ. eigenvalues --  -14.42444 -14.42225 -14.41305 -14.41231 -14.39297
 Alpha  occ. eigenvalues --  -14.39174 -14.38545 -14.38362 -10.39040 -10.38857
 Alpha  occ. eigenvalues --  -10.35337 -10.35221 -10.34190 -10.34179 -10.31731
 Alpha  occ. eigenvalues --  -10.31482 -10.31258 -10.31186 -10.30971 -10.30681
 Alpha  occ. eigenvalues --  -10.30348 -10.30344 -10.30308 -10.30288 -10.30086
 Alpha  occ. eigenvalues --  -10.29991 -10.29842 -10.29711 -10.29409 -10.29382
 Alpha  occ. eigenvalues --  -10.29348 -10.29030 -10.28670 -10.28602 -10.28524
 Alpha  occ. eigenvalues --  -10.28352 -10.28307 -10.28139 -10.28095 -10.27950
 Alpha  occ. eigenvalues --  -10.27900 -10.27617 -10.27573 -10.27506 -10.27464
 Alpha  occ. eigenvalues --  -10.27431 -10.27414 -10.27411 -10.27359 -10.27324
 Alpha  occ. eigenvalues --  -10.27311 -10.27262 -10.27240 -10.27182 -10.27008
 Alpha  occ. eigenvalues --  -10.26945 -10.26633 -10.26454 -10.26358 -10.26166
 Alpha  occ. eigenvalues --  -10.26075 -10.26039 -10.26002 -10.25990 -10.25880
 Alpha  occ. eigenvalues --  -10.25807 -10.25804 -10.25652 -10.25355 -10.25266
 Alpha  occ. eigenvalues --  -10.24823 -10.24656 -10.24637 -10.24614 -10.24572
 Alpha  occ. eigenvalues --  -10.24494  -3.16354  -3.16310  -1.91236  -1.91192
 Alpha  occ. eigenvalues --   -1.90825  -1.90779  -1.90662  -1.90621  -1.16603
 Alpha  occ. eigenvalues --   -1.16420  -1.08621  -1.08418  -1.06990  -1.06911
 Alpha  occ. eigenvalues --   -1.06896  -1.06419  -1.04442  -1.04357  -1.03609
 Alpha  occ. eigenvalues --   -1.03541  -1.03011  -1.02985  -1.02190  -1.02058
 Alpha  occ. eigenvalues --   -0.91938  -0.91753  -0.89440  -0.89314  -0.89102
 Alpha  occ. eigenvalues --   -0.88966  -0.88166  -0.88086  -0.87744  -0.87658
 Alpha  occ. eigenvalues --   -0.87631  -0.87451  -0.87066  -0.87043  -0.84949
 Alpha  occ. eigenvalues --   -0.84760  -0.83822  -0.83740  -0.82877  -0.82742
 Alpha  occ. eigenvalues --   -0.82602  -0.82428  -0.81552  -0.81374  -0.80394
 Alpha  occ. eigenvalues --   -0.80378  -0.78583  -0.78573  -0.77093  -0.77005
 Alpha  occ. eigenvalues --   -0.76851  -0.76723  -0.75794  -0.75711  -0.74754
 Alpha  occ. eigenvalues --   -0.74700  -0.72648  -0.72560  -0.71533  -0.71462
 Alpha  occ. eigenvalues --   -0.69711  -0.69699  -0.68777  -0.68653  -0.67551
 Alpha  occ. eigenvalues --   -0.67423  -0.67146  -0.66988  -0.65222  -0.65065
 Alpha  occ. eigenvalues --   -0.64719  -0.64639  -0.64605  -0.64407  -0.64150
 Alpha  occ. eigenvalues --   -0.64063  -0.62234  -0.62087  -0.60286  -0.60220
 Alpha  occ. eigenvalues --   -0.59747  -0.59583  -0.58942  -0.58773  -0.58376
 Alpha  occ. eigenvalues --   -0.58289  -0.57509  -0.57370  -0.57185  -0.57097
 Alpha  occ. eigenvalues --   -0.56154  -0.56093  -0.55843  -0.55765  -0.55403
 Alpha  occ. eigenvalues --   -0.55300  -0.55198  -0.55138  -0.54438  -0.54319
 Alpha  occ. eigenvalues --   -0.53863  -0.53672  -0.53177  -0.53092  -0.53082
 Alpha  occ. eigenvalues --   -0.52998  -0.52851  -0.52697  -0.52615  -0.52527
 Alpha  occ. eigenvalues --   -0.52341  -0.52242  -0.51838  -0.51710  -0.51607
 Alpha  occ. eigenvalues --   -0.51389  -0.51154  -0.50985  -0.50420  -0.50337
 Alpha  occ. eigenvalues --   -0.49929  -0.49830  -0.49815  -0.49694  -0.49436
 Alpha  occ. eigenvalues --   -0.49293  -0.49154  -0.49060  -0.48997  -0.48884
 Alpha  occ. eigenvalues --   -0.48512  -0.48383  -0.48328  -0.48288  -0.48259
 Alpha  occ. eigenvalues --   -0.48224  -0.47545  -0.47478  -0.47082  -0.47068
 Alpha  occ. eigenvalues --   -0.46657  -0.46585  -0.46503  -0.46333  -0.46219
 Alpha  occ. eigenvalues --   -0.46144  -0.46036  -0.45955  -0.45778  -0.45616
 Alpha  occ. eigenvalues --   -0.45158  -0.45003  -0.44468  -0.44426  -0.44367
 Alpha  occ. eigenvalues --   -0.44286  -0.44081  -0.44024  -0.43932  -0.43890
 Alpha  occ. eigenvalues --   -0.43875  -0.43801  -0.43509  -0.43337  -0.43285
 Alpha  occ. eigenvalues --   -0.43171  -0.42885  -0.42855  -0.42815  -0.42498
 Alpha  occ. eigenvalues --   -0.42490  -0.42452  -0.41908  -0.41802  -0.41623
 Alpha  occ. eigenvalues --   -0.41491  -0.41406  -0.41314  -0.40942  -0.40930
 Alpha  occ. eigenvalues --   -0.40669  -0.40654  -0.40645  -0.40595  -0.40440
 Alpha  occ. eigenvalues --   -0.40369  -0.40173  -0.39998  -0.39365  -0.39245
 Alpha  occ. eigenvalues --   -0.38297  -0.38266  -0.37601  -0.37520  -0.37212
 Alpha  occ. eigenvalues --   -0.37147  -0.37112  -0.37037  -0.36724  -0.36501
 Alpha  occ. eigenvalues --   -0.36165  -0.35980  -0.34200  -0.34065  -0.33808
 Alpha  occ. eigenvalues --   -0.33544  -0.33122  -0.32965  -0.31218  -0.31120
 Alpha  occ. eigenvalues --   -0.30920  -0.30816  -0.29918  -0.29819  -0.29274
 Alpha  occ. eigenvalues --   -0.29223  -0.29160  -0.29101  -0.23983  -0.23859
 Alpha  occ. eigenvalues --   -0.21064  -0.20907
 Alpha virt. eigenvalues --   -0.08739  -0.08552  -0.01630  -0.01529   0.00024
 Alpha virt. eigenvalues --    0.00168   0.02254   0.02414   0.03310   0.03404
 Alpha virt. eigenvalues --    0.04781   0.04938   0.05213   0.05319   0.06233

 Mulliken charges:
               1
     1  Mg   0.839794
     2  C   -0.002612
     3  C   -0.093718
     4  C   -0.045917
     5  C   -0.064122
     6  N   -0.256754
     7  C   -0.052311
     8  C   -0.014184
     9  C   -0.087070
    10  C    0.046612
    11  C    0.104899
    12  C    0.053335
    13  C   -0.071675
    14  H    0.036080
    15  N   -0.433096
    16  C    0.168846
    17  C   -0.176791
    18  C   -0.003802
    19  C    0.148962
    20  C    0.110179
    21  C    0.012607
    22  O   -0.250047
    23  C    0.062203
    24  N   -0.341167
    25  C    0.041292
    26  C   -0.028106
    27  C   -0.023884
    28  C    0.074863
    29  C    0.076331
    30  C    0.035213
    31  C   -0.004459
    32  N   -0.310417
    33  C    0.080461
    34  C   -0.169851
    35  C    0.008205
    36  C    0.083202
    37  C    0.127326
    38  C    0.046134
    39  O   -0.188951
    40  C   -0.005397
    41  C    0.212653
    42  O   -0.256288
    43  O   -0.305037
    44  C    0.157789
    45  H   -0.017805
    46  H   -0.017144
    47  H   -0.041911
    48  H    0.000518
    49  H   -0.003894
    50  H    0.025220
    51  H    0.016273
    52  H    0.016341
    53  H    0.012173
    54  H    0.044721
    55  H    0.017235
    56  H    0.018026
    57  H    0.005791
    58  H    0.026368
    59  H    0.040646
    60  H    0.036979
    61  H    0.035396
    62  H    0.032773
    63  H    0.016420
    64  H    0.009064
    65  H    0.022857
    66  H    0.012460
    67  H    0.004413
    68  H    0.005829
    69  H    0.004468
    70  H    0.008592
    71  H    0.017878
    72  H    0.029758
    73  H    0.047428
    74  H    0.008863
    75  H    0.045576
    76  H    0.034726
    77  H    0.042344
    78  H    0.046337
    79  H    0.053955
    80  Mg   0.838337
    81  C   -0.016636
    82  C   -0.087771
    83  C   -0.045458
    84  C   -0.064840
    85  N   -0.254559
    86  C   -0.049814
    87  C   -0.015136
    88  C   -0.090538
    89  C    0.045864
    90  C    0.114420
    91  C    0.062475
    92  C   -0.077904
    93  H    0.035057
    94  N   -0.423465
    95  C    0.163049
    96  C   -0.174636
    97  C   -0.007738
    98  C    0.152195
    99  C    0.099409
   100  C    0.015666
   101  O   -0.253197
   102  C    0.061144
   103  N   -0.350098
   104  C    0.037525
   105  C   -0.019828
   106  C   -0.034804
   107  C    0.088961
   108  C    0.073716
   109  C    0.034714
   110  C   -0.007690
   111  N   -0.324118
   112  C    0.078571
   113  C   -0.162943
   114  C    0.002070
   115  C    0.096457
   116  C    0.131423
   117  C    0.042584
   118  O   -0.188512
   119  C    0.000829
   120  C    0.210983
   121  O   -0.250237
   122  O   -0.305848
   123  C    0.152086
   124  H   -0.019774
   125  H   -0.015599
   126  H   -0.040440
   127  H   -0.000908
   128  H   -0.004299
   129  H    0.022284
   130  H    0.014379
   131  H    0.016139
   132  H    0.014194
   133  H    0.038057
   134  H    0.020441
   135  H    0.019615
   136  H    0.008706
   137  H    0.026019
   138  H    0.039973
   139  H    0.038133
   140  H    0.036403
   141  H    0.034117
   142  H    0.014485
   143  H    0.012260
   144  H    0.025087
   145  H    0.011528
   146  H    0.005548
   147  H    0.006120
   148  H    0.003692
   149  H    0.010898
   150  H    0.018156
   151  H    0.030364
   152  H    0.046000
   153  H    0.008729
   154  H    0.046579
   155  H    0.034672
   156  H    0.043170
   157  H    0.049534
   158  H    0.053974
 Sum of Mulliken charges =  -0.00000

 Dipole moment (field-independent basis, Debye):
    X=              2.0009    Y=              2.8626    Z=             -3.0775  Tot=              4.6550
 Quadrupole moment (field-independent basis, Debye-Ang):
   XX=           -433.7404   YY=           -463.3955   ZZ=           -531.7104
   XY=             24.9041   XZ=             29.1316   YZ=            -18.4155

 Normal termination of Gaussian 16 at Sun Sep 12 00:16:54 2021.
