 Gaussian 16, Revision A.03,
 Gaussian 16:  ES64L-G16RevA.03 25-Dec-2016

 -----------------------------------
 #p cam-b3lyp/Def2SVP td=(nstates=5)
 -----------------------------------

 --------------------------------
 TDDFT excited states in gaussian
 --------------------------------
 Symbolic Z-matrix:
 Charge =  0 Multiplicity = 1

                         Standard orientation:
 ---------------------------------------------------------------------
 Center     Atomic      Atomic             Coordinates (Angstroms)
 Number     Number       Type             X           Y           Z
 ---------------------------------------------------------------------
      1         12           0        7.714993   -0.827758    0.032774
      2          6           0        8.000605    2.082829   -2.030990
      3          6           0        8.615957    1.137851    2.672416
      4          6           0        7.912115   -3.462109    1.787185
      5          6           0        7.954179   -2.732714   -2.875764
      6          7           0        8.217035    1.323524    0.176253
      7          6           0        8.230769    2.341953   -0.678021
      8          6           0        8.438297    3.723719    0.011202
      9          6           0        9.170007    3.234552    1.340605
     10          6           0        8.608124    1.826209    1.422963
     11          6           0       10.687011    3.151028    1.205605
     12          6           0        7.082178    4.437210    0.333077
     13          6           0        7.195263    5.918784    0.703890
     14          1           0        6.143613    6.829620    0.277559
     15          7           0        7.714528   -1.063823    1.994183
     16          6           0        8.098080   -0.151922    2.919715
     17          6           0        7.913375   -0.803118    4.234443
     18          6           0        7.571601   -2.232019    3.990464
     19          6           0        7.747041   -2.317208    2.563109
     20          6           0        8.014976   -0.070535    5.537036
     21          6           0        7.163434   -3.346836    4.900801
     22          8           0        7.138724   -4.565517    4.515078
     23          6           0        6.874653   -2.980742    6.299237
     24          7           0        8.125746   -2.819671   -0.437546
     25          6           0        8.091187   -3.771648    0.501353
     26          6           0        8.135648   -5.141506   -0.108115
     27          6           0        7.962330   -4.931175   -1.681479
     28          6           0        7.928407   -3.383180   -1.710304
     29          6           0        9.410666   -5.952649    0.160930
     30          6           0        6.812905   -5.707106   -2.372254
     31          6           0        5.478305   -5.179515   -1.895191
     32          7           0        7.760234   -0.430644   -2.100603
     33          6           0        7.886876   -1.373264   -3.131187
     34          6           0        7.978111   -0.620887   -4.395969
     35          6           0        7.914458    0.716368   -4.009263
     36          6           0        7.817688    0.795055   -2.590553
     37          6           0        8.160236   -1.184514   -5.689641
     38          6           0        7.930486    2.097686   -4.462652
     39          8           0        7.902224    2.649337   -5.563731
     40          6           0        8.109624    3.040181   -3.191652
     41          6           0        7.088533    4.140271   -3.294048
     42          8           0        5.869248    3.892370   -3.197854
     43          8           0        7.709720    5.328865   -3.250296
     44          6           0        6.750827    6.463824   -3.317724
     45          1           0        9.115087    1.599852    3.526445
     46          1           0        7.874086   -4.400020    2.345143
     47          1           0        7.945434   -3.261746   -3.830490
     48          1           0        9.082032    4.412516   -0.536144
     49          1           0        8.864796    3.815774    2.210519
     50          1           0       11.005207    3.317980    0.176625
     51          1           0       10.952875    2.144012    1.527671
     52          1           0       11.176111    3.828536    1.905991
     53          1           0        6.681035    4.042433    1.266509
     54          1           0        6.381311    4.325277   -0.494922
     55          1           0        8.175824    6.320318    0.446635
     56          1           0        7.143898    6.004064    1.789381
     57          1           0        8.439925    0.923747    5.405248
     58          1           0        8.748154   -0.600978    6.144316
     59          1           0        7.060521   -0.033096    6.062341
     60          1           0        7.758655   -2.519896    6.740497
     61          1           0        6.513007   -3.889322    6.779388
     62          1           0        6.093941   -2.219624    6.310963
     63          1           0        7.319315   -5.760673    0.261559
     64          1           0        8.853693   -5.228354   -2.234499
     65          1           0        9.224442   -6.916839    0.634601
     66          1           0       10.077403   -5.340964    0.768050
     67          1           0       10.027664   -6.139169   -0.717671
     68          1           0        6.854300   -6.762691   -2.105845
     69          1           0        6.839896   -5.638228   -3.459810
     70          1           0        5.321837   -5.720697   -0.962736
     71          1           0        4.696290   -5.413468   -2.618330
     72          1           0        5.533990   -4.118550   -1.650778
     73          1           0        7.478912   -0.651943   -6.353069
     74          1           0        7.955348   -2.254851   -5.687664
     75          1           0        9.213194   -0.961243   -5.860767
     76          1           0        9.129011    3.423256   -3.226653
     77          1           0        7.051945    7.088914   -4.158453
     78          1           0        6.739416    6.919104   -2.327273
     79          1           0        5.728074    6.214496   -3.602594
     80         12           0       -8.154357   -0.452347   -0.094501
     81          6           0       -6.168415    1.838298    1.825923
     82          6           0      -10.508629    2.006059   -0.314170
     83          6           0      -10.113022   -2.581714   -1.397121
     84          6           0       -6.210475   -3.026689    1.224524
     85          7           0       -8.215084    1.612976    0.694803
     86          6           0       -7.376739    2.395276    1.357786
     87          6           0       -7.824511    3.878102    1.459258
     88          6           0       -9.405227    3.665290    1.272388
     89          6           0       -9.383758    2.365711    0.470323
     90          6           0      -10.136477    3.407872    2.579430
     91          6           0       -7.224457    4.763579    0.311259
     92          6           0       -7.366515    6.272610    0.521982
     93          1           0       -6.291785    7.144654    0.056172
     94          7           0       -9.801015   -0.192581   -1.171340
     95          6           0      -10.625378    0.875769   -1.152711
     96          6           0      -11.701056    0.570636   -2.108727
     97          6           0      -11.533478   -0.834053   -2.570759
     98          6           0      -10.464851   -1.273527   -1.696118
     99          6           0      -12.704809    1.592591   -2.557627
    100          6           0      -12.229596   -1.651023   -3.616787
    101          8           0      -12.082852   -2.922427   -3.686208
    102          6           0      -13.160579   -0.931628   -4.498408
    103          7           0       -8.302269   -2.519373    0.072432
    104          6           0       -9.209505   -3.207541   -0.642598
    105          6           0       -8.948308   -4.693101   -0.570021
    106          6           0       -7.527598   -4.844925    0.148399
    107          6           0       -7.241879   -3.359571    0.460594
    108          6           0       -9.991231   -5.515750    0.186250
    109          6           0       -6.442875   -5.664184   -0.603177
    110          6           0       -6.016313   -4.930302   -1.854120
    111          7           0       -6.377331   -0.590467    1.126623
    112          6           0       -5.745988   -1.767926    1.583888
    113          6           0       -4.643237   -1.352738    2.474950
    114          6           0       -4.724587    0.047820    2.492634
    115          6           0       -5.814521    0.474437    1.686690
    116          6           0       -3.765423   -2.227406    3.175327
    117          6           0       -4.142837    1.261878    3.018312
    118          8           0       -3.145444    1.528233    3.687636
    119          6           0       -5.129734    2.469367    2.711080
    120          6           0       -4.317255    3.599965    2.141739
    121          8           0       -3.754904    3.481349    1.038883
    122          8           0       -4.516141    4.703557    2.885308
    123          6           0       -3.739740    5.855194    2.353534
    124          1           0      -11.404377    2.624537   -0.250968
    125          1           0      -10.689917   -3.354265   -1.910769
    126          1           0       -5.497506   -3.765331    1.597013
    127          1           0       -7.623032    4.349150    2.413875
    128          1           0       -9.845261    4.467893    0.686247
    129          1           0       -9.453032    3.292831    3.407558
    130          1           0      -10.701597    2.497839    2.426041
    131          1           0      -10.874877    4.194431    2.759510
    132          1           0       -7.836100    4.641595   -0.591926
    133          1           0       -6.194477    4.518080    0.139515
    134          1           0       -7.642470    6.520492    1.554136
    135          1           0       -8.210581    6.628255   -0.073905
    136          1           0      -12.679407    2.487113   -1.923141
    137          1           0      -13.697577    1.163872   -2.383066
    138          1           0      -12.608315    1.840862   -3.616749
    139          1           0      -13.932592   -0.456579   -3.897754
    140          1           0      -13.491352   -1.665839   -5.235555
    141          1           0      -12.613937   -0.126643   -5.002207
    142          1           0       -8.888396   -5.124132   -1.561850
    143          1           0       -7.613708   -5.358730    1.117124
    144          1           0      -10.434235   -6.325681   -0.423529
    145          1           0      -10.760874   -4.844984    0.544386
    146          1           0       -9.637654   -5.974782    1.107912
    147          1           0       -6.851645   -6.623400   -0.930228
    148          1           0       -5.566603   -5.876443    0.000226
    149          1           0       -6.784782   -5.212556   -2.579976
    150          1           0       -5.030300   -5.260620   -2.174619
    151          1           0       -6.078022   -3.844856   -1.713987
    152          1           0       -2.769317   -1.818429    3.070358
    153          1           0       -3.822289   -3.242251    2.787237
    154          1           0       -4.177820   -2.150283    4.184898
    155          1           0       -5.612892    2.744449    3.649409
    156          1           0       -3.120933    6.229805    3.174756
    157          1           0       -4.488750    6.550206    1.929617
    158          1           0       -2.988692    5.648228    1.600172
 ---------------------------------------------------------------------

 SCF Done:  E(RCAM-B3LYP) =  -4069.81165274     A.U. after   19 cycles

 Excitation energies and oscillator strengths:

 Excited State   1:      Singlet-A      1.6721 eV  741.49 nm  f=0.2041  <S**2>=0.000
     309 -> 315        0.14573
     311 -> 313        0.57895
     312 -> 314       -0.36845
 This state for optimization and/or second-order correction.
 Total Energy, E(TD-HF/TD-DFT) =  -4069.75020464
 Copying the excited state density for this state as the 1-particle RhoCI density.

 Excited State   2:      Singlet-A      1.6834 eV  736.53 nm  f=0.5709  <S**2>=0.000
     310 -> 316        0.14878
     311 -> 313        0.36809
     312 -> 314        0.57830

 Excited State   3:      Singlet-A      2.1854 eV  567.34 nm  f=0.0512  <S**2>=0.000
     309 -> 313        0.62155
     310 -> 314        0.16396
     311 -> 315       -0.26364

 Excited State   4:      Singlet-A      2.1927 eV  565.44 nm  f=0.1409  <S**2>=0.000
     309 -> 313       -0.16287
     310 -> 314        0.61955
     312 -> 316       -0.26918

 Excited State   5:      Singlet-A      2.7380 eV  452.83 nm  f=0.0000  <S**2>=0.000
     312 -> 313        0.70691

 The electronic state is 1-A.
 Alpha  occ. eigenvalues --  -46.87602 -46.87545 -19.26298 -19.26043 -19.19092
 Alpha  occ. eigenvalues --  -19.18760 -19.18659 -19.18573 -19.18005 -19.17935
 Alpha  occ. eigenvalues --  -14.42441 -14.42202 -14.41303 -14.41210 -14.39294
 Alpha  occ. eigenvalues --  -14.39152 -14.38541 -14.38338 -10.39026 -10.38824
 Alpha  occ. eigenvalues --  -10.35337 -10.35206 -10.34182 -10.34154 -10.31714
 Alpha  occ. eigenvalues --  -10.31451 -10.31255 -10.31162 -10.30969 -10.30658
 Alpha  occ. eigenvalues --  -10.30341 -10.30325 -10.30304 -10.30265 -10.30085
 Alpha  occ. eigenvalues --  -10.29971 -10.29838 -10.29690 -10.29388 -10.29380
 Alpha  occ. eigenvalues --  -10.29344 -10.29009 -10.28668 -10.28601 -10.28498
 Alpha  occ. eigenvalues --  -10.28349 -10.28280 -10.28116 -10.28093 -10.27946
 Alpha  occ. eigenvalues --  -10.27876 -10.27615 -10.27551 -10.27483 -10.27462
 Alpha  occ. eigenvalues --  -10.27428 -10.27414 -10.27410 -10.27337 -10.27323
 Alpha  occ. eigenvalues --  -10.27295 -10.27246 -10.27222 -10.27158 -10.27001
 Alpha  occ. eigenvalues --  -10.26919 -10.26631 -10.26423 -10.26361 -10.26156
 Alpha  occ. eigenvalues --  -10.26074 -10.26019 -10.25990 -10.25989 -10.25877
 Alpha  occ. eigenvalues --  -10.25796 -10.25783 -10.25630 -10.25353 -10.25253
 Alpha  occ. eigenvalues --  -10.24818 -10.24656 -10.24634 -10.24591 -10.24551
 Alpha  occ. eigenvalues --  -10.24481  -3.16351  -3.16287  -1.91234  -1.91168
 Alpha  occ. eigenvalues --   -1.90822  -1.90755  -1.90659  -1.90597  -1.16589
 Alpha  occ. eigenvalues --   -1.16388  -1.08612  -1.08393  -1.06975  -1.06912
 Alpha  occ. eigenvalues --   -1.06880  -1.06386  -1.04440  -1.04333  -1.03607
 Alpha  occ. eigenvalues --   -1.03519  -1.02989  -1.02982  -1.02168  -1.02055
 Alpha  occ. eigenvalues --   -0.91933  -0.91729  -0.89437  -0.89295  -0.89100
 Alpha  occ. eigenvalues --   -0.88942  -0.88164  -0.88067  -0.87738  -0.87636
 Alpha  occ. eigenvalues --   -0.87629  -0.87428  -0.87065  -0.87024  -0.84947
 Alpha  occ. eigenvalues --   -0.84736  -0.83819  -0.83722  -0.82876  -0.82726
 Alpha  occ. eigenvalues --   -0.82600  -0.82406  -0.81544  -0.81348  -0.80389
 Alpha  occ. eigenvalues --   -0.80355  -0.78581  -0.78552  -0.77091  -0.76985
 Alpha  occ. eigenvalues --   -0.76846  -0.76699  -0.75789  -0.75687  -0.74751
 Alpha  occ. eigenvalues --   -0.74681  -0.72644  -0.72538  -0.71530  -0.71441
 Alpha  occ. eigenvalues --   -0.69697  -0.69695  -0.68774  -0.68630  -0.67547
 Alpha  occ. eigenvalues --   -0.67401  -0.67144  -0.66965  -0.65219  -0.65040
 Alpha  occ. eigenvalues --   -0.64715  -0.64615  -0.64600  -0.64385  -0.64147
 Alpha  occ. eigenvalues --   -0.64044  -0.62225  -0.62061  -0.60284  -0.60201
 Alpha  occ. eigenvalues --   -0.59744  -0.59559  -0.58938  -0.58751  -0.58371
 Alpha  occ. eigenvalues --   -0.58266  -0.57500  -0.57343  -0.57181  -0.57076
 Alpha  occ. eigenvalues --   -0.56150  -0.56071  -0.55834  -0.55738  -0.55399
 Alpha  occ. eigenvalues --   -0.55281  -0.55193  -0.55117  -0.54432  -0.54296
 Alpha  occ. eigenvalues --   -0.53860  -0.53647  -0.53173  -0.53088  -0.53062
 Alpha  occ. eigenvalues --   -0.52976  -0.52845  -0.52673  -0.52615  -0.52508
 Alpha  occ. eigenvalues --   -0.52339  -0.52225  -0.51829  -0.51688  -0.51605
 Alpha  occ. eigenvalues --   -0.51366  -0.51148  -0.50962  -0.50421  -0.50321
 Alpha  occ. eigenvalues --   -0.49927  -0.49813  -0.49813  -0.49675  -0.49434
 Alpha  occ. eigenvalues --   -0.49272  -0.49149  -0.49056  -0.48974  -0.48861
 Alpha  occ. eigenvalues --   -0.48506  -0.48360  -0.48324  -0.48286  -0.48239
 Alpha  occ. eigenvalues --   -0.48205  -0.47542  -0.47457  -0.47066  -0.47062
 Alpha  occ. eigenvalues --   -0.46654  -0.46564  -0.46501  -0.46309  -0.46215
 Alpha  occ. eigenvalues --   -0.46122  -0.46031  -0.45933  -0.45770  -0.45592
 Alpha  occ. eigenvalues --   -0.45155  -0.44985  -0.44462  -0.44423  -0.44343
 Alpha  occ. eigenvalues --   -0.44268  -0.44077  -0.44021  -0.43913  -0.43887
 Alpha  occ. eigenvalues --   -0.43852  -0.43779  -0.43500  -0.43333  -0.43260
 Alpha  occ. eigenvalues --   -0.43149  -0.42877  -0.42848  -0.42793  -0.42496
 Alpha  occ. eigenvalues --   -0.42468  -0.42428  -0.41906  -0.41781  -0.41618
 Alpha  occ. eigenvalues --   -0.41468  -0.41404  -0.41291  -0.40939  -0.40908
 Alpha  occ. eigenvalues --   -0.40668  -0.40644  -0.40632  -0.40577  -0.40438
 Alpha  occ. eigenvalues --   -0.40350  -0.40172  -0.39971  -0.39363  -0.39229
 Alpha  occ. eigenvalues --   -0.38295  -0.38248  -0.37598  -0.37495  -0.37210
 Alpha  occ. eigenvalues --   -0.37144  -0.37093  -0.37012  -0.36713  -0.36473
 Alpha  occ. eigenvalues --   -0.36160  -0.35955  -0.34197  -0.34042  -0.33794
 Alpha  occ. eigenvalues --   -0.33512  -0.33118  -0.32942  -0.31218  -0.31104
 Alpha  occ. eigenvalues --   -0.30917  -0.30794  -0.29909  -0.29794  -0.29271
 Alpha  occ. eigenvalues --   -0.29201  -0.29156  -0.29078  -0.23980  -0.23836
 Alpha  occ. eigenvalues --   -0.21061  -0.20885
 Alpha virt. eigenvalues --   -0.08736  -0.08530  -0.01627  -0.01507   0.00025
 Alpha virt. eigenvalues --    0.00189   0.02260   0.02437   0.03309   0.03437
 Alpha virt. eigenvalues --    0.04784   0.04962   0.05226   0.05351   0.06236

 Mulliken charges:
               1
     1  Mg   0.840006
     2  C   -0.002506
     3  C   -0.093650
     4  C   -0.045968
     5  C   -0.064171
     6  N   -0.256742
     7  C   -0.052262
     8  C   -0.014198
     9  C   -0.087084
    10  C    0.046654
    11  C    0.104913
    12  C    0.053317
    13  C   -0.071640
    14  H    0.036083
    15  N   -0.433072
    16  C    0.168895
    17  C   -0.176772
    18  C   -0.003832
    19  C    0.148989
    20  C    0.110196
    21  C    0.012593
    22  O   -0.250150
    23  C    0.062194
    24  N   -0.341166
    25  C    0.041281
    26  C   -0.028079
    27  C   -0.023883
    28  C    0.074895
    29  C    0.076351
    30  C    0.035227
    31  C   -0.004452
    32  N   -0.310436
    33  C    0.080521
    34  C   -0.169818
    35  C    0.008218
    36  C    0.083280
    37  C    0.127311
    38  C    0.046210
    39  O   -0.188912
    40  C   -0.005439
    41  C    0.212617
    42  O   -0.256038
    43  O   -0.305102
    44  C    0.157770
    45  H   -0.017870
    46  H   -0.017234
    47  H   -0.041951
    48  H    0.000481
    49  H   -0.003903
    50  H    0.025200
    51  H    0.016232
    52  H    0.016280
    53  H    0.012307
    54  H    0.044902
    55  H    0.017146
    56  H    0.017983
    57  H    0.005780
    58  H    0.026266
    59  H    0.040630
    60  H    0.036945
    61  H    0.035252
    62  H    0.032796
    63  H    0.016347
    64  H    0.009030
    65  H    0.022785
    66  H    0.012452
    67  H    0.004380
    68  H    0.005745
    69  H    0.004465
    70  H    0.008493
    71  H    0.017819
    72  H    0.029899
    73  H    0.047493
    74  H    0.008828
    75  H    0.045534
    76  H    0.034671
    77  H    0.042287
    78  H    0.046281
    79  H    0.054101
    80  Mg   0.838308
    81  C   -0.016659
    82  C   -0.087807
    83  C   -0.045516
    84  C   -0.064847
    85  N   -0.254565
    86  C   -0.049793
    87  C   -0.015145
    88  C   -0.090499
    89  C    0.045820
    90  C    0.114433
    91  C    0.062500
    92  C   -0.077906
    93  H    0.035101
    94  N   -0.423481
    95  C    0.163018
    96  C   -0.174657
    97  C   -0.007789
    98  C    0.152161
    99  C    0.099400
   100  C    0.015631
   101  O   -0.253218
   102  C    0.061159
   103  N   -0.350099
   104  C    0.037541
   105  C   -0.019810
   106  C   -0.034823
   107  C    0.088943
   108  C    0.073719
   109  C    0.034708
   110  C   -0.007675
   111  N   -0.324167
   112  C    0.078588
   113  C   -0.162835
   114  C    0.002138
   115  C    0.096515
   116  C    0.131373
   117  C    0.042713
   118  O   -0.188393
   119  C    0.000811
   120  C    0.210998
   121  O   -0.250022
   122  O   -0.305950
   123  C    0.151999
   124  H   -0.019806
   125  H   -0.015625
   126  H   -0.040396
   127  H   -0.000911
   128  H   -0.004333
   129  H    0.022263
   130  H    0.014369
   131  H    0.016110
   132  H    0.014116
   133  H    0.038102
   134  H    0.020433
   135  H    0.019561
   136  H    0.008686
   137  H    0.025998
   138  H    0.039899
   139  H    0.038134
   140  H    0.036366
   141  H    0.034052
   142  H    0.014460
   143  H    0.012278
   144  H    0.025071
   145  H    0.011517
   146  H    0.005548
   147  H    0.006114
   148  H    0.003729
   149  H    0.010865
   150  H    0.018159
   151  H    0.030354
   152  H    0.046242
   153  H    0.008771
   154  H    0.046506
   155  H    0.034590
   156  H    0.043123
   157  H    0.049439
   158  H    0.054292
 Sum of Mulliken charges =  -0.00000

 Dipole moment (field-independent basis, Debye):
    X=             -2.1424    Y=              2.7106    Z=              3.9025  Tot=              5.2122
 Quadrupole moment (field-independent basis, Debye-Ang):
   XX=           -434.2039   YY=           -465.3516   ZZ=           -527.0319
   XY=            -28.0796   XZ=             23.0783   YZ=             24.0101

 Normal termination of Gaussian 16 at Sun Sep 12 00:46:19 2021.
