 Gaussian 16, Revision A.03,
 Gaussian 16:  ES64L-G16RevA.03 25-Dec-2016

 -----------------------------------
 #p cam-b3lyp/Def2SVP td=(nstates=5)
 -----------------------------------

 --------------------------------
 TDDFT excited states in gaussian
 --------------------------------
 Symbolic Z-matrix:
 Charge =  0 Multiplicity = 1

                         Standard orientation:
 ---------------------------------------------------------------------
 Center     Atomic      Atomic             Coordinates (Angstroms)
 Number     Number       Type             X           Y           Z
 ---------------------------------------------------------------------
      1         12           0       -5.341667   -0.300248    0.020151
      2          6           0       -5.225397    3.275872    0.120467
      3          6           0       -6.145129   -0.032971   -3.285311
      4          6           0       -5.894485   -3.422903    0.013811
      5          6           0       -5.652465   -0.240326    3.490810
      6          7           0       -5.618636    1.454042   -1.301365
      7          6           0       -5.486469    2.768611   -1.154356
      8          6           0       -5.576632    3.552664   -2.497674
      9          6           0       -6.414226    2.496910   -3.349623
     10          6           0       -6.009037    1.224793   -2.626114
     11          6           0       -7.924060    2.673571   -3.224353
     12          6           0       -4.168096    3.811275   -3.130824
     13          6           0       -4.139760    4.842976   -4.262258
     14          1           0       -2.979622    5.712165   -4.388504
     15          7           0       -5.453083   -1.578579   -1.481950
     16          6           0       -5.778387   -1.293287   -2.765722
     17          6           0       -5.722166   -2.578121   -3.495599
     18          6           0       -5.523358   -3.662158   -2.493884
     19          6           0       -5.643468   -2.924402   -1.262353
     20          6           0       -5.803095   -2.680993   -4.987785
     21          6           0       -5.276407   -5.131790   -2.625526
     22          8           0       -5.363998   -5.928144   -1.629171
     23          6           0       -5.012643   -5.634334   -3.986011
     24          7           0       -5.940076   -1.639440    1.505447
     25          6           0       -6.048257   -2.948208    1.251658
     26          6           0       -6.210683   -3.738055    2.516449
     27          6           0       -5.946546   -2.714897    3.713585
     28          6           0       -5.747437   -1.424193    2.881294
     29          6           0       -7.575175   -4.412839    2.713525
     30          6           0       -4.856418   -3.103915    4.743491
     31          6           0       -3.495841   -3.082137    4.083601
     32          7           0       -5.250039    1.211136    1.575261
     33          6           0       -5.430155    1.016030    2.952275
     34          6           0       -5.385009    2.346312    3.586610
     35          6           0       -5.197112    3.230098    2.525732
     36          6           0       -5.155457    2.500619    1.303269
     37          6           0       -5.568406    2.615809    4.971591
     38          6           0       -5.046497    4.623253    2.138058
     39          8           0       -4.911176    5.683848    2.749874
     40          6           0       -5.180793    4.719958    0.554253
     41          6           0       -4.045290    5.570004    0.052891
     42          8           0       -2.864624    5.174602    0.136870
     43          8           0       -4.538273    6.597650   -0.655242
     44          6           0       -3.462406    7.464198   -1.206385
     45          1           0       -6.629782   -0.066760   -4.263018
     46          1           0       -5.980860   -4.510047    0.069431
     47          1           0       -5.657597   -0.150983    4.578672
     48          1           0       -6.118834    4.496498   -2.437527
     49          1           0       -6.087928    2.462108   -4.388874
     50          1           0       -8.176886    3.415666   -2.467190
     51          1           0       -8.309198    1.693903   -2.940784
     52          1           0       -8.369097    2.901513   -4.193251
     53          1           0       -3.852799    2.924418   -3.680490
     54          1           0       -3.447076    4.097084   -2.364162
     55          1           0       -5.059861    5.427305   -4.291967
     56          1           0       -4.127757    4.308101   -5.211977
     57          1           0       -6.113970   -1.739024   -5.437893
     58          1           0       -6.614550   -3.371843   -5.215770
     59          1           0       -4.874252   -3.047841   -5.424825
     60          1           0       -5.861464   -5.397697   -4.627925
     61          1           0       -4.770990   -6.690778   -3.874742
     62          1           0       -4.156920   -5.100193   -4.399992
     63          1           0       -5.481775   -4.545713    2.569453
     64          1           0       -6.839028   -2.554398    4.318886
     65          1           0       -7.513390   -5.491852    2.857120
     66          1           0       -8.199520   -4.167720    1.854805
     67          1           0       -8.168960   -4.012060    3.534630
     68          1           0       -5.021259   -4.118276    5.105218
     69          1           0       -4.827772   -2.443317    5.610117
     70          1           0       -3.439079   -4.061787    3.610424
     71          1           0       -2.711793   -2.964180    4.832310
     72          1           0       -3.449486   -2.334513    3.291519
     73          1           0       -4.805752    3.345275    5.243999
     74          1           0       -5.478451    1.707535    5.567031
     75          1           0       -6.583140    3.013493    4.967283
     76          1           0       -6.151261    5.170668    0.348891
     77          1           0       -3.658025    8.478807   -0.859203
     78          1           0       -3.446652    7.291932   -2.282713
     79          1           0       -2.460249    7.300246   -0.808715
     80         12           0        5.207056   -1.246511    0.178161
     81          6           0        5.968484    2.258121    0.307952
     82          6           0        5.031546   -0.930388   -3.213581
     83          6           0        4.096147   -4.216178    0.058354
     84          6           0        4.326767   -1.038206    3.543774
     85          7           0        5.484512    0.490866   -1.162289
     86          6           0        5.832029    1.759170   -1.004247
     87          6           0        6.123751    2.515859   -2.327827
     88          6           0        5.252579    1.604757   -3.322726
     89          6           0        5.282288    0.292613   -2.541653
     90          6           0        3.806671    2.056902   -3.442110
     91          6           0        7.645656    2.489027   -2.708745
     92          6           0        8.048369    3.463878   -3.817462
     93          1           0        9.360843    4.099679   -3.742372
     94          7           0        5.119366   -2.524721   -1.337451
     95          6           0        5.077933   -2.225647   -2.652789
     96          6           0        4.998618   -3.515210   -3.356284
     97          6           0        4.830443   -4.592516   -2.343433
     98          6           0        4.650656   -3.800322   -1.143362
     99          6           0        5.161701   -3.642393   -4.843109
    100          6           0        4.818889   -6.088021   -2.441013
    101          8           0        4.419471   -6.823085   -1.469949
    102          6           0        5.200375   -6.663268   -3.739108
    103          7           0        4.138451   -2.407825    1.531582
    104          6           0        3.827073   -3.685496    1.251377
    105          6           0        3.304518   -4.400463    2.474555
    106          6           0        3.558056   -3.401327    3.697267
    107          6           0        4.126806   -2.192384    2.922441
    108          6           0        1.827605   -4.792408    2.435778
    109          6           0        4.367749   -3.954489    4.901883
    110          6           0        5.798060   -4.213958    4.486822
    111          7           0        5.319940    0.257510    1.725175
    112          6           0        4.870755    0.144428    3.059164
    113          6           0        5.057335    1.464872    3.694796
    114          6           0        5.584892    2.267151    2.671793
    115          6           0        5.698860    1.506224    1.477010
    116          6           0        4.707076    1.800945    5.032888
    117          6           0        6.061352    3.587583    2.328083
    118          8           0        6.280067    4.622861    2.955855
    119          6           0        6.212668    3.674854    0.748243
    120          6           0        7.554568    4.281997    0.442995
    121          8           0        8.602305    3.680262    0.737580
    122          8           0        7.381254    5.364609   -0.336935
    123          6           0        8.684811    5.995217   -0.675874
    124          1           0        4.729134   -0.894624   -4.260543
    125          1           0        3.799079   -5.266565    0.102094
    126          1           0        4.168016   -0.918134    4.617584
    127          1           0        5.768699    3.539109   -2.353837
    128          1           0        5.745442    1.487332   -4.284317
    129          1           0        3.572973    2.847739   -2.744897
    130          1           0        3.206394    1.180580   -3.235299
    131          1           0        3.583679    2.337972   -4.475358
    132          1           0        7.874069    1.536505   -3.203972
    133          1           0        8.257938    2.653038   -1.843391
    134          1           0        7.269744    4.211478   -4.011864
    135          1           0        8.127422    2.909076   -4.755520
    136          1           0        5.106702   -2.665342   -5.338841
    137          1           0        4.286383   -4.185561   -5.215484
    138          1           0        6.063481   -4.191381   -5.122511
    139          1           0        4.532769   -6.287502   -4.510831
    140          1           0        5.218099   -7.744055   -3.585923
    141          1           0        6.206369   -6.312526   -3.995135
    142          1           0        3.853360   -5.317482    2.650452
    143          1           0        2.614317   -3.066946    4.152655
    144          1           0        1.659558   -5.875923    2.583556
    145          1           0        1.413301   -4.468837    1.490168
    146          1           0        1.193725   -4.275931    3.154559
    147          1           0        3.958825   -4.915366    5.223832
    148          1           0        4.362117   -3.296768    5.764637
    149          1           0        5.744503   -5.202787    4.021588
    150          1           0        6.453621   -4.221350    5.355278
    151          1           0        6.119122   -3.503893    3.715864
    152          1           0        5.527275    2.382167    5.432804
    153          1           0        4.520832    0.911071    5.630560
    154          1           0        3.793905    2.375779    4.856954
    155          1           0        5.391509    4.287306    0.373839
    156          1           0        8.623833    7.042422   -0.363931
    157          1           0        8.840494    5.798833   -1.753349
    158          1           0        9.559643    5.662425   -0.129628
 ---------------------------------------------------------------------

 SCF Done:  E(RCAM-B3LYP) =  -4069.81143783     A.U. after   19 cycles

 Excitation energies and oscillator strengths:

 Excited State   1:      Singlet-A      1.6570 eV  748.26 nm  f=0.0028  <S**2>=0.000
     309 -> 315        0.11294
     310 -> 316       -0.12603
     311 -> 313        0.45687
     312 -> 314        0.51324
 This state for optimization and/or second-order correction.
 Total Energy, E(TD-HF/TD-DFT) =  -4069.75054503
 Copying the excited state density for this state as the 1-particle RhoCI density.

 Excited State   2:      Singlet-A      1.6969 eV  730.65 nm  f=0.7182  <S**2>=0.000
     309 -> 315        0.13451
     310 -> 316        0.11892
     311 -> 313        0.51135
     312 -> 314       -0.45524

 Excited State   3:      Singlet-A      2.1829 eV  567.99 nm  f=0.0261  <S**2>=0.000
     309 -> 313       -0.26916
     310 -> 314        0.58513
     311 -> 315        0.11217
     312 -> 316        0.24569

 Excited State   4:      Singlet-A      2.1948 eV  564.90 nm  f=0.1557  <S**2>=0.000
     309 -> 313        0.58152
     310 -> 314        0.26594
     311 -> 315       -0.25483
     312 -> 316        0.11782

 Excited State   5:      Singlet-A      2.4938 eV  497.17 nm  f=0.0000  <S**2>=0.000
     312 -> 313        0.70708

 The electronic state is 1-A.
 Alpha  occ. eigenvalues --  -46.87852 -46.87492 -19.26317 -19.26191 -19.19053
 Alpha  occ. eigenvalues --  -19.19000 -19.18845 -19.18579 -19.18200 -19.17854
 Alpha  occ. eigenvalues --  -14.42509 -14.42331 -14.41507 -14.41192 -14.39456
 Alpha  occ. eigenvalues --  -14.39188 -14.38639 -14.38423 -10.39114 -10.38925
 Alpha  occ. eigenvalues --  -10.35479 -10.35260 -10.34421 -10.34029 -10.31709
 Alpha  occ. eigenvalues --  -10.31619 -10.31464 -10.31136 -10.30968 -10.30868
 Alpha  occ. eigenvalues --  -10.30625 -10.30557 -10.30267 -10.30223 -10.30185
 Alpha  occ. eigenvalues --  -10.29990 -10.29974 -10.29717 -10.29680 -10.29307
 Alpha  occ. eigenvalues --  -10.29279 -10.29234 -10.28824 -10.28654 -10.28568
 Alpha  occ. eigenvalues --  -10.28554 -10.28415 -10.28235 -10.28188 -10.27987
 Alpha  occ. eigenvalues --  -10.27840 -10.27828 -10.27787 -10.27634 -10.27573
 Alpha  occ. eigenvalues --  -10.27551 -10.27512 -10.27509 -10.27457 -10.27374
 Alpha  occ. eigenvalues --  -10.27373 -10.27313 -10.27307 -10.27218 -10.27197
 Alpha  occ. eigenvalues --  -10.26851 -10.26805 -10.26568 -10.26439 -10.26323
 Alpha  occ. eigenvalues --  -10.26296 -10.26286 -10.26079 -10.26020 -10.25879
 Alpha  occ. eigenvalues --  -10.25850 -10.25771 -10.25625 -10.25483 -10.25223
 Alpha  occ. eigenvalues --  -10.24878 -10.24839 -10.24826 -10.24691 -10.24617
 Alpha  occ. eigenvalues --  -10.24521  -3.16595  -3.16241  -1.91477  -1.91124
 Alpha  occ. eigenvalues --   -1.91063  -1.90905  -1.90712  -1.90549  -1.16666
 Alpha  occ. eigenvalues --   -1.16484  -1.08656  -1.08458  -1.07244  -1.06834
 Alpha  occ. eigenvalues --   -1.06783  -1.06675  -1.04639  -1.04329  -1.03817
 Alpha  occ. eigenvalues --   -1.03497  -1.03287  -1.02870  -1.02465  -1.01941
 Alpha  occ. eigenvalues --   -0.92022  -0.91809  -0.89588  -0.89339  -0.89261
 Alpha  occ. eigenvalues --   -0.88998  -0.88352  -0.88066  -0.87916  -0.87736
 Alpha  occ. eigenvalues --   -0.87604  -0.87524  -0.87324  -0.86985  -0.85051
 Alpha  occ. eigenvalues --   -0.84850  -0.84007  -0.83724  -0.83017  -0.82807
 Alpha  occ. eigenvalues --   -0.82709  -0.82507  -0.81633  -0.81434  -0.80648
 Alpha  occ. eigenvalues --   -0.80285  -0.78849  -0.78483  -0.77286  -0.77001
 Alpha  occ. eigenvalues --   -0.76993  -0.76746  -0.75980  -0.75679  -0.74958
 Alpha  occ. eigenvalues --   -0.74642  -0.72829  -0.72529  -0.71727  -0.71414
 Alpha  occ. eigenvalues --   -0.69992  -0.69617  -0.68938  -0.68678  -0.67692
 Alpha  occ. eigenvalues --   -0.67441  -0.67291  -0.67066  -0.65354  -0.65117
 Alpha  occ. eigenvalues --   -0.64908  -0.64681  -0.64609  -0.64498  -0.64335
 Alpha  occ. eigenvalues --   -0.64050  -0.62343  -0.62119  -0.60494  -0.60193
 Alpha  occ. eigenvalues --   -0.59868  -0.59637  -0.59042  -0.58827  -0.58557
 Alpha  occ. eigenvalues --   -0.58261  -0.57626  -0.57372  -0.57362  -0.57078
 Alpha  occ. eigenvalues --   -0.56360  -0.56043  -0.56026  -0.55735  -0.55569
 Alpha  occ. eigenvalues --   -0.55398  -0.55304  -0.55088  -0.54579  -0.54334
 Alpha  occ. eigenvalues --   -0.53966  -0.53763  -0.53352  -0.53279  -0.53075
 Alpha  occ. eigenvalues --   -0.52991  -0.52969  -0.52812  -0.52751  -0.52544
 Alpha  occ. eigenvalues --   -0.52525  -0.52267  -0.51956  -0.51680  -0.51677
 Alpha  occ. eigenvalues --   -0.51517  -0.51252  -0.51035  -0.50626  -0.50360
 Alpha  occ. eigenvalues --   -0.50105  -0.49972  -0.49835  -0.49718  -0.49570
 Alpha  occ. eigenvalues --   -0.49344  -0.49263  -0.49157  -0.49043  -0.48936
 Alpha  occ. eigenvalues --   -0.48643  -0.48513  -0.48485  -0.48394  -0.48216
 Alpha  occ. eigenvalues --   -0.48194  -0.47754  -0.47450  -0.47350  -0.46973
 Alpha  occ. eigenvalues --   -0.46862  -0.46624  -0.46554  -0.46416  -0.46409
 Alpha  occ. eigenvalues --   -0.46213  -0.46114  -0.45913  -0.45868  -0.45646
 Alpha  occ. eigenvalues --   -0.45263  -0.45046  -0.44624  -0.44572  -0.44355
 Alpha  occ. eigenvalues --   -0.44321  -0.44210  -0.44152  -0.44065  -0.43969
 Alpha  occ. eigenvalues --   -0.43932  -0.43788  -0.43542  -0.43450  -0.43396
 Alpha  occ. eigenvalues --   -0.43226  -0.43082  -0.42773  -0.42758  -0.42730
 Alpha  occ. eigenvalues --   -0.42712  -0.42408  -0.42084  -0.41819  -0.41756
 Alpha  occ. eigenvalues --   -0.41606  -0.41496  -0.41313  -0.41198  -0.40945
 Alpha  occ. eigenvalues --   -0.40870  -0.40826  -0.40639  -0.40591  -0.40559
 Alpha  occ. eigenvalues --   -0.40340  -0.40319  -0.40098  -0.39534  -0.39288
 Alpha  occ. eigenvalues --   -0.38539  -0.38198  -0.37830  -0.37518  -0.37385
 Alpha  occ. eigenvalues --   -0.37330  -0.37111  -0.37044  -0.36758  -0.36614
 Alpha  occ. eigenvalues --   -0.36247  -0.36060  -0.34341  -0.34085  -0.33807
 Alpha  occ. eigenvalues --   -0.33699  -0.33239  -0.33008  -0.31376  -0.31137
 Alpha  occ. eigenvalues --   -0.31088  -0.30807  -0.30060  -0.29757  -0.29496
 Alpha  occ. eigenvalues --   -0.29368  -0.29169  -0.29026  -0.24135  -0.23865
 Alpha  occ. eigenvalues --   -0.21183  -0.20950
 Alpha virt. eigenvalues --   -0.08825  -0.08624  -0.01804  -0.01521  -0.00103
 Alpha virt. eigenvalues --    0.00123   0.02158   0.02393   0.03045   0.03383
 Alpha virt. eigenvalues --    0.04649   0.04889   0.05062   0.05332   0.06090

 Mulliken charges:
               1
     1  Mg   0.838700
     2  C   -0.002956
     3  C   -0.094537
     4  C   -0.045658
     5  C   -0.064082
     6  N   -0.256729
     7  C   -0.052603
     8  C   -0.013935
     9  C   -0.086949
    10  C    0.046231
    11  C    0.104807
    12  C    0.053658
    13  C   -0.071488
    14  H    0.035364
    15  N   -0.433167
    16  C    0.168388
    17  C   -0.177356
    18  C   -0.003827
    19  C    0.148753
    20  C    0.110273
    21  C    0.012742
    22  O   -0.249106
    23  C    0.062421
    24  N   -0.341029
    25  C    0.041066
    26  C   -0.028280
    27  C   -0.023935
    28  C    0.074640
    29  C    0.076096
    30  C    0.035218
    31  C   -0.004968
    32  N   -0.310529
    33  C    0.080386
    34  C   -0.169686
    35  C    0.008595
    36  C    0.083020
    37  C    0.127265
    38  C    0.046359
    39  O   -0.187774
    40  C   -0.005464
    41  C    0.213040
    42  O   -0.257030
    43  O   -0.304831
    44  C    0.157484
    45  H   -0.017711
    46  H   -0.016582
    47  H   -0.041539
    48  H    0.001137
    49  H   -0.004440
    50  H    0.025643
    51  H    0.016577
    52  H    0.016610
    53  H    0.010519
    54  H    0.044088
    55  H    0.018308
    56  H    0.017448
    57  H    0.005571
    58  H    0.026987
    59  H    0.038970
    60  H    0.037093
    61  H    0.036298
    62  H    0.031182
    63  H    0.016657
    64  H    0.009687
    65  H    0.023432
    66  H    0.012677
    67  H    0.004819
    68  H    0.006525
    69  H    0.004741
    70  H    0.009227
    71  H    0.016433
    72  H    0.029420
    73  H    0.047970
    74  H    0.008902
    75  H    0.046194
    76  H    0.035241
    77  H    0.043434
    78  H    0.045871
    79  H    0.054085
    80  Mg   0.838220
    81  C   -0.016465
    82  C   -0.088060
    83  C   -0.045563
    84  C   -0.064309
    85  N   -0.254527
    86  C   -0.049094
    87  C   -0.015130
    88  C   -0.090716
    89  C    0.045999
    90  C    0.114396
    91  C    0.062636
    92  C   -0.077561
    93  H    0.034453
    94  N   -0.423361
    95  C    0.162790
    96  C   -0.175393
    97  C   -0.008074
    98  C    0.151863
    99  C    0.099761
   100  C    0.015229
   101  O   -0.253198
   102  C    0.061385
   103  N   -0.349895
   104  C    0.037410
   105  C   -0.019789
   106  C   -0.034722
   107  C    0.089140
   108  C    0.073450
   109  C    0.034749
   110  C   -0.007577
   111  N   -0.324417
   112  C    0.079000
   113  C   -0.162159
   114  C    0.003154
   115  C    0.096380
   116  C    0.131045
   117  C    0.043407
   118  O   -0.187207
   119  C    0.000509
   120  C    0.211035
   121  O   -0.251425
   122  O   -0.305342
   123  C    0.152174
   124  H   -0.020762
   125  H   -0.015622
   126  H   -0.040488
   127  H   -0.000316
   128  H   -0.005197
   129  H    0.024629
   130  H    0.014516
   131  H    0.014660
   132  H    0.013652
   133  H    0.037657
   134  H    0.020666
   135  H    0.019102
   136  H    0.008107
   137  H    0.024889
   138  H    0.039302
   139  H    0.037532
   140  H    0.036086
   141  H    0.033672
   142  H    0.014026
   143  H    0.012259
   144  H    0.025022
   145  H    0.012426
   146  H    0.005636
   147  H    0.005780
   148  H    0.003434
   149  H    0.010816
   150  H    0.017606
   151  H    0.030282
   152  H    0.045677
   153  H    0.007831
   154  H    0.049718
   155  H    0.036872
   156  H    0.043870
   157  H    0.049070
   158  H    0.053327
 Sum of Mulliken charges =  -0.00000

 Dipole moment (field-independent basis, Debye):
    X=             -3.6994    Y=             -1.8387    Z=             -7.7919  Tot=              8.8193
 Quadrupole moment (field-independent basis, Debye-Ang):
   XX=           -512.3418   YY=           -552.9529   ZZ=           -447.1785
   XY=             -5.0892   XZ=            -15.8943   YZ=            -43.1841

 Normal termination of Gaussian 16 at Fri Sep 10 11:52:19 2021.
