 Gaussian 16, Revision A.03,
 Gaussian 16:  ES64L-G16RevA.03 25-Dec-2016

 -----------------------------------
 #p cam-b3lyp/Def2SVP td=(nstates=5)
 -----------------------------------

 --------------------------------
 TDDFT excited states in gaussian
 --------------------------------
 Symbolic Z-matrix:
 Charge =  0 Multiplicity = 1

                         Standard orientation:
 ---------------------------------------------------------------------
 Center     Atomic      Atomic             Coordinates (Angstroms)
 Number     Number       Type             X           Y           Z
 ---------------------------------------------------------------------
      1         12           0        4.054982   -1.745973   -0.109284
      2          6           0        5.643945    1.451246   -0.364625
      3          6           0        5.075127   -1.826982    3.145836
      4          6           0        3.059327   -4.754295    0.014374
      5          6           0        4.159520   -1.911202   -3.588858
      6          7           0        5.205630   -0.308979    1.120229
      7          6           0        5.704923    0.906669    0.920039
      8          6           0        6.232356    1.580086    2.222229
      9          6           0        6.515533    0.270279    3.086066
     10          6           0        5.514960   -0.669722    2.437085
     11          6           0        7.918542   -0.295849    2.892250
     12          6           0        5.153673    2.490875    2.899458
     13          6           0        5.682493    3.434161    3.983853
     14          1           0        5.082959    4.753240    4.117783
     15          7           0        3.631536   -2.892584    1.442756
     16          6           0        4.125496   -2.770806    2.698327
     17          6           0        3.507893   -3.858870    3.486595
     18          6           0        2.762069   -4.737398    2.543181
     19          6           0        3.147755   -4.170815    1.276055
     20          6           0        3.614835   -3.957781    4.977410
     21          6           0        1.855299   -5.909158    2.750251
     22          8           0        1.497861   -6.671037    1.787779
     23          6           0        1.462340   -6.197960    4.141373
     24          7           0        3.860961   -3.238156   -1.556136
     25          6           0        3.349408   -4.435133   -1.248651
     26          6           0        3.045565   -5.232332   -2.482382
     27          6           0        3.231083   -4.231190   -3.712443
     28          6           0        3.715810   -2.984917   -2.931344
     29          6           0        3.912834   -6.479235   -2.703945
     30          6           0        2.030462   -4.074868   -4.679134
     31          6           0        0.883053   -3.394584   -3.966558
     32          7           0        4.603381   -0.404969   -1.725456
     33          6           0        4.590903   -0.689996   -3.098510
     34          6           0        5.146445    0.488212   -3.789354
     35          6           0        5.460915    1.376017   -2.762341
     36          6           0        5.147560    0.779170   -1.507799
     37          6           0        5.356841    0.609909   -5.191266
     38          6           0        6.011626    2.680308   -2.431587
     39          8           0        6.361272    3.664819   -3.084258
     40          6           0        6.265339    2.733287   -0.860394
     41          6           0        5.699644    4.031363   -0.352166
     42          8           0        4.470129    4.244240   -0.370710
     43          8           0        6.660470    4.714329    0.288858
     44          6           0        6.157816    5.999520    0.843634
     45          1           0        5.540303   -2.067759    4.103739
     46          1           0        2.616220   -5.752286    0.003981
     47          1           0        4.144700   -1.857017   -4.678948
     48          1           0        7.153063    2.150457    2.098129
     49          1           0        6.271351    0.415989    4.138143
     50          1           0        8.449783    0.220912    2.093086
     51          1           0        7.775942   -1.346204    2.637469
     52          1           0        8.472603   -0.287845    3.831254
     53          1           0        4.487095    1.872414    3.500492
     54          1           0        4.612415    3.070009    2.150479
     55          1           0        6.769681    3.510352    3.950284
     56          1           0        5.472046    2.988784    4.956248
     57          1           0        4.360399   -3.268624    5.372051
     58          1           0        4.012788   -4.946913    5.203154
     59          1           0        2.649638   -3.829212    5.467510
     60          1           0        2.356675   -6.381163    4.737318
     61          1           0        0.742491   -7.013890    4.087285
     62          1           0        0.987567   -5.312584    4.565222
     63          1           0        2.019043   -5.596365   -2.469789
     64          1           0        4.056884   -4.527243   -4.359807
     65          1           0        3.338445   -7.401302   -2.796543
     66          1           0        4.626306   -6.543728   -1.882915
     67          1           0        4.578012   -6.426172   -3.565420
     68          1           0        1.673450   -5.052400   -5.001497
     69          1           0        2.269569   -3.497935   -5.572570
     70          1           0        0.395214   -4.219264   -3.448149
     71          1           0        0.207806   -2.932639   -4.687571
     72          1           0        1.242003   -2.699294   -3.207472
     73          1           0        5.017557    1.608858   -5.465047
     74          1           0        4.813082   -0.157747   -5.741389
     75          1           0        6.437157    0.476442   -5.245661
     76          1           0        7.343338    2.671565   -0.714685
     77          1           0        6.791367    6.791355    0.443829
     78          1           0        6.123307    5.877261    1.926347
     79          1           0        5.177131    6.324555    0.494422
     80         12           0       -4.212388    1.810138    0.141917
     81          6           0       -5.435229   -1.561360    0.271124
     82          6           0       -3.581908    1.296124   -3.170616
     83          6           0       -2.718150    4.608772    0.093916
     84          6           0       -3.872265    1.672300    3.607614
     85          7           0       -4.513596    0.052217   -1.166229
     86          6           0       -5.043056   -1.153131   -1.020764
     87          6           0       -5.232802   -1.936643   -2.347293
     88          6           0       -4.113251   -1.194297   -3.227286
     89          6           0       -4.086273    0.150799   -2.504327
     90          6           0       -2.737012   -1.827792   -3.109036
     91          6           0       -6.665340   -1.741586   -2.957031
     92          6           0       -7.024034   -2.716175   -4.080990
     93          1           0       -8.404843   -3.179587   -4.186148
     94          7           0       -3.736407    2.985838   -1.384428
     95          6           0       -3.541031    2.614929   -2.667217
     96          6           0       -3.191418    3.845785   -3.393117
     97          6           0       -3.035189    4.945892   -2.403134
     98          6           0       -3.139050    4.201984   -1.163824
     99          6           0       -3.115689    3.913538   -4.890816
    100          6           0       -2.814401    6.421191   -2.547837
    101          8           0       -2.469943    7.151319   -1.552306
    102          6           0       -2.922156    6.969950   -3.907523
    103          7           0       -3.212552    2.899903    1.603110
    104          6           0       -2.699306    4.112562    1.331142
    105          6           0       -2.273890    4.820822    2.595179
    106          6           0       -2.832928    3.926748    3.797545
    107          6           0       -3.434124    2.758394    2.985827
    108          6           0       -0.769012    5.024153    2.769501
    109          6           0       -3.732086    4.638778    4.845025
    110          6           0       -5.039441    5.051207    4.207756
    111          7           0       -4.747145    0.415468    1.703002
    112          6           0       -4.488508    0.542281    3.085431
    113          6           0       -4.937331   -0.709474    3.728943
    114          6           0       -5.408532   -1.493067    2.664786
    115          6           0       -5.245000   -0.788022    1.441805
    116          6           0       -4.834868   -1.015253    5.115349
    117          6           0       -5.997296   -2.760577    2.296709
    118          8           0       -6.439259   -3.726181    2.918000
    119          6           0       -5.924306   -2.911700    0.716131
    120          6           0       -7.274221   -3.363139    0.229863
    121          8           0       -8.266363   -2.621518    0.340509
    122          8           0       -7.130616   -4.498533   -0.477699
    123          6           0       -8.441036   -4.979755   -0.990590
    124          1           0       -3.135847    1.167950   -4.157265
    125          1           0       -2.296309    5.615092    0.147340
    126          1           0       -3.890473    1.590334    4.696468
    127          1           0       -5.014340   -2.995935   -2.284420
    128          1           0       -4.439506   -1.067627   -4.256302
    129          1           0       -2.713750   -2.603577   -2.358204
    130          1           0       -2.064612   -1.022914   -2.842386
    131          1           0       -2.402841   -2.188462   -4.086060
    132          1           0       -6.692086   -0.795568   -3.512981
    133          1           0       -7.414531   -1.782555   -2.190442
    134          1           0       -6.329515   -3.563695   -4.128940
    135          1           0       -6.890976   -2.206142   -5.038159
    136          1           0       -3.116198    2.912407   -5.339307
    137          1           0       -2.131779    4.323630   -5.143007
    138          1           0       -3.887064    4.554510   -5.323002
    139          1           0       -2.202948    6.474149   -4.555105
    140          1           0       -2.821121    8.051173   -3.795142
    141          1           0       -3.916532    6.733531   -4.302419
    142          1           0       -2.718286    5.806776    2.654301
    143          1           0       -2.018342    3.502511    4.402782
    144          1           0       -0.484675    6.084763    2.904856
    145          1           0       -0.265712    4.602279    1.909701
    146          1           0       -0.320770    4.471784    3.593621
    147          1           0       -3.253232    5.557232    5.193329
    148          1           0       -3.939453    4.031896    5.720049
    149          1           0       -4.789404    5.999838    3.723320
    150          1           0       -5.809157    5.185594    4.965066
    151          1           0       -5.333280    4.346701    3.421011
    152          1           0       -5.773772   -1.468437    5.404439
    153          1           0       -4.624220   -0.125017    5.704319
    154          1           0       -3.988620   -1.707286    5.100422
    155          1           0       -5.143946   -3.640077    0.492371
    156          1           0       -8.563802   -6.008522   -0.638091
    157          1           0       -8.409330   -4.822753   -2.085165
    158          1           0       -9.335815   -4.512771   -0.595942
 ---------------------------------------------------------------------

 SCF Done:  E(RCAM-B3LYP) =  -4069.81159944     A.U. after   19 cycles

 Excitation energies and oscillator strengths:

 Excited State   1:      Singlet-A      1.6480 eV  752.35 nm  f=0.0034  <S**2>=0.000
     309 -> 315        0.11288
     310 -> 316        0.12332
     311 -> 313        0.46373
     312 -> 314        0.50782
 This state for optimization and/or second-order correction.
 Total Energy, E(TD-HF/TD-DFT) =  -4069.75103799
 Copying the excited state density for this state as the 1-particle RhoCI density.

 Excited State   2:      Singlet-A      1.7056 eV  726.94 nm  f=0.6952  <S**2>=0.000
     309 -> 315        0.13451
     310 -> 316       -0.12255
     311 -> 313        0.50516
     312 -> 314       -0.46135

 Excited State   3:      Singlet-A      2.1823 eV  568.15 nm  f=0.0106  <S**2>=0.000
     309 -> 313        0.33683
     310 -> 314        0.55035
     311 -> 315       -0.13955
     312 -> 316       -0.22920

 Excited State   4:      Singlet-A      2.1975 eV  564.21 nm  f=0.1629  <S**2>=0.000
     309 -> 313        0.54516
     310 -> 314       -0.33231
     311 -> 315       -0.24094
     312 -> 316        0.14801

 Excited State   5:      Singlet-A      2.3511 eV  527.35 nm  f=0.0000  <S**2>=0.000
     312 -> 313        0.70708

 The electronic state is 1-A.
 Alpha  occ. eigenvalues --  -46.87900 -46.87439 -19.26312 -19.26182 -19.19051
 Alpha  occ. eigenvalues --  -19.18990 -19.18838 -19.18430 -19.18250 -19.17852
 Alpha  occ. eigenvalues --  -14.42551 -14.42279 -14.41567 -14.41138 -14.39497
 Alpha  occ. eigenvalues --  -14.39119 -14.38692 -14.38387 -10.39116 -10.38916
 Alpha  occ. eigenvalues --  -10.35465 -10.35103 -10.34470 -10.34031 -10.31686
 Alpha  occ. eigenvalues --  -10.31612 -10.31512 -10.31116 -10.30991 -10.30788
 Alpha  occ. eigenvalues --  -10.30678 -10.30613 -10.30327 -10.30176 -10.30162
 Alpha  occ. eigenvalues --  -10.30050 -10.29908 -10.29726 -10.29677 -10.29349
 Alpha  occ. eigenvalues --  -10.29198 -10.29185 -10.28834 -10.28626 -10.28526
 Alpha  occ. eigenvalues --  -10.28521 -10.28451 -10.28205 -10.28173 -10.27950
 Alpha  occ. eigenvalues --  -10.27887 -10.27829 -10.27781 -10.27695 -10.27667
 Alpha  occ. eigenvalues --  -10.27616 -10.27531 -10.27497 -10.27453 -10.27330
 Alpha  occ. eigenvalues --  -10.27261 -10.27233 -10.27228 -10.27201 -10.27143
 Alpha  occ. eigenvalues --  -10.26842 -10.26796 -10.26527 -10.26481 -10.26357
 Alpha  occ. eigenvalues --  -10.26313 -10.26150 -10.26109 -10.26004 -10.25996
 Alpha  occ. eigenvalues --  -10.25821 -10.25756 -10.25733 -10.25572 -10.25086
 Alpha  occ. eigenvalues --  -10.25075 -10.24927 -10.24894 -10.24659 -10.24598
 Alpha  occ. eigenvalues --  -10.24445  -3.16643  -3.16189  -1.91524  -1.91111
 Alpha  occ. eigenvalues --   -1.91071  -1.90953  -1.90660  -1.90497  -1.16662
 Alpha  occ. eigenvalues --   -1.16475  -1.08706  -1.08465  -1.07235  -1.06775
 Alpha  occ. eigenvalues --   -1.06675  -1.06674  -1.04679  -1.04277  -1.03872
 Alpha  occ. eigenvalues --   -1.03440  -1.03337  -1.02817  -1.02517  -1.01890
 Alpha  occ. eigenvalues --   -0.92064  -0.91773  -0.89690  -0.89293  -0.89280
 Alpha  occ. eigenvalues --   -0.88960  -0.88447  -0.88007  -0.87986  -0.87777
 Alpha  occ. eigenvalues --   -0.87618  -0.87474  -0.87332  -0.86866  -0.85074
 Alpha  occ. eigenvalues --   -0.84800  -0.84123  -0.83668  -0.83030  -0.82720
 Alpha  occ. eigenvalues --   -0.82676  -0.82435  -0.81662  -0.81411  -0.80677
 Alpha  occ. eigenvalues --   -0.80235  -0.78878  -0.78411  -0.77348  -0.77040
 Alpha  occ. eigenvalues --   -0.76946  -0.76704  -0.76008  -0.75641  -0.75033
 Alpha  occ. eigenvalues --   -0.74570  -0.72890  -0.72495  -0.71775  -0.71359
 Alpha  occ. eigenvalues --   -0.70132  -0.69573  -0.68962  -0.68625  -0.67729
 Alpha  occ. eigenvalues --   -0.67386  -0.67293  -0.66992  -0.65385  -0.65077
 Alpha  occ. eigenvalues --   -0.64959  -0.64729  -0.64566  -0.64456  -0.64416
 Alpha  occ. eigenvalues --   -0.64001  -0.62371  -0.62091  -0.60527  -0.60097
 Alpha  occ. eigenvalues --   -0.59896  -0.59598  -0.59097  -0.58779  -0.58606
 Alpha  occ. eigenvalues --   -0.58215  -0.57662  -0.57416  -0.57362  -0.57017
 Alpha  occ. eigenvalues --   -0.56402  -0.56036  -0.56004  -0.55699  -0.55598
 Alpha  occ. eigenvalues --   -0.55479  -0.55231  -0.55050  -0.54646  -0.54296
 Alpha  occ. eigenvalues --   -0.53984  -0.53723  -0.53402  -0.53282  -0.53028
 Alpha  occ. eigenvalues --   -0.53011  -0.52925  -0.52816  -0.52710  -0.52650
 Alpha  occ. eigenvalues --   -0.52411  -0.52236  -0.52041  -0.51746  -0.51687
 Alpha  occ. eigenvalues --   -0.51450  -0.51313  -0.51011  -0.50617  -0.50214
 Alpha  occ. eigenvalues --   -0.50202  -0.49979  -0.49759  -0.49638  -0.49580
 Alpha  occ. eigenvalues --   -0.49295  -0.49261  -0.49183  -0.48993  -0.48911
 Alpha  occ. eigenvalues --   -0.48688  -0.48577  -0.48490  -0.48366  -0.48160
 Alpha  occ. eigenvalues --   -0.48084  -0.47789  -0.47383  -0.47379  -0.46935
 Alpha  occ. eigenvalues --   -0.46882  -0.46640  -0.46517  -0.46474  -0.46351
 Alpha  occ. eigenvalues --   -0.46274  -0.46059  -0.45920  -0.45885  -0.45650
 Alpha  occ. eigenvalues --   -0.45343  -0.44954  -0.44686  -0.44595  -0.44327
 Alpha  occ. eigenvalues --   -0.44295  -0.44268  -0.44171  -0.44081  -0.43923
 Alpha  occ. eigenvalues --   -0.43867  -0.43710  -0.43582  -0.43493  -0.43373
 Alpha  occ. eigenvalues --   -0.43193  -0.43131  -0.42876  -0.42743  -0.42728
 Alpha  occ. eigenvalues --   -0.42694  -0.42342  -0.42165  -0.41805  -0.41779
 Alpha  occ. eigenvalues --   -0.41632  -0.41463  -0.41263  -0.41242  -0.41006
 Alpha  occ. eigenvalues --   -0.40862  -0.40775  -0.40718  -0.40525  -0.40455
 Alpha  occ. eigenvalues --   -0.40317  -0.40290  -0.40025  -0.39673  -0.39247
 Alpha  occ. eigenvalues --   -0.38625  -0.38140  -0.37842  -0.37475  -0.37460
 Alpha  occ. eigenvalues --   -0.37353  -0.37061  -0.36994  -0.36791  -0.36591
 Alpha  occ. eigenvalues --   -0.36289  -0.36011  -0.34392  -0.34040  -0.33813
 Alpha  occ. eigenvalues --   -0.33681  -0.33286  -0.32958  -0.31373  -0.31131
 Alpha  occ. eigenvalues --   -0.30992  -0.30745  -0.30111  -0.29761  -0.29531
 Alpha  occ. eigenvalues --   -0.29417  -0.29091  -0.28996  -0.24185  -0.23814
 Alpha  occ. eigenvalues --   -0.21234  -0.20896
 Alpha virt. eigenvalues --   -0.08868  -0.08564  -0.01853  -0.01454  -0.00119
 Alpha virt. eigenvalues --    0.00219   0.02103   0.02404   0.02836   0.03491
 Alpha virt. eigenvalues --    0.04614   0.04925   0.05052   0.05345   0.06081

 Mulliken charges:
               1
     1  Mg   0.838733
     2  C   -0.002533
     3  C   -0.094018
     4  C   -0.046002
     5  C   -0.064794
     6  N   -0.256665
     7  C   -0.052659
     8  C   -0.013938
     9  C   -0.087032
    10  C    0.046388
    11  C    0.104742
    12  C    0.053440
    13  C   -0.071864
    14  H    0.036052
    15  N   -0.433317
    16  C    0.168731
    17  C   -0.176762
    18  C   -0.003369
    19  C    0.148948
    20  C    0.110155
    21  C    0.013033
    22  O   -0.249183
    23  C    0.062204
    24  N   -0.340935
    25  C    0.041088
    26  C   -0.028509
    27  C   -0.023804
    28  C    0.074123
    29  C    0.076045
    30  C    0.037192
    31  C   -0.010151
    32  N   -0.310334
    33  C    0.079918
    34  C   -0.170780
    35  C    0.008453
    36  C    0.082825
    37  C    0.127519
    38  C    0.046100
    39  O   -0.188407
    40  C   -0.005308
    41  C    0.212746
    42  O   -0.256388
    43  O   -0.305008
    44  C    0.157204
    45  H   -0.017193
    46  H   -0.016591
    47  H   -0.042594
    48  H    0.001195
    49  H   -0.003974
    50  H    0.025621
    51  H    0.016514
    52  H    0.016938
    53  H    0.010639
    54  H    0.044361
    55  H    0.018247
    56  H    0.017708
    57  H    0.005785
    58  H    0.027382
    59  H    0.040232
    60  H    0.037035
    61  H    0.037597
    62  H    0.032261
    63  H    0.016197
    64  H    0.009754
    65  H    0.023499
    66  H    0.013171
    67  H    0.004792
    68  H    0.006169
    69  H    0.003413
    70  H    0.009911
    71  H    0.017268
    72  H    0.030831
    73  H    0.046735
    74  H    0.007922
    75  H    0.046339
    76  H    0.035249
    77  H    0.043164
    78  H    0.046107
    79  H    0.054952
    80  Mg   0.837689
    81  C   -0.016841
    82  C   -0.087491
    83  C   -0.042602
    84  C   -0.065590
    85  N   -0.254610
    86  C   -0.050185
    87  C   -0.015046
    88  C   -0.091929
    89  C    0.045988
    90  C    0.112701
    91  C    0.062747
    92  C   -0.077566
    93  H    0.034319
    94  N   -0.424103
    95  C    0.163543
    96  C   -0.172698
    97  C   -0.005839
    98  C    0.152397
    99  C    0.098560
   100  C    0.017199
   101  O   -0.252336
   102  C    0.060915
   103  N   -0.349972
   104  C    0.038035
   105  C   -0.020218
   106  C   -0.034018
   107  C    0.088559
   108  C    0.072278
   109  C    0.034962
   110  C   -0.007499
   111  N   -0.323839
   112  C    0.078056
   113  C   -0.164362
   114  C    0.001991
   115  C    0.095723
   116  C    0.131712
   117  C    0.041889
   118  O   -0.188968
   119  C    0.000924
   120  C    0.210968
   121  O   -0.251418
   122  O   -0.305324
   123  C    0.152252
   124  H   -0.019658
   125  H   -0.014201
   126  H   -0.042085
   127  H   -0.000621
   128  H   -0.005283
   129  H    0.024020
   130  H    0.015851
   131  H    0.016549
   132  H    0.013771
   133  H    0.037547
   134  H    0.020496
   135  H    0.019178
   136  H    0.008057
   137  H    0.028876
   138  H    0.039282
   139  H    0.040067
   140  H    0.036243
   141  H    0.032736
   142  H    0.013810
   143  H    0.010732
   144  H    0.024035
   145  H    0.019369
   146  H    0.003264
   147  H    0.005482
   148  H    0.002459
   149  H    0.010982
   150  H    0.017149
   151  H    0.030471
   152  H    0.045495
   153  H    0.007629
   154  H    0.044675
   155  H    0.036018
   156  H    0.043716
   157  H    0.049236
   158  H    0.053182
 Sum of Mulliken charges =  -0.00000

 Dipole moment (field-independent basis, Debye):
    X=              3.9530    Y=             -1.3848    Z=             -0.0150  Tot=              4.1885
 Quadrupole moment (field-independent basis, Debye-Ang):
   XX=           -530.3587   YY=           -541.0366   ZZ=           -448.8392
   XY=            -22.1130   XZ=             56.9516   YZ=             33.4820

 Normal termination of Gaussian 16 at Fri Sep  3 20:19:37 2021.
