 Gaussian 16, Revision A.03,
 Gaussian 16:  ES64L-G16RevA.03 25-Dec-2016

 -----------------------------------
 #p cam-b3lyp/Def2SVP td=(nstates=5)
 -----------------------------------

 --------------------------------
 TDDFT excited states in gaussian
 --------------------------------
 Symbolic Z-matrix:
 Charge =  0 Multiplicity = 1

                         Standard orientation:
 ---------------------------------------------------------------------
 Center     Atomic      Atomic             Coordinates (Angstroms)
 Number     Number       Type             X           Y           Z
 ---------------------------------------------------------------------
      1         12           0        6.687225    0.526890    1.026522
      2          6           0        7.237659   -2.395521   -0.965650
      3          6           0        7.959645    2.349635   -1.562226
      4          6           0        6.634807    3.063253    2.929346
      5          6           0        6.538749   -1.573993    3.803193
      6          7           0        7.464717   -0.062342   -0.960677
      7          6           0        7.565390   -1.209046   -1.625586
      8          6           0        7.980401   -1.024664   -3.115936
      9          6           0        8.708868    0.388914   -3.001353
     10          6           0        7.977540    0.941623   -1.790735
     11          6           0       10.194468    0.283825   -2.672036
     12          6           0        6.743372   -0.955730   -4.073401
     13          6           0        7.061761   -1.104410   -5.563997
     14          1           0        6.114457   -1.807698   -6.415671
     15          7           0        6.753678    2.453663    0.595265
     16          6           0        7.295108    3.017718   -0.511072
     17          6           0        7.094409    4.475492   -0.365143
     18          6           0        6.562412    4.726853    1.003027
     19          6           0        6.654907    3.410308    1.580548
     20          6           0        7.352380    5.456036   -1.467747
     21          6           0        6.061517    5.960286    1.685581
     22          8           0        5.863310    6.006294    2.947790
     23          6           0        5.890962    7.155711    0.840056
     24          7           0        6.818106    0.751150    3.097805
     25          6           0        6.709417    1.955332    3.669746
     26          6           0        6.549497    1.841083    5.156794
     27          6           0        6.326781    0.289145    5.459514
     28          6           0        6.488222   -0.257689    4.019660
     29          6           0        7.722973    2.361862    5.998075
     30          6           0        5.055465   -0.096427    6.256703
     31          6           0        3.823825    0.181022    5.424127
     32          7           0        6.677077   -1.616120    1.370683
     33          6           0        6.632000   -2.270820    2.610042
     34          6           0        6.755409   -3.715157    2.340360
     35          6           0        6.881174   -3.799709    0.955124
     36          6           0        6.865364   -2.489433    0.397254
     37          6           0        6.800405   -4.745152    3.320932
     38          6           0        7.049977   -4.690677   -0.181335
     39          8           0        7.037611   -5.912944   -0.334316
     40          6           0        7.409843   -3.810686   -1.458808
     41          6           0        6.532834   -4.272524   -2.590564
     42          8           0        5.298196   -4.093867   -2.557128
     43          8           0        7.301251   -4.632889   -3.629897
     44          6           0        6.492012   -5.073743   -4.797345
     45          1           0        8.554942    2.996960   -2.209166
     46          1           0        6.505651    3.903907    3.614223
     47          1           0        6.415786   -2.295590    4.612904
     48          1           0        8.678526   -1.774057   -3.489372
     49          1           0        8.523236    1.014335   -3.874343
     50          1           0       10.480067   -0.742712   -2.442744
     51          1           0       10.345951    0.924297   -1.802932
     52          1           0       10.799593    0.714103   -3.470448
     53          1           0        6.341964    0.057639   -4.069607
     54          1           0        5.993933   -1.695295   -3.789304
     55          1           0        8.071442   -1.485423   -5.719824
     56          1           0        7.075311   -0.110394   -6.011153
     57          1           0        7.893055    4.996348   -2.294126
     58          1           0        8.041396    6.203282   -1.074570
     59          1           0        6.437515    5.942021   -1.807117
     60          1           0        6.847012    7.413111    0.383698
     61          1           0        5.441083    7.914503    1.479348
     62          1           0        5.214705    6.914248    0.019494
     63          1           0        5.680444    2.400420    5.500762
     64          1           0        7.144806   -0.135476    6.041928
     65          1           0        7.439503    3.132533    6.715303
     66          1           0        8.491119    2.725693    5.316261
     67          1           0        8.267154    1.594489    6.548003
     68          1           0        4.975657    0.508812    7.159067
     69          1           0        5.037232   -1.144059    6.557345
     70          1           0        3.646182    1.241670    5.598199
     71          1           0        2.983687   -0.418479    5.776231
     72          1           0        4.025721    0.054749    4.360276
     73          1           0        6.160257   -5.546204    2.951480
     74          1           0        6.461676   -4.383063    4.291374
     75          1           0        7.863438   -4.985462    3.312731
     76          1           0        8.466624   -3.976307   -1.665948
     77          1           0        6.828137   -6.076738   -5.060510
     78          1           0        6.587411   -4.293650   -5.552831
     79          1           0        5.433074   -5.254316   -4.609243
     80         12           0       -6.379849    0.387061   -1.017408
     81          6           0       -8.231328   -1.682812    1.255632
     82          6           0       -8.523356    2.918672   -0.223093
     83          6           0       -5.057326    2.101290   -3.336840
     84          6           0       -5.143461   -2.537173   -2.454721
     85          7           0       -8.113105    0.483030    0.353319
     86          6           0       -8.685522   -0.348207    1.211053
     87          6           0       -9.754137    0.307329    2.126408
     88          6           0      -10.143671    1.551330    1.188531
     89          6           0       -8.836565    1.689739    0.410717
     90          6           0      -11.255570    1.236139    0.201784
     91          6           0       -9.155951    0.785602    3.495867
     92          6           0      -10.194494    1.152125    4.558340
     93          1           0       -9.894684    0.855133    5.956334
     94          7           0       -6.404417    2.344891   -1.341275
     95          6           0       -7.338529    3.226512   -0.927191
     96          6           0       -6.909775    4.537222   -1.439426
     97          6           0       -5.734282    4.331676   -2.328622
     98          6           0       -5.698472    2.884161   -2.387848
     99          6           0       -7.549598    5.826468   -1.012924
    100          6           0       -4.804989    5.280992   -3.022469
    101          8           0       -3.998036    4.885965   -3.936591
    102          6           0       -4.933089    6.701657   -2.666397
    103          7           0       -5.429623   -0.136083   -2.791031
    104          6           0       -4.898726    0.802796   -3.593891
    105          6           0       -4.031725    0.180251   -4.662132
    106          6           0       -3.896119   -1.361850   -4.260708
    107          6           0       -4.821948   -1.383947   -3.024692
    108          6           0       -4.558024    0.288997   -6.093066
    109          6           0       -2.456747   -1.927540   -4.116279
    110          6           0       -1.770768   -1.295488   -2.926601
    111          7           0       -6.474407   -1.725143   -0.572765
    112          6           0       -5.906940   -2.780384   -1.320118
    113          6           0       -6.337488   -4.043429   -0.686273
    114          6           0       -7.150787   -3.632629    0.380630
    115          6           0       -7.238455   -2.214348    0.397480
    116          6           0       -6.013429   -5.353704   -1.138245
    117          6           0       -7.963690   -4.076653    1.490007
    118          8           0       -8.193425   -5.163833    2.018203
    119          6           0       -8.801878   -2.838660    2.029654
    120          6           0       -8.674659   -2.809368    3.528148
    121          8           0       -7.574704   -2.588901    4.064889
    122          8           0       -9.903762   -2.829569    4.075195
    123          6           0       -9.830205   -2.790729    5.560082
    124          1           0       -9.272612    3.710798   -0.218007
    125          1           0       -4.493117    2.648012   -4.095945
    126          1           0       -4.721232   -3.488925   -2.784218
    127          1           0      -10.628221   -0.304531    2.314509
    128          1           0      -10.333760    2.445252    1.776871
    129          1           0      -11.520120    0.189230    0.213835
    130          1           0      -10.874652    1.518944   -0.770817
    131          1           0      -12.118380    1.882320    0.387080
    132          1           0       -8.677474    1.763423    3.355634
    133          1           0       -8.477082    0.055086    3.891001
    134          1           0      -11.197125    0.793386    4.295717
    135          1           0      -10.296883    2.239746    4.582860
    136          1           0       -8.493220    5.650832   -0.481771
    137          1           0       -7.846013    6.353771   -1.926136
    138          1           0       -6.872041    6.463915   -0.440870
    139          1           0       -5.946390    7.036363   -2.875300
    140          1           0       -4.126399    7.210061   -3.198049
    141          1           0       -4.783498    6.806400   -1.585992
    142          1           0       -3.046085    0.629188   -4.670470
    143          1           0       -4.357904   -2.020327   -5.011046
    144          1           0       -3.848608    0.784363   -6.782577
    145          1           0       -5.500282    0.820204   -6.070733
    146          1           0       -4.836616   -0.656262   -6.555740
    147          1           0       -1.858338   -1.668681   -4.993234
    148          1           0       -2.425309   -3.006970   -4.012145
    149          1           0       -1.397920   -0.349510   -3.330579
    150          1           0       -0.954561   -1.924167   -2.576445
    151          1           0       -2.492985   -1.055202   -2.137724
    152          1           0       -5.755710   -5.931041   -0.260314
    153          1           0       -5.196833   -5.335728   -1.857004
    154          1           0       -6.961483   -5.640372   -1.601163
    155          1           0       -9.835065   -2.977876    1.709156
    156          1           0      -10.384245   -3.658897    5.930233
    157          1           0      -10.205591   -1.791845    5.851757
    158          1           0       -8.860649   -2.947569    6.018137
 ---------------------------------------------------------------------

 SCF Done:  E(RCAM-B3LYP) =  -4069.81190857     A.U. after   19 cycles

 Excitation energies and oscillator strengths:

 Excited State   1:      Singlet-A      1.6650 eV  744.63 nm  f=0.0101  <S**2>=0.000
     309 -> 315       -0.10898
     310 -> 316        0.13210
     311 -> 314       -0.43539
     312 -> 313        0.53093
 This state for optimization and/or second-order correction.
 Total Energy, E(TD-HF/TD-DFT) =  -4069.75071933
 Copying the excited state density for this state as the 1-particle RhoCI density.

 Excited State   2:      Singlet-A      1.6889 eV  734.12 nm  f=0.7345  <S**2>=0.000
     309 -> 315        0.13760
     310 -> 316        0.11216
     311 -> 314        0.52976
     312 -> 313        0.43452

 Excited State   3:      Singlet-A      2.1847 eV  567.50 nm  f=0.0636  <S**2>=0.000
     309 -> 314        0.15100
     310 -> 313        0.62494
     312 -> 316       -0.26459

 Excited State   4:      Singlet-A      2.1931 eV  565.34 nm  f=0.1301  <S**2>=0.000
     309 -> 314        0.62276
     310 -> 313       -0.14970
     311 -> 315       -0.27093

 Excited State   5:      Singlet-A      2.7115 eV  457.26 nm  f=0.0000  <S**2>=0.000
     312 -> 314        0.70703

 The electronic state is 1-A.
 Alpha  occ. eigenvalues --  -46.87697 -46.87548 -19.26264 -19.26249 -19.19069
 Alpha  occ. eigenvalues --  -19.18981 -19.18718 -19.18643 -19.18085 -19.17948
 Alpha  occ. eigenvalues --  -14.42391 -14.42355 -14.41348 -14.41241 -14.39303
 Alpha  occ. eigenvalues --  -14.39245 -14.38488 -14.38486 -10.39036 -10.38998
 Alpha  occ. eigenvalues --  -10.35352 -10.35323 -10.34306 -10.34125 -10.31680
 Alpha  occ. eigenvalues --  -10.31662 -10.31313 -10.31199 -10.30929 -10.30820
 Alpha  occ. eigenvalues --  -10.30472 -10.30407 -10.30284 -10.30245 -10.30101
 Alpha  occ. eigenvalues --  -10.30021 -10.29819 -10.29772 -10.29531 -10.29330
 Alpha  occ. eigenvalues --  -10.29292 -10.29152 -10.28678 -10.28633 -10.28583
 Alpha  occ. eigenvalues --  -10.28497 -10.28303 -10.28271 -10.28052 -10.28039
 Alpha  occ. eigenvalues --  -10.27893 -10.27694 -10.27631 -10.27564 -10.27484
 Alpha  occ. eigenvalues --  -10.27387 -10.27383 -10.27378 -10.27377 -10.27363
 Alpha  occ. eigenvalues --  -10.27356 -10.27340 -10.27312 -10.27244 -10.27086
 Alpha  occ. eigenvalues --  -10.26953 -10.26649 -10.26611 -10.26371 -10.26312
 Alpha  occ. eigenvalues --  -10.26160 -10.26041 -10.25946 -10.25913 -10.25897
 Alpha  occ. eigenvalues --  -10.25804 -10.25730 -10.25702 -10.25338 -10.25301
 Alpha  occ. eigenvalues --  -10.24764 -10.24736 -10.24689 -10.24580 -10.24522
 Alpha  occ. eigenvalues --  -10.24431  -3.16439  -3.16298  -1.91321  -1.91180
 Alpha  occ. eigenvalues --   -1.90907  -1.90769  -1.90749  -1.90606  -1.16596
 Alpha  occ. eigenvalues --   -1.16557  -1.08555  -1.08546  -1.07119  -1.06898
 Alpha  occ. eigenvalues --   -1.06854  -1.06602  -1.04488  -1.04391  -1.03661
 Alpha  occ. eigenvalues --   -1.03553  -1.03134  -1.02923  -1.02312  -1.01999
 Alpha  occ. eigenvalues --   -0.91883  -0.91881  -0.89408  -0.89351  -0.89111
 Alpha  occ. eigenvalues --   -0.89058  -0.88177  -0.88075  -0.87768  -0.87673
 Alpha  occ. eigenvalues --   -0.87580  -0.87576  -0.87173  -0.87031  -0.84905
 Alpha  occ. eigenvalues --   -0.84902  -0.83825  -0.83719  -0.82864  -0.82838
 Alpha  occ. eigenvalues --   -0.82567  -0.82556  -0.81515  -0.81493  -0.80512
 Alpha  occ. eigenvalues --   -0.80341  -0.78697  -0.78533  -0.77122  -0.77034
 Alpha  occ. eigenvalues --   -0.76855  -0.76783  -0.75845  -0.75740  -0.74799
 Alpha  occ. eigenvalues --   -0.74679  -0.72674  -0.72581  -0.71582  -0.71476
 Alpha  occ. eigenvalues --   -0.69783  -0.69574  -0.68789  -0.68729  -0.67549
 Alpha  occ. eigenvalues --   -0.67498  -0.67143  -0.67115  -0.65206  -0.65174
 Alpha  occ. eigenvalues --   -0.64766  -0.64655  -0.64547  -0.64533  -0.64162
 Alpha  occ. eigenvalues --   -0.64059  -0.62231  -0.62173  -0.60341  -0.60238
 Alpha  occ. eigenvalues --   -0.59720  -0.59699  -0.58893  -0.58880  -0.58411
 Alpha  occ. eigenvalues --   -0.58314  -0.57511  -0.57452  -0.57213  -0.57119
 Alpha  occ. eigenvalues --   -0.56216  -0.56096  -0.55921  -0.55792  -0.55428
 Alpha  occ. eigenvalues --   -0.55363  -0.55245  -0.55117  -0.54439  -0.54353
 Alpha  occ. eigenvalues --   -0.53822  -0.53819  -0.53202  -0.53138  -0.53120
 Alpha  occ. eigenvalues --   -0.53044  -0.52835  -0.52798  -0.52665  -0.52591
 Alpha  occ. eigenvalues --   -0.52311  -0.52195  -0.51812  -0.51753  -0.51572
 Alpha  occ. eigenvalues --   -0.51538  -0.51104  -0.51080  -0.50469  -0.50391
 Alpha  occ. eigenvalues --   -0.49921  -0.49883  -0.49824  -0.49726  -0.49431
 Alpha  occ. eigenvalues --   -0.49400  -0.49127  -0.49107  -0.49016  -0.49003
 Alpha  occ. eigenvalues --   -0.48514  -0.48461  -0.48362  -0.48356  -0.48260
 Alpha  occ. eigenvalues --   -0.48252  -0.47604  -0.47491  -0.47205  -0.47020
 Alpha  occ. eigenvalues --   -0.46698  -0.46588  -0.46479  -0.46459  -0.46262
 Alpha  occ. eigenvalues --   -0.46152  -0.46070  -0.45969  -0.45741  -0.45710
 Alpha  occ. eigenvalues --   -0.45098  -0.45082  -0.44493  -0.44419  -0.44412
 Alpha  occ. eigenvalues --   -0.44362  -0.44044  -0.44030  -0.44004  -0.43935
 Alpha  occ. eigenvalues --   -0.43933  -0.43852  -0.43438  -0.43419  -0.43295
 Alpha  occ. eigenvalues --   -0.43283  -0.42935  -0.42830  -0.42791  -0.42641
 Alpha  occ. eigenvalues --   -0.42546  -0.42407  -0.41906  -0.41811  -0.41613
 Alpha  occ. eigenvalues --   -0.41560  -0.41453  -0.41345  -0.41052  -0.40887
 Alpha  occ. eigenvalues --   -0.40780  -0.40731  -0.40644  -0.40588  -0.40466
 Alpha  occ. eigenvalues --   -0.40344  -0.40167  -0.40147  -0.39312  -0.39229
 Alpha  occ. eigenvalues --   -0.38365  -0.38217  -0.37678  -0.37562  -0.37216
 Alpha  occ. eigenvalues --   -0.37182  -0.37136  -0.37099  -0.36670  -0.36652
 Alpha  occ. eigenvalues --   -0.36110  -0.36096  -0.34189  -0.34141  -0.33766
 Alpha  occ. eigenvalues --   -0.33721  -0.33092  -0.33064  -0.31248  -0.31201
 Alpha  occ. eigenvalues --   -0.30941  -0.30866  -0.29945  -0.29851  -0.29349
 Alpha  occ. eigenvalues --   -0.29227  -0.29223  -0.29100  -0.23984  -0.23925
 Alpha  occ. eigenvalues --   -0.21028  -0.21006
 Alpha virt. eigenvalues --   -0.08685  -0.08676  -0.01650  -0.01574   0.00037
 Alpha virt. eigenvalues --    0.00060   0.02294   0.02318   0.03241   0.03360
 Alpha virt. eigenvalues --    0.04803   0.04830   0.05147   0.05258   0.06236

 Mulliken charges:
               1
     1  Mg   0.839081
     2  C   -0.003230
     3  C   -0.094079
     4  C   -0.045781
     5  C   -0.063722
     6  N   -0.256781
     7  C   -0.052546
     8  C   -0.014060
     9  C   -0.087006
    10  C    0.046299
    11  C    0.104833
    12  C    0.053493
    13  C   -0.071556
    14  H    0.035223
    15  N   -0.433128
    16  C    0.168529
    17  C   -0.177043
    18  C   -0.003926
    19  C    0.148779
    20  C    0.110154
    21  C    0.012401
    22  O   -0.249784
    23  C    0.062364
    24  N   -0.341198
    25  C    0.041304
    26  C   -0.028124
    27  C   -0.024029
    28  C    0.074924
    29  C    0.076237
    30  C    0.035064
    31  C   -0.004607
    32  N   -0.310470
    33  C    0.080458
    34  C   -0.169431
    35  C    0.008262
    36  C    0.083027
    37  C    0.127260
    38  C    0.046043
    39  O   -0.188611
    40  C   -0.005355
    41  C    0.212981
    42  O   -0.257639
    43  O   -0.304646
    44  C    0.157899
    45  H   -0.017732
    46  H   -0.016905
    47  H   -0.041216
    48  H    0.000779
    49  H   -0.004049
    50  H    0.025387
    51  H    0.016490
    52  H    0.016531
    53  H    0.011505
    54  H    0.043632
    55  H    0.017906
    56  H    0.018179
    57  H    0.005801
    58  H    0.026590
    59  H    0.040027
    60  H    0.037192
    61  H    0.035336
    62  H    0.032052
    63  H    0.016641
    64  H    0.009342
    65  H    0.023070
    66  H    0.012361
    67  H    0.004687
    68  H    0.006247
    69  H    0.005006
    70  H    0.008579
    71  H    0.019292
    72  H    0.028943
    73  H    0.047796
    74  H    0.009489
    75  H    0.045819
    76  H    0.035069
    77  H    0.042954
    78  H    0.046335
    79  H    0.052999
    80  Mg   0.838099
    81  C   -0.016955
    82  C   -0.087972
    83  C   -0.045543
    84  C   -0.064484
    85  N   -0.254566
    86  C   -0.049808
    87  C   -0.015125
    88  C   -0.090482
    89  C    0.045696
    90  C    0.114465
    91  C    0.062565
    92  C   -0.077768
    93  H    0.034700
    94  N   -0.423384
    95  C    0.162811
    96  C   -0.174850
    97  C   -0.008085
    98  C    0.152105
    99  C    0.099436
   100  C    0.015386
   101  O   -0.253839
   102  C    0.061320
   103  N   -0.350201
   104  C    0.037604
   105  C   -0.019561
   106  C   -0.035097
   107  C    0.089275
   108  C    0.073918
   109  C    0.034697
   110  C   -0.008400
   111  N   -0.324217
   112  C    0.078794
   113  C   -0.162474
   114  C    0.002177
   115  C    0.096474
   116  C    0.131302
   117  C    0.042561
   118  O   -0.187789
   119  C    0.000813
   120  C    0.211243
   121  O   -0.250888
   122  O   -0.305690
   123  C    0.152090
   124  H   -0.020032
   125  H   -0.016036
   126  H   -0.039550
   127  H   -0.000788
   128  H   -0.004513
   129  H    0.022355
   130  H    0.014356
   131  H    0.016000
   132  H    0.013965
   133  H    0.037739
   134  H    0.020666
   135  H    0.019484
   136  H    0.008618
   137  H    0.025704
   138  H    0.039558
   139  H    0.038142
   140  H    0.035518
   141  H    0.034021
   142  H    0.014247
   143  H    0.012137
   144  H    0.024419
   145  H    0.011234
   146  H    0.005538
   147  H    0.005939
   148  H    0.004949
   149  H    0.009700
   150  H    0.022862
   151  H    0.029158
   152  H    0.046558
   153  H    0.009580
   154  H    0.046607
   155  H    0.034815
   156  H    0.043788
   157  H    0.049350
   158  H    0.053561
 Sum of Mulliken charges =  -0.00000

 Dipole moment (field-independent basis, Debye):
    X=             -0.0840    Y=              6.9596    Z=             -2.5606  Tot=              7.4162
 Quadrupole moment (field-independent basis, Debye-Ang):
   XX=           -438.8377   YY=           -538.8659   ZZ=           -476.7200
   XY=            -19.5297   XZ=            -24.0490   YZ=              7.3866

 Normal termination of Gaussian 16 at Sat Sep 11 05:21:04 2021.
