 Gaussian 16, Revision A.03,
 Gaussian 16:  ES64L-G16RevA.03 25-Dec-2016

 -----------------------------------
 #p cam-b3lyp/Def2SVP td=(nstates=5)
 -----------------------------------

 --------------------------------
 TDDFT excited states in gaussian
 --------------------------------
 Symbolic Z-matrix:
 Charge =  0 Multiplicity = 1

                         Standard orientation:
 ---------------------------------------------------------------------
 Center     Atomic      Atomic             Coordinates (Angstroms)
 Number     Number       Type             X           Y           Z
 ---------------------------------------------------------------------
      1         12           0       -7.974058   -0.513898    0.186721
      2          6           0       -8.044953    3.018897    0.758163
      3          6           0       -8.901837    0.138293   -3.031499
      4          6           0       -8.359802   -3.635204   -0.219812
      5          6           0       -8.170156   -0.927688    3.641571
      6          7           0       -8.388493    1.379851   -0.882206
      7          6           0       -8.321584    2.669162   -0.565395
      8          6           0       -8.498685    3.616213   -1.789774
      9          6           0       -9.307212    2.635167   -2.751976
     10          6           0       -8.810680    1.304416   -2.214872
     11          6           0      -10.819212    2.707185   -2.564439
     12          6           0       -7.128108    4.035818   -2.419997
     13          6           0       -7.192966    5.206950   -3.404678
     14          1           0       -6.085660    6.150135   -3.444976
     15          7           0       -8.067974   -1.588385   -1.468424
     16          6           0       -8.451193   -1.156227   -2.693851
     17          6           0       -8.351366   -2.328866   -3.589191
     18          6           0       -8.061414   -3.521780   -2.745997
     19          6           0       -8.178936   -2.960055   -1.424622
     20          6           0       -8.477080   -2.239551   -5.079147
     21          6           0       -7.741188   -4.944881   -3.078216
     22          8           0       -7.752556   -5.868759   -2.194534
     23          6           0       -7.497172   -5.248680   -4.499907
     24          7           0       -8.449818   -2.068397    1.496232
     25          6           0       -8.496706   -3.336586    1.073761
     26          6           0       -8.574036   -4.293522    2.226251
     27          6           0       -8.324427   -3.422835    3.541299
     28          6           0       -8.222528   -2.024839    2.882897
     29          6           0       -9.893242   -5.065289    2.367961
     30          6           0       -7.180964   -3.880584    4.481181
     31          6           0       -5.846550   -3.694609    3.794268
     32          7           0       -7.910502    0.783156    1.925875
     33          6           0       -8.033349    0.399105    3.269038
     34          6           0       -8.037656    1.635056    4.073074
     35          6           0       -7.933014    2.659669    3.134425
     36          6           0       -7.893926    2.100457    1.825210
     37          6           0       -8.188234    1.709591    5.485946
     38          6           0       -7.869943    4.097958    2.931436
     39          8           0       -7.770664    5.075114    3.674943
     40          6           0       -8.062634    4.393761    1.378633
     41          6           0       -6.991570    5.365800    0.964786
     42          8           0       -5.789372    5.031009    0.964217
     43          8           0       -7.562192    6.447558    0.412759
     44          6           0       -6.553205    7.439048   -0.046640
     45          1           0       -9.416763    0.205384   -3.991858
     46          1           0       -8.386268   -4.723396   -0.306858
     47          1           0       -8.143275   -0.982273    4.731410
     48          1           0       -9.088008    4.511415   -1.590436
     49          1           0       -9.014827    2.755732   -3.794903
     50          1           0      -11.085445    3.327842   -1.708971
     51          1           0      -11.141864    1.678364   -2.403454
     52          1           0      -11.308233    3.034423   -3.482345
     53          1           0       -6.784812    3.248242   -3.090767
     54          1           0       -6.397828    4.259363   -1.641508
     55          1           0       -8.143339    5.736514   -3.332133
     56          1           0       -7.184611    4.802861   -4.417023
     57          1           0       -8.852677   -1.266019   -5.391730
     58          1           0       -9.257856   -2.939810   -5.375347
     59          1           0       -7.545327   -2.492140   -5.585475
     60          1           0       -8.378589   -4.978836   -5.082005
     61          1           0       -7.196016   -6.295017   -4.536419
     62          1           0       -6.685567   -4.616764   -4.861747
     63          1           0       -7.801804   -5.058111    2.152173
     64          1           0       -9.203222   -3.394463    4.185959
     65          1           0       -9.769303   -6.148495    2.365238
     66          1           0      -10.558407   -4.745763    1.566244
     67          1           0      -10.479431   -4.810331    3.250455
     68          1           0       -7.279270   -4.941388    4.709166
     69          1           0       -7.158250   -3.338839    5.426828
     70          1           0       -5.753751   -4.598850    3.193794
     71          1           0       -5.045040   -3.631226    4.531001
     72          1           0       -5.866839   -2.848117    3.107591
     73          1           0       -7.456714    2.439448    5.832581
     74          1           0       -8.030000    0.737700    5.952842
     75          1           0       -9.222260    2.045684    5.561364
     76          1           0       -9.062098    4.811243    1.260724
     77          1           0       -6.790702    8.386472    0.437320
     78          1           0       -6.564684    7.410659   -1.136350
     79          1           0       -5.530880    7.281957    0.299065
     80         12           0        7.892947   -1.044953   -0.186118
     81          6           0        8.896069    2.374833    0.235642
     82          6           0        6.077512   -0.023180   -2.886996
     83          6           0        6.635940   -3.955308   -0.317271
     84          6           0        8.825807   -1.582177    3.128532
     85          7           0        7.604229    0.944801   -1.107934
     86          6           0        8.084707    2.161136   -0.898133
     87          6           0        7.738063    3.189847   -2.007711
     88          6           0        6.417291    2.483224   -2.586613
     89          6           0        6.726746    1.037003   -2.205365
     90          6           0        5.145646    2.904661   -1.869223
     91          6           0        8.860263    3.292242   -3.099582
     92          6           0        8.733966    4.492013   -4.041039
     93          1           0        9.955585    5.138470   -4.512445
     94          7           0        6.959891   -1.975198   -1.670240
     95          6           0        6.293001   -1.405719   -2.696020
     96          6           0        5.770739   -2.518827   -3.503739
     97          6           0        6.043570   -3.790991   -2.781322
     98          6           0        6.549563   -3.277059   -1.524366
     99          6           0        5.160827   -2.322952   -4.861339
    100          6           0        5.865078   -5.231495   -3.154554
    101          8           0        5.944896   -6.167782   -2.282877
    102          6           0        5.501818   -5.506388   -4.552390
    103          7           0        7.551221   -2.499680    1.259345
    104          6           0        7.040342   -3.698139    0.926768
    105          6           0        7.141023   -4.672078    2.076418
    106          6           0        8.049028   -3.947176    3.175333
    107          6           0        8.251158   -2.584232    2.477531
    108          6           0        5.815061   -5.093209    2.709566
    109          6           0        9.303738   -4.717211    3.670746
    110          6           0       10.311187   -4.837711    2.550078
    111          7           0        8.881507    0.099992    1.356589
    112          6           0        9.148985   -0.307198    2.682000
    113          6           0        9.732554    0.853831    3.384770
    114          6           0        9.742897    1.870811    2.418264
    115          6           0        9.185216    1.384240    1.205116
    116          6           0       10.123499    0.887608    4.753031
    117          6           0       10.088985    3.248415    2.151585
    118          8           0       10.673517    4.133564    2.774939
    119          6           0        9.439808    3.673102    0.764284
    120          6           0       10.495110    4.373057   -0.047439
    121          8           0       11.498225    3.755862   -0.446739
    122          8           0       10.043833    5.590315   -0.401009
    123          6           0       11.051133    6.319124   -1.217093
    124          1           0        5.297825    0.224030   -3.608008
    125          1           0        6.316997   -4.999934   -0.339527
    126          1           0        9.233176   -1.697362    4.135235
    127          1           0        7.500599    4.183687   -1.647607
    128          1           0        6.354514    2.587752   -3.666657
    129          1           0        5.354524    3.522089   -1.008243
    130          1           0        4.660075    1.985967   -1.567126
    131          1           0        4.461048    3.391078   -2.569972
    132          1           0        8.734462    2.473911   -3.820179
    133          1           0        9.833076    3.288392   -2.647637
    134          1           0        8.024804    5.238941   -3.664021
    135          1           0        8.290533    4.151296   -4.979814
    136          1           0        4.944802   -1.265285   -5.056466
    137          1           0        4.176039   -2.802179   -4.841620
    138          1           0        5.756284   -2.771630   -5.659324
    139          1           0        4.571168   -4.996867   -4.790566
    140          1           0        5.506756   -6.593998   -4.647141
    141          1           0        6.271045   -5.077875   -5.204525
    142          1           0        7.628981   -5.587815    1.765880
    143          1           0        7.487783   -3.746721    4.099813
    144          1           0        5.656670   -6.188177    2.703268
    145          1           0        5.012321   -4.589867    2.187271
    146          1           0        5.667149   -4.760938    3.735683
    147          1           0        9.033946   -5.736860    3.956535
    148          1           0        9.781314   -4.257692    4.529676
    149          1           0        9.953942   -5.706718    1.989465
    150          1           0       11.309166   -5.008262    2.948813
    151          1           0       10.261369   -3.970685    1.881163
    152          1           0       11.077479    1.396452    4.791785
    153          1           0       10.188999   -0.114088    5.172657
    154          1           0        9.293513    1.457633    5.179015
    155          1           0        8.593426    4.324811    0.984514
    156          1           0       11.237816    7.274035   -0.716117
    157          1           0       10.633176    6.360449   -2.240500
    158          1           0       12.051865    5.905872   -1.264318
 ---------------------------------------------------------------------

 SCF Done:  E(RCAM-B3LYP) =  -4069.81171951     A.U. after   19 cycles

 Excitation energies and oscillator strengths:

 Excited State   1:      Singlet-A      1.6701 eV  742.38 nm  f=0.0556  <S**2>=0.000
     309 -> 315       -0.10271
     310 -> 316        0.13857
     311 -> 313       -0.40722
     312 -> 314        0.55250
 This state for optimization and/or second-order correction.
 Total Energy, E(TD-HF/TD-DFT) =  -4069.75034487
 Copying the excited state density for this state as the 1-particle RhoCI density.

 Excited State   2:      Singlet-A      1.6847 eV  735.92 nm  f=0.7054  <S**2>=0.000
     309 -> 315        0.14245
     310 -> 316        0.10432
     311 -> 313        0.55169
     312 -> 314        0.40670

 Excited State   3:      Singlet-A      2.1853 eV  567.36 nm  f=0.0581  <S**2>=0.000
     309 -> 313       -0.13786
     310 -> 314        0.62787
     312 -> 316       -0.26612

 Excited State   4:      Singlet-A      2.1930 eV  565.37 nm  f=0.1352  <S**2>=0.000
     309 -> 313        0.62581
     310 -> 314        0.13676
     311 -> 315       -0.27216

 Excited State   5:      Singlet-A      2.7539 eV  450.22 nm  f=0.0000  <S**2>=0.000
     312 -> 313        0.70708

 The electronic state is 1-A.
 Alpha  occ. eigenvalues --  -46.87873 -46.87592 -19.26373 -19.26288 -19.19110
 Alpha  occ. eigenvalues --  -19.19100 -19.18886 -19.18660 -19.18242 -19.17982
 Alpha  occ. eigenvalues --  -14.42528 -14.42427 -14.41522 -14.41290 -14.39479
 Alpha  occ. eigenvalues --  -14.39285 -14.38662 -14.38531 -10.39168 -10.39028
 Alpha  occ. eigenvalues --  -10.35520 -10.35339 -10.34463 -10.34159 -10.31772
 Alpha  occ. eigenvalues --  -10.31702 -10.31483 -10.31237 -10.30991 -10.30955
 Alpha  occ. eigenvalues --  -10.30645 -10.30580 -10.30331 -10.30293 -10.30277
 Alpha  occ. eigenvalues --  -10.30075 -10.29988 -10.29825 -10.29704 -10.29371
 Alpha  occ. eigenvalues --  -10.29338 -10.29329 -10.28841 -10.28658 -10.28648
 Alpha  occ. eigenvalues --  -10.28606 -10.28442 -10.28337 -10.28203 -10.28061
 Alpha  occ. eigenvalues --  -10.27934 -10.27867 -10.27804 -10.27660 -10.27600
 Alpha  occ. eigenvalues --  -10.27569 -10.27557 -10.27505 -10.27481 -10.27454
 Alpha  occ. eigenvalues --  -10.27425 -10.27415 -10.27404 -10.27310 -10.27236
 Alpha  occ. eigenvalues --  -10.26979 -10.26816 -10.26636 -10.26488 -10.26377
 Alpha  occ. eigenvalues --  -10.26312 -10.26233 -10.26090 -10.26082 -10.25916
 Alpha  occ. eigenvalues --  -10.25904 -10.25867 -10.25781 -10.25484 -10.25325
 Alpha  occ. eigenvalues --  -10.24906 -10.24859 -10.24805 -10.24735 -10.24680
 Alpha  occ. eigenvalues --  -10.24622  -3.16616  -3.16341  -1.91497  -1.91224
 Alpha  occ. eigenvalues --   -1.91084  -1.90926  -1.90812  -1.90649  -1.16722
 Alpha  occ. eigenvalues --   -1.16582  -1.08700  -1.08589  -1.07286  -1.06913
 Alpha  occ. eigenvalues --   -1.06884  -1.06732  -1.04659  -1.04425  -1.03834
 Alpha  occ. eigenvalues --   -1.03595  -1.03308  -1.02971  -1.02485  -1.02043
 Alpha  occ. eigenvalues --   -0.92048  -0.91918  -0.89585  -0.89430  -0.89276
 Alpha  occ. eigenvalues --   -0.89077  -0.88350  -0.88155  -0.87941  -0.87752
 Alpha  occ. eigenvalues --   -0.87725  -0.87617  -0.87351  -0.87065  -0.85068
 Alpha  occ. eigenvalues --   -0.84932  -0.83997  -0.83813  -0.83040  -0.82880
 Alpha  occ. eigenvalues --   -0.82731  -0.82588  -0.81666  -0.81533  -0.80675
 Alpha  occ. eigenvalues --   -0.80379  -0.78873  -0.78575  -0.77294  -0.77079
 Alpha  occ. eigenvalues --   -0.77015  -0.76832  -0.76004  -0.75768  -0.74963
 Alpha  occ. eigenvalues --   -0.74736  -0.72847  -0.72632  -0.71745  -0.71509
 Alpha  occ. eigenvalues --   -0.69965  -0.69696  -0.68956  -0.68761  -0.67716
 Alpha  occ. eigenvalues --   -0.67538  -0.67311  -0.67142  -0.65372  -0.65204
 Alpha  occ. eigenvalues --   -0.64930  -0.64704  -0.64698  -0.64588  -0.64335
 Alpha  occ. eigenvalues --   -0.64139  -0.62378  -0.62215  -0.60515  -0.60281
 Alpha  occ. eigenvalues --   -0.59887  -0.59725  -0.59061  -0.58926  -0.58578
 Alpha  occ. eigenvalues --   -0.58360  -0.57663  -0.57487  -0.57379  -0.57173
 Alpha  occ. eigenvalues --   -0.56385  -0.56141  -0.56064  -0.55825  -0.55596
 Alpha  occ. eigenvalues --   -0.55407  -0.55393  -0.55183  -0.54595  -0.54425
 Alpha  occ. eigenvalues --   -0.53983  -0.53841  -0.53373  -0.53304  -0.53165
 Alpha  occ. eigenvalues --   -0.53079  -0.52994  -0.52839  -0.52838  -0.52613
 Alpha  occ. eigenvalues --   -0.52496  -0.52343  -0.51982  -0.51816  -0.51704
 Alpha  occ. eigenvalues --   -0.51597  -0.51270  -0.51136  -0.50652  -0.50426
 Alpha  occ. eigenvalues --   -0.50096  -0.49995  -0.49914  -0.49804  -0.49596
 Alpha  occ. eigenvalues --   -0.49426  -0.49291  -0.49177  -0.49136  -0.49032
 Alpha  occ. eigenvalues --   -0.48670  -0.48528  -0.48519  -0.48490  -0.48311
 Alpha  occ. eigenvalues --   -0.48282  -0.47772  -0.47532  -0.47371  -0.47057
 Alpha  occ. eigenvalues --   -0.46870  -0.46644  -0.46643  -0.46487  -0.46432
 Alpha  occ. eigenvalues --   -0.46233  -0.46207  -0.46019  -0.45897  -0.45755
 Alpha  occ. eigenvalues --   -0.45265  -0.45142  -0.44653  -0.44585  -0.44448
 Alpha  occ. eigenvalues --   -0.44410  -0.44215  -0.44170  -0.44096  -0.44057
 Alpha  occ. eigenvalues --   -0.44018  -0.43880  -0.43573  -0.43490  -0.43463
 Alpha  occ. eigenvalues --   -0.43318  -0.43101  -0.42868  -0.42834  -0.42778
 Alpha  occ. eigenvalues --   -0.42721  -0.42492  -0.42080  -0.41902  -0.41778
 Alpha  occ. eigenvalues --   -0.41619  -0.41601  -0.41394  -0.41216  -0.40950
 Alpha  occ. eigenvalues --   -0.40917  -0.40901  -0.40665  -0.40637  -0.40635
 Alpha  occ. eigenvalues --   -0.40427  -0.40334  -0.40168  -0.39498  -0.39366
 Alpha  occ. eigenvalues --   -0.38536  -0.38285  -0.37844  -0.37593  -0.37388
 Alpha  occ. eigenvalues --   -0.37350  -0.37200  -0.37133  -0.36794  -0.36709
 Alpha  occ. eigenvalues --   -0.36269  -0.36152  -0.34361  -0.34185  -0.33858
 Alpha  occ. eigenvalues --   -0.33800  -0.33262  -0.33108  -0.31415  -0.31219
 Alpha  occ. eigenvalues --   -0.31110  -0.30905  -0.30102  -0.29887  -0.29524
 Alpha  occ. eigenvalues --   -0.29395  -0.29264  -0.29144  -0.24156  -0.23967
 Alpha  occ. eigenvalues --   -0.21202  -0.21049
 Alpha virt. eigenvalues --   -0.08849  -0.08725  -0.01823  -0.01616  -0.00134
 Alpha virt. eigenvalues --    0.00033   0.02129   0.02275   0.03033   0.03287
 Alpha virt. eigenvalues --    0.04635   0.04799   0.05011   0.05228   0.06077

 Mulliken charges:
               1
     1  Mg   0.838535
     2  C   -0.003120
     3  C   -0.094397
     4  C   -0.045779
     5  C   -0.063812
     6  N   -0.256792
     7  C   -0.052541
     8  C   -0.013973
     9  C   -0.086965
    10  C    0.046222
    11  C    0.104796
    12  C    0.053575
    13  C   -0.071618
    14  H    0.035572
    15  N   -0.433154
    16  C    0.168319
    17  C   -0.177323
    18  C   -0.004007
    19  C    0.148670
    20  C    0.110213
    21  C    0.012282
    22  O   -0.249327
    23  C    0.062531
    24  N   -0.341132
    25  C    0.041278
    26  C   -0.028254
    27  C   -0.024001
    28  C    0.074824
    29  C    0.076113
    30  C    0.035087
    31  C   -0.004534
    32  N   -0.310488
    33  C    0.080402
    34  C   -0.169601
    35  C    0.008407
    36  C    0.082973
    37  C    0.127297
    38  C    0.046154
    39  O   -0.188256
    40  C   -0.005361
    41  C    0.212957
    42  O   -0.257379
    43  O   -0.304701
    44  C    0.157702
    45  H   -0.017632
    46  H   -0.016638
    47  H   -0.041294
    48  H    0.001050
    49  H   -0.004257
    50  H    0.025577
    51  H    0.016576
    52  H    0.016682
    53  H    0.010808
    54  H    0.043924
    55  H    0.018177
    56  H    0.017755
    57  H    0.005762
    58  H    0.026981
    59  H    0.039091
    60  H    0.037388
    61  H    0.035867
    62  H    0.031039
    63  H    0.016733
    64  H    0.009589
    65  H    0.023402
    66  H    0.012536
    67  H    0.004864
    68  H    0.006578
    69  H    0.004797
    70  H    0.008976
    71  H    0.018256
    72  H    0.028754
    73  H    0.047682
    74  H    0.009244
    75  H    0.046148
    76  H    0.035271
    77  H    0.043187
    78  H    0.046226
    79  H    0.053510
    80  Mg   0.838008
    81  C   -0.016789
    82  C   -0.087736
    83  C   -0.045441
    84  C   -0.064766
    85  N   -0.254565
    86  C   -0.049635
    87  C   -0.015132
    88  C   -0.090561
    89  C    0.045843
    90  C    0.114357
    91  C    0.062564
    92  C   -0.077754
    93  H    0.034599
    94  N   -0.423497
    95  C    0.162957
    96  C   -0.174616
    97  C   -0.007863
    98  C    0.152166
    99  C    0.099432
   100  C    0.015561
   101  O   -0.253169
   102  C    0.061242
   103  N   -0.349984
   104  C    0.037580
   105  C   -0.019878
   106  C   -0.034802
   107  C    0.088944
   108  C    0.073592
   109  C    0.034737
   110  C   -0.007637
   111  N   -0.324147
   112  C    0.078514
   113  C   -0.163065
   114  C    0.002365
   115  C    0.096212
   116  C    0.131460
   117  C    0.042450
   118  O   -0.187847
   119  C    0.000866
   120  C    0.211205
   121  O   -0.251169
   122  O   -0.305503
   123  C    0.152088
   124  H   -0.019714
   125  H   -0.015605
   126  H   -0.040476
   127  H   -0.000457
   128  H   -0.004696
   129  H    0.022955
   130  H    0.014925
   131  H    0.016327
   132  H    0.013746
   133  H    0.037597
   134  H    0.020918
   135  H    0.019363
   136  H    0.008581
   137  H    0.025944
   138  H    0.039456
   139  H    0.038097
   140  H    0.036266
   141  H    0.033712
   142  H    0.014253
   143  H    0.012545
   144  H    0.025000
   145  H    0.011980
   146  H    0.005746
   147  H    0.006175
   148  H    0.003619
   149  H    0.010860
   150  H    0.017795
   151  H    0.030114
   152  H    0.045888
   153  H    0.008417
   154  H    0.047286
   155  H    0.035438
   156  H    0.043911
   157  H    0.049402
   158  H    0.053448
 Sum of Mulliken charges =  -0.00000

 Dipole moment (field-independent basis, Debye):
    X=             -5.6179    Y=             -0.8008    Z=             -6.7518  Tot=              8.8198
 Quadrupole moment (field-independent basis, Debye-Ang):
   XX=           -543.1090   YY=           -535.6377   ZZ=           -459.6875
   XY=            -12.2453   XZ=             12.3398   YZ=            -55.1802

 Normal termination of Gaussian 16 at Sun Sep 12 01:42:41 2021.
