 Gaussian 16, Revision A.03,
 Gaussian 16:  ES64L-G16RevA.03 25-Dec-2016

 -----------------------------------
 #p cam-b3lyp/Def2SVP td=(nstates=5)
 -----------------------------------

 --------------------------------
 TDDFT excited states in gaussian
 --------------------------------
 Symbolic Z-matrix:
 Charge =  0 Multiplicity = 1

                         Standard orientation:
 ---------------------------------------------------------------------
 Center     Atomic      Atomic             Coordinates (Angstroms)
 Number     Number       Type             X           Y           Z
 ---------------------------------------------------------------------
      1         12           0       -3.920734   -0.504732   -0.214494
      2          6           0       -4.003534    2.873826    0.964787
      3          6           0       -4.486686    0.730970   -3.344319
      4          6           0       -4.303910   -3.492268   -1.206676
      5          6           0       -4.494189   -1.510387    3.072673
      6          7           0       -4.190941    1.559491   -0.967234
      7          6           0       -4.140607    2.770512   -0.421280
      8          6           0       -4.171336    3.922608   -1.469662
      9          6           0       -4.884950    3.152269   -2.669383
     10          6           0       -4.467894    1.732462   -2.328597
     11          6           0       -6.407205    3.239930   -2.629890
     12          6           0       -2.735040    4.400860   -1.869736
     13          6           0       -2.676924    5.727799   -2.632107
     14          1           0       -1.558673    6.626606   -2.389189
     15          7           0       -3.850522   -1.269144   -2.034822
     16          6           0       -4.093221   -0.616756   -3.197050
     17          6           0       -3.913762   -1.617146   -4.271152
     18          6           0       -3.733159   -2.948135   -3.627765
     19          6           0       -3.984704   -2.622901   -2.247067
     20          6           0       -3.876731   -1.264252   -5.726433
     21          6           0       -3.398861   -4.300815   -4.172405
     22          8           0       -3.518403   -5.364268   -3.472869
     23          6           0       -3.007150   -4.358835   -5.592348
     24          7           0       -4.556659   -2.248036    0.741605
     25          6           0       -4.575395   -3.420429    0.098078
     26          6           0       -4.789970   -4.561313    1.047962
     27          6           0       -4.671565   -3.943002    2.515417
     28          6           0       -4.479717   -2.455430    2.129937
     29          6           0       -6.127412   -5.302244    0.912753
     30          6           0       -3.642685   -4.595530    3.472512
     31          6           0       -2.239483   -4.336059    2.971716
     32          7           0       -4.027083    0.464975    1.724424
     33          6           0       -4.299476   -0.144080    2.957927
     34          6           0       -4.373249    0.931462    3.963827
     35          6           0       -4.153650    2.100602    3.238064
     36          6           0       -3.981351    1.778287    1.861577
     37          6           0       -4.674326    0.762363    5.344114
     38          6           0       -4.048970    3.549357    3.301389
     39          8           0       -4.016853    4.377441    4.212838
     40          6           0       -4.068856    4.118638    1.814328
     41          6           0       -2.945926    5.112434    1.693049
     42          8           0       -1.755477    4.743635    1.757726
     43          8           0       -3.438499    6.292275    1.285753
     44          6           0       -2.372092    7.315223    1.116911
     45          1           0       -4.894007    0.982043   -4.325641
     46          1           0       -4.336022   -4.546943   -1.487864
     47          1           0       -4.585813   -1.755805    4.132309
     48          1           0       -4.766168    4.787932   -1.176726
     49          1           0       -4.480096    3.443918   -3.638277
     50          1           0       -6.755488    3.709612   -1.710097
     51          1           0       -6.759675    2.209969   -2.688525
     52          1           0       -6.789721    3.738705   -3.520778
     53          1           0       -2.332409    3.732060   -2.630431
     54          1           0       -2.089964    4.460549   -0.992445
     55          1           0       -3.622089    6.267386   -2.565637
     56          1           0       -2.565039    5.507154   -3.693709
     57          1           0       -4.202781   -0.239233   -5.898396
     58          1           0       -4.630694   -1.875819   -6.221646
     59          1           0       -2.899408   -1.454732   -6.170155
     60          1           0       -3.816765   -3.962454   -6.205499
     61          1           0       -2.718451   -5.391928   -5.782668
     62          1           0       -2.152499   -3.700313   -5.750048
     63          1           0       -4.025004   -5.326050    0.919776
     64          1           0       -5.614302   -3.999113    3.060187
     65          1           0       -6.019039   -6.371716    0.730571
     66          1           0       -6.697670   -4.825620    0.115931
     67          1           0       -6.801774   -5.186641    1.760862
     68          1           0       -3.779816   -5.676058    3.497033
     69          1           0       -3.714567   -4.228773    4.496511
     70          1           0       -2.095075   -5.123743    2.233115
     71          1           0       -1.521331   -4.428996    3.787089
     72          1           0       -2.173747   -3.382208    2.447948
     73          1           0       -3.974356    1.395840    5.888832
     74          1           0       -4.580975   -0.280926    5.644838
     75          1           0       -5.705659    1.113817    5.370360
     76          1           0       -5.043837    4.582895    1.669419
     77          1           0       -2.647165    8.170550    1.734150
     78          1           0       -2.266330    7.478466    0.044264
     79          1           0       -1.395326    7.066556    1.533362
     80         12           0        3.987006   -0.995213    0.375756
     81          6           0        4.059410    2.495624   -0.453590
     82          6           0        3.316152   -1.609351   -2.911705
     83          6           0        3.471619   -4.028684    1.150256
     84          6           0        3.525609   -0.053777    3.699387
     85          7           0        3.744064    0.351992   -1.361567
     86          6           0        3.854599    1.655645   -1.568003
     87          6           0        3.819272    2.075539   -3.061988
     88          6           0        3.021703    0.811057   -3.648364
     89          6           0        3.407879   -0.229492   -2.599177
     90          6           0        1.512262    0.984045   -3.616500
     91          6           0        5.254825    2.188554   -3.685205
     92          6           0        5.312581    2.889828   -5.044121
     93          1           0        6.474049    3.720472   -5.349907
     94          7           0        3.955509   -2.622935   -0.759193
     95          6           0        3.686769   -2.688867   -2.080067
     96          6           0        3.770628   -4.113530   -2.437080
     97          6           0        3.948503   -4.900752   -1.186733
     98          6           0        3.774114   -3.860345   -0.193132
     99          6           0        3.761795   -4.598272   -3.857768
    100          6           0        4.216811   -6.352355   -0.927781
    101          8           0        4.097619   -6.860778    0.242746
    102          6           0        4.532225   -7.180224   -2.101080
    103          7           0        3.349955   -1.914278    2.128419
    104          6           0        3.260597   -3.253171    2.213916
    105          6           0        3.050371   -3.695736    3.642313
    106          6           0        3.259752   -2.384493    4.533588
    107          6           0        3.476356   -1.346893    3.410266
    108          6           0        1.686106   -4.310382    3.954370
    109          6           0        4.310705   -2.469258    5.674205
    110          6           0        5.698249   -2.601071    5.088773
    111          7           0        4.002940    0.859716    1.483466
    112          6           0        3.760802    1.030833    2.864108
    113          6           0        3.766415    2.483954    3.130287
    114          6           0        3.990322    3.062851    1.872024
    115          6           0        4.095302    2.043319    0.887630
    116          6           0        3.533232    3.099391    4.392422
    117          6           0        4.151161    4.305017    1.151006
    118          8           0        4.242704    5.489523    1.470852
    119          6           0        4.076970    3.998338   -0.406828
    120          6           0        5.223478    4.706739   -1.074808
    121          8           0        6.397693    4.374813   -0.834678
    122          8           0        4.742671    5.506509   -2.044117
    123          6           0        5.842968    6.222453   -2.743119
    124          1           0        2.879821   -1.896656   -3.868762
    125          1           0        3.393659   -5.064102    1.489859
    126          1           0        3.486640    0.316771    4.725960
    127          1           0        3.270850    2.987644   -3.264653
    128          1           0        3.399479    0.524710   -4.626451
    129          1           0        1.220718    1.883103   -3.094156
    130          1           0        1.126607    0.109624   -3.108873
    131          1           0        1.107006    0.946388   -4.631724
    132          1           0        5.598939    1.187549   -3.975584
    133          1           0        5.929911    2.667097   -3.002649
    134          1           0        4.384446    3.429031   -5.269475
    135          1           0        5.376539    2.128310   -5.825159
    136          1           0        3.453395   -3.806123   -4.551156
    137          1           0        2.968806   -5.350060   -3.934197
    138          1           0        4.709619   -5.053047   -4.153556
    139          1           0        3.710029   -7.128853   -2.810874
    140          1           0        4.780389   -8.166654   -1.704528
    141          1           0        5.408621   -6.755699   -2.603404
    142          1           0        3.785826   -4.437106    3.929689
    143          1           0        2.335819   -2.094605    5.055273
    144          1           0        1.753490   -5.329904    4.378760
    145          1           0        1.097873   -4.314591    3.046347
    146          1           0        1.061891   -3.729631    4.631329
    147          1           0        4.142486   -3.364108    6.278431
    148          1           0        4.288286   -1.617939    6.346327
    149          1           0        5.779199   -3.672942    4.884730
    150          1           0        6.449283   -2.278165    5.806900
    151          1           0        5.771999   -2.076345    4.129144
    152          1           0        4.268773    3.886010    4.495868
    153          1           0        3.603261    2.379184    5.204921
    154          1           0        2.510431    3.457833    4.248624
    155          1           0        3.110626    4.355053   -0.765290
    156          1           0        5.619434    7.291867   -2.679399
    157          1           0        5.893387    5.777789   -3.754800
    158          1           0        6.829076    6.185445   -2.295165
 ---------------------------------------------------------------------

 SCF Done:  E(RCAM-B3LYP) =  -4069.81162273     A.U. after   19 cycles

 Excitation energies and oscillator strengths:

 Excited State   1:      Singlet-A      1.6418 eV  755.18 nm  f=0.0538  <S**2>=0.000
     309 -> 315       -0.11554
     310 -> 316        0.11794
     311 -> 313        0.47972
     312 -> 314        0.49287
 This state for optimization and/or second-order correction.
 Total Energy, E(TD-HF/TD-DFT) =  -4069.75128859
 Copying the excited state density for this state as the 1-particle RhoCI density.

 Excited State   2:      Singlet-A      1.7050 eV  727.18 nm  f=0.6107  <S**2>=0.000
     309 -> 315       -0.13030
     310 -> 316       -0.12689
     311 -> 313        0.48994
     312 -> 314       -0.47712

 Excited State   3:      Singlet-A      2.1809 eV  568.49 nm  f=0.0210  <S**2>=0.000
     309 -> 313       -0.41256
     310 -> 314        0.49575
     311 -> 315       -0.17104
     312 -> 316       -0.20673

 Excited State   4:      Singlet-A      2.1948 eV  564.91 nm  f=0.1566  <S**2>=0.000
     309 -> 313        0.49110
     310 -> 314        0.40757
     311 -> 315        0.21658
     312 -> 316       -0.18104

 Excited State   5:      Singlet-A      2.2345 eV  554.85 nm  f=0.0000  <S**2>=0.000
     312 -> 313        0.70707

 The electronic state is 1-A.
 Alpha  occ. eigenvalues --  -46.87904 -46.87401 -19.26213 -19.26206 -19.18986
 Alpha  occ. eigenvalues --  -19.18983 -19.18972 -19.18455 -19.18247 -19.17732
 Alpha  occ. eigenvalues --  -14.42561 -14.42256 -14.41551 -14.41107 -14.39521
 Alpha  occ. eigenvalues --  -14.39089 -14.38692 -14.38308 -10.39042 -10.38905
 Alpha  occ. eigenvalues --  -10.35623 -10.35136 -10.34461 -10.33911 -10.31677
 Alpha  occ. eigenvalues --  -10.31509 -10.31508 -10.31057 -10.31022 -10.30810
 Alpha  occ. eigenvalues --  -10.30683 -10.30616 -10.30325 -10.30101 -10.30064
 Alpha  occ. eigenvalues --  -10.30009 -10.29907 -10.29756 -10.29619 -10.29384
 Alpha  occ. eigenvalues --  -10.29169 -10.29099 -10.28848 -10.28617 -10.28604
 Alpha  occ. eigenvalues --  -10.28583 -10.28476 -10.28222 -10.28132 -10.28014
 Alpha  occ. eigenvalues --  -10.27914 -10.27846 -10.27721 -10.27697 -10.27694
 Alpha  occ. eigenvalues --  -10.27585 -10.27515 -10.27501 -10.27436 -10.27315
 Alpha  occ. eigenvalues --  -10.27252 -10.27224 -10.27202 -10.27184 -10.27176
 Alpha  occ. eigenvalues --  -10.26821 -10.26767 -10.26673 -10.26592 -10.26325
 Alpha  occ. eigenvalues --  -10.26259 -10.26184 -10.26133 -10.25966 -10.25957
 Alpha  occ. eigenvalues --  -10.25954 -10.25662 -10.25495 -10.25333 -10.25265
 Alpha  occ. eigenvalues --  -10.24945 -10.24887 -10.24748 -10.24553 -10.24544
 Alpha  occ. eigenvalues --  -10.24430  -3.16646  -3.16151  -1.91528  -1.91114
 Alpha  occ. eigenvalues --   -1.91033  -1.90957  -1.90622  -1.90458  -1.16562
 Alpha  occ. eigenvalues --   -1.16496  -1.08694  -1.08339  -1.07385  -1.06768
 Alpha  occ. eigenvalues --   -1.06710  -1.06595  -1.04691  -1.04253  -1.03866
 Alpha  occ. eigenvalues --   -1.03404  -1.03345  -1.02768  -1.02519  -1.01837
 Alpha  occ. eigenvalues --   -0.92061  -0.91714  -0.89611  -0.89290  -0.89256
 Alpha  occ. eigenvalues --   -0.89004  -0.88373  -0.88005  -0.87988  -0.87785
 Alpha  occ. eigenvalues --   -0.87482  -0.87441  -0.87398  -0.86858  -0.85087
 Alpha  occ. eigenvalues --   -0.84824  -0.84011  -0.83670  -0.83144  -0.82741
 Alpha  occ. eigenvalues --   -0.82700  -0.82464  -0.81611  -0.81380  -0.80672
 Alpha  occ. eigenvalues --   -0.80212  -0.78943  -0.78353  -0.77324  -0.76995
 Alpha  occ. eigenvalues --   -0.76935  -0.76721  -0.75987  -0.75640  -0.74972
 Alpha  occ. eigenvalues --   -0.74607  -0.72884  -0.72416  -0.71760  -0.71371
 Alpha  occ. eigenvalues --   -0.69991  -0.69558  -0.68980  -0.68636  -0.67747
 Alpha  occ. eigenvalues --   -0.67355  -0.67341  -0.67015  -0.65380  -0.65087
 Alpha  occ. eigenvalues --   -0.64931  -0.64689  -0.64532  -0.64452  -0.64356
 Alpha  occ. eigenvalues --   -0.63982  -0.62294  -0.62082  -0.60581  -0.60088
 Alpha  occ. eigenvalues --   -0.59911  -0.59600  -0.59080  -0.58747  -0.58594
 Alpha  occ. eigenvalues --   -0.58182  -0.57634  -0.57388  -0.57290  -0.56990
 Alpha  occ. eigenvalues --   -0.56429  -0.55978  -0.55936  -0.55712  -0.55641
 Alpha  occ. eigenvalues --   -0.55393  -0.55217  -0.55035  -0.54556  -0.54298
 Alpha  occ. eigenvalues --   -0.53995  -0.53760  -0.53431  -0.53334  -0.52993
 Alpha  occ. eigenvalues --   -0.52974  -0.52934  -0.52890  -0.52708  -0.52514
 Alpha  occ. eigenvalues --   -0.52450  -0.52198  -0.52024  -0.51730  -0.51486
 Alpha  occ. eigenvalues --   -0.51434  -0.51273  -0.50953  -0.50779  -0.50255
 Alpha  occ. eigenvalues --   -0.50136  -0.50067  -0.49791  -0.49660  -0.49633
 Alpha  occ. eigenvalues --   -0.49317  -0.49269  -0.49189  -0.48991  -0.48867
 Alpha  occ. eigenvalues --   -0.48655  -0.48600  -0.48516  -0.48335  -0.48164
 Alpha  occ. eigenvalues --   -0.48098  -0.47800  -0.47400  -0.47393  -0.46912
 Alpha  occ. eigenvalues --   -0.46886  -0.46654  -0.46491  -0.46462  -0.46384
 Alpha  occ. eigenvalues --   -0.46229  -0.46030  -0.45876  -0.45826  -0.45559
 Alpha  occ. eigenvalues --   -0.45300  -0.44991  -0.44675  -0.44622  -0.44341
 Alpha  occ. eigenvalues --   -0.44256  -0.44225  -0.44196  -0.44103  -0.43916
 Alpha  occ. eigenvalues --   -0.43855  -0.43694  -0.43531  -0.43486  -0.43364
 Alpha  occ. eigenvalues --   -0.43192  -0.43111  -0.42779  -0.42729  -0.42647
 Alpha  occ. eigenvalues --   -0.42599  -0.42334  -0.42078  -0.41796  -0.41764
 Alpha  occ. eigenvalues --   -0.41629  -0.41414  -0.41279  -0.41234  -0.40998
 Alpha  occ. eigenvalues --   -0.40949  -0.40786  -0.40652  -0.40540  -0.40508
 Alpha  occ. eigenvalues --   -0.40348  -0.40290  -0.40084  -0.39501  -0.39219
 Alpha  occ. eigenvalues --   -0.38551  -0.38162  -0.37838  -0.37517  -0.37413
 Alpha  occ. eigenvalues --   -0.37362  -0.37043  -0.36983  -0.36715  -0.36602
 Alpha  occ. eigenvalues --   -0.36227  -0.36008  -0.34390  -0.33994  -0.33755
 Alpha  occ. eigenvalues --   -0.33667  -0.33279  -0.32910  -0.31508  -0.31136
 Alpha  occ. eigenvalues --   -0.31019  -0.30720  -0.30100  -0.29642  -0.29585
 Alpha  occ. eigenvalues --   -0.29434  -0.29043  -0.28870  -0.24184  -0.23770
 Alpha  occ. eigenvalues --   -0.21242  -0.20847
 Alpha virt. eigenvalues --   -0.08895  -0.08507  -0.01862  -0.01429  -0.00199
 Alpha virt. eigenvalues --    0.00231   0.02096   0.02401   0.02621   0.03594
 Alpha virt. eigenvalues --    0.04623   0.04957   0.05115   0.05361   0.06089

 Mulliken charges:
               1
     1  Mg   0.838661
     2  C   -0.002556
     3  C   -0.095062
     4  C   -0.045125
     5  C   -0.064380
     6  N   -0.256732
     7  C   -0.052511
     8  C   -0.013787
     9  C   -0.086826
    10  C    0.046085
    11  C    0.104823
    12  C    0.052983
    13  C   -0.072740
    14  H    0.038905
    15  N   -0.433224
    16  C    0.168076
    17  C   -0.178443
    18  C   -0.004657
    19  C    0.149127
    20  C    0.110367
    21  C    0.011761
    22  O   -0.248819
    23  C    0.063159
    24  N   -0.341220
    25  C    0.041207
    26  C   -0.028656
    27  C   -0.024307
    28  C    0.075379
    29  C    0.076064
    30  C    0.039611
    31  C   -0.014411
    32  N   -0.310693
    33  C    0.081023
    34  C   -0.170181
    35  C    0.008510
    36  C    0.083480
    37  C    0.127399
    38  C    0.046097
    39  O   -0.187469
    40  C   -0.005265
    41  C    0.212813
    42  O   -0.256421
    43  O   -0.305386
    44  C    0.156165
    45  H   -0.017891
    46  H   -0.016510
    47  H   -0.041655
    48  H    0.001679
    49  H   -0.004659
    50  H    0.025806
    51  H    0.016453
    52  H    0.016699
    53  H    0.009206
    54  H    0.044932
    55  H    0.018448
    56  H    0.016569
    57  H    0.005847
    58  H    0.027204
    59  H    0.036570
    60  H    0.037962
    61  H    0.035189
    62  H    0.028224
    63  H    0.017672
    64  H    0.009657
    65  H    0.023674
    66  H    0.012398
    67  H    0.004834
    68  H    0.006866
    69  H    0.002895
    70  H    0.012800
    71  H    0.020481
    72  H    0.029613
    73  H    0.047284
    74  H    0.008798
    75  H    0.046566
    76  H    0.035323
    77  H    0.043426
    78  H    0.046075
    79  H    0.057769
    80  Mg   0.837145
    81  C   -0.015693
    82  C   -0.087898
    83  C   -0.044978
    84  C   -0.063044
    85  N   -0.254386
    86  C   -0.049487
    87  C   -0.014815
    88  C   -0.091073
    89  C    0.045353
    90  C    0.113566
    91  C    0.062785
    92  C   -0.077225
    93  H    0.034407
    94  N   -0.423472
    95  C    0.162360
    96  C   -0.174491
    97  C   -0.007615
    98  C    0.151289
    99  C    0.099246
   100  C    0.015829
   101  O   -0.254008
   102  C    0.061131
   103  N   -0.349890
   104  C    0.036201
   105  C   -0.013218
   106  C   -0.036280
   107  C    0.089288
   108  C    0.060379
   109  C    0.034541
   110  C   -0.007117
   111  N   -0.325130
   112  C    0.079218
   113  C   -0.158621
   114  C    0.005354
   115  C    0.096270
   116  C    0.128879
   117  C    0.046422
   118  O   -0.187987
   119  C   -0.000417
   120  C    0.210631
   121  O   -0.251382
   122  O   -0.305963
   123  C    0.152269
   124  H   -0.022227
   125  H   -0.016220
   126  H   -0.039513
   127  H   -0.001666
   128  H   -0.005877
   129  H    0.024109
   130  H    0.016367
   131  H    0.011968
   132  H    0.013939
   133  H    0.037891
   134  H    0.019458
   135  H    0.018884
   136  H    0.006556
   137  H    0.026750
   138  H    0.038801
   139  H    0.039001
   140  H    0.035702
   141  H    0.033097
   142  H    0.013036
   143  H    0.012880
   144  H    0.023635
   145  H    0.018261
   146  H    0.008434
   147  H    0.005273
   148  H    0.004092
   149  H    0.010513
   150  H    0.017628
   151  H    0.030368
   152  H    0.044342
   153  H    0.007049
   154  H    0.057564
   155  H    0.037326
   156  H    0.042928
   157  H    0.048713
   158  H    0.053540
 Sum of Mulliken charges =  -0.00000

 Dipole moment (field-independent basis, Debye):
    X=             -3.6928    Y=             -1.6146    Z=             -7.0934  Tot=              8.1585
 Quadrupole moment (field-independent basis, Debye-Ang):
   XX=           -519.8325   YY=           -541.6543   ZZ=           -457.1698
   XY=            -11.4292   XZ=             -3.8292   YZ=            -39.7145

 Normal termination of Gaussian 16 at Fri Sep  3 16:27:46 2021.
