 Gaussian 16, Revision A.03,
 Gaussian 16:  ES64L-G16RevA.03 25-Dec-2016

 -----------------------------------
 #p cam-b3lyp/Def2SVP td=(nstates=5)
 -----------------------------------

 --------------------------------
 TDDFT excited states in gaussian
 --------------------------------
 Symbolic Z-matrix:
 Charge =  0 Multiplicity = 1

                         Standard orientation:
 ---------------------------------------------------------------------
 Center     Atomic      Atomic             Coordinates (Angstroms)
 Number     Number       Type             X           Y           Z
 ---------------------------------------------------------------------
      1         12           0        5.538135    0.342599    0.746904
      2          6           0        5.844904   -2.697936   -1.116764
      3          6           0        6.750061    1.971317   -1.995645
      4          6           0        5.705571    2.969430    2.515616
      5          6           0        5.444781   -1.608846    3.632871
      6          7           0        6.178576   -0.381130   -1.244753
      7          6           0        6.190282   -1.562819   -1.853560
      8          6           0        6.531633   -1.472654   -3.371033
      9          6           0        7.329265   -0.092156   -3.368031
     10          6           0        6.690961    0.554528   -2.151359
     11          6           0        8.824199   -0.252811   -3.111391
     12          6           0        5.248821   -1.391165   -4.265171
     13          6           0        5.478519   -1.628585   -5.760572
     14          1           0        4.455064   -2.326296   -6.524173
     15          7           0        5.669258    2.240213    0.213315
     16          6           0        6.174993    2.721979   -0.947469
     17          6           0        6.049542    4.193202   -0.867190
     18          6           0        5.604824    4.537374    0.511891
     19          6           0        5.668165    3.248035    1.151399
     20          6           0        6.291824    5.104396   -2.031139
     21          6           0        5.198842    5.825875    1.154600
     22          8           0        5.071896    5.943754    2.421314
     23          6           0        5.037512    6.984930    0.258160
     24          7           0        5.791616    0.662308    2.794138
     25          6           0        5.769490    1.897131    3.307660
     26          6           0        5.685619    1.864388    4.804935
     27          6           0        5.408813    0.341941    5.198998
     28          6           0        5.466475   -0.282555    3.783035
     29          6           0        6.925744    2.368541    5.555888
     30          6           0        4.166406    0.058372    6.080152
     31          6           0        2.905316    0.353786    5.299458
     32          7           0        5.448527   -1.777770    1.201932
     33          6           0        5.440970   -2.367476    2.474278
     34          6           0        5.483212   -3.827659    2.273902
     35          6           0        5.529443   -3.986552    0.890262
     36          6           0        5.543374   -2.706218    0.266689
     37          6           0        5.534226   -4.808916    3.302963
     38          6           0        5.595179   -4.939723   -0.205641
     39          8           0        5.518514   -6.166014   -0.294102
     40          6           0        5.924980   -4.142424   -1.544063
     41          6           0        4.967473   -4.616514   -2.603180
     42          8           0        3.745967   -4.376724   -2.514917
     43          8           0        5.660902   -5.064654   -3.660946
     44          6           0        4.770015   -5.522863   -4.760272
     45          1           0        7.338329    2.556238   -2.705399
     46          1           0        5.652514    3.848172    3.161708
     47          1           0        5.333101   -2.282737    4.484254
     48          1           0        7.173339   -2.272575   -3.740848
     49          1           0        7.125282    0.497638   -4.261483
     50          1           0        9.074504   -1.279414   -2.844268
     51          1           0        9.051917    0.421713   -2.285767
     52          1           0        9.404084    0.107622   -3.961448
     53          1           0        4.895073   -0.360562   -4.293133
     54          1           0        4.482840   -2.078551   -3.904476
     55          1           0        6.459708   -2.065377   -5.948691
     56          1           0        5.513265   -0.659706   -6.258835
     57          1           0        6.765119    4.578746   -2.859528
     58          1           0        7.034723    5.835840   -1.713648
     59          1           0        5.383088    5.616841   -2.347257
     60          1           0        5.978116    7.172772   -0.260038
     61          1           0        4.658315    7.795318    0.879716
     62          1           0        4.307274    6.736320   -0.512485
     63          1           0        4.863105    2.481548    5.164117
     64          1           0        6.236985   -0.092580    5.759352
     65          1           0        6.717317    3.186553    6.245902
     66          1           0        7.671534    2.660537    4.817088
     67          1           0        7.463292    1.603774    6.115880
     68          1           0        4.163613    0.710616    6.952801
     69          1           0        4.116562   -0.971005    6.435325
     70          1           0        2.786195    1.429108    5.427225
     71          1           0        2.058984   -0.186112    5.725420
     72          1           0        3.043053    0.165455    4.234542
     73          1           0        4.838897   -5.595235    3.009386
     74          1           0        5.265729   -4.383312    4.269593
     75          1           0        6.583109   -5.100638    3.251990
     76          1           0        6.960229   -4.369162   -1.796989
     77          1           0        5.045013   -6.552762   -4.988124
     78          1           0        4.859830   -4.786599   -5.559180
     79          1           0        3.715714   -5.642323   -4.508245
     80         12           0       -4.990488    0.658596   -0.334627
     81          6           0       -7.700090   -1.604267    0.310812
     82          6           0       -7.311569    2.869219   -1.500957
     83          6           0       -2.599352    2.491570   -1.329648
     84          6           0       -2.848948   -2.087725   -0.203299
     85          7           0       -7.191068    0.533665   -0.519352
     86          6           0       -8.117797   -0.351474   -0.184621
     87          6           0       -9.576318    0.163024   -0.317132
     88          6           0       -9.326946    1.314415   -1.408452
     89          6           0       -7.861745    1.623179   -1.107554
     90          6           0       -9.425852    0.817323   -2.841093
     91          6           0      -10.125604    0.755680    1.027879
     92          6           0      -11.637225    0.992184    1.056566
     93          1           0      -12.351965    0.775302    2.311387
     94          7           0       -4.962380    2.583718   -0.815928
     95          6           0       -6.000491    3.329507   -1.248838
     96          6           0       -5.457496    4.676134   -1.485254
     97          6           0       -3.980137    4.622911   -1.314118
     98          6           0       -3.783467    3.195050   -1.163732
     99          6           0       -6.328111    5.868239   -1.757947
    100          6           0       -2.918447    5.680679   -1.302233
    101          8           0       -1.673294    5.385783   -1.376091
    102          6           0       -3.382827    7.075591   -1.295785
    103          7           0       -3.041222    0.237429   -0.922268
    104          6           0       -2.191788    1.224269   -1.257711
    105          6           0       -0.777147    0.709435   -1.376558
    106          6           0       -0.815568   -0.786504   -0.812404
    107          6           0       -2.329723   -0.913837   -0.535776
    108          6           0       -0.186580    0.706369   -2.786388
    109          6           0        0.176497   -1.132976    0.331470
    110          6           0       -0.199970   -0.379697    1.586961
    111          7           0       -5.173573   -1.433703    0.172148
    112          6           0       -4.156393   -2.412504    0.135056
    113          6           0       -4.788322   -3.709377    0.453204
    114          6           0       -6.144192   -3.396166    0.632135
    115          6           0       -6.346663   -2.005774    0.419280
    116          6           0       -4.126543   -4.968856    0.496448
    117          6           0       -7.451998   -3.927362    0.942233
    118          8           0       -7.882229   -5.023564    1.298603
    119          6           0       -8.538906   -2.812168    0.623847
    120          6           0       -9.476577   -2.729087    1.797043
    121          8           0       -9.069377   -2.338113    2.905164
    122          8           0      -10.737881   -2.915060    1.367053
    123          6           0      -11.705876   -2.830674    2.492972
    124          1           0       -7.927751    3.543693   -2.096187
    125          1           0       -1.720561    3.096443   -1.564866
    126          1           0       -2.232405   -2.975400   -0.046499
    127          1           0      -10.281854   -0.564969   -0.699280
    128          1           0       -9.947924    2.184841   -1.213235
    129          1           0       -9.531116   -0.256367   -2.888634
    130          1           0       -8.509452    1.129404   -3.324680
    131          1           0      -10.234476    1.335180   -3.364807
    132          1           0       -9.771672    1.789150    1.134742
    133          1           0       -9.840111    0.141399    1.859614
    134          1           0      -12.149526    0.485138    0.229893
    135          1           0      -11.825841    2.053583    0.878024
    136          1           0       -7.358240    5.569715   -1.988423
    137          1           0       -5.963891    6.324918   -2.684579
    138          1           0       -6.287861    6.610954   -0.958319
    139          1           0       -4.002027    7.254129   -2.171672
    140          1           0       -2.481244    7.683284   -1.197118
    141          1           0       -4.024585    7.226631   -0.420599
    142          1           0       -0.099537    1.296790   -0.769140
    143          1           0       -0.575808   -1.522842   -1.593536
    144          1           0        0.754068    1.283241   -2.866827
    145          1           0       -0.930585    1.095080   -3.468951
    146          1           0        0.014210   -0.280097   -3.200828
    147          1           0        1.186660   -0.810639    0.067268
    148          1           0        0.224927   -2.193535    0.554752
    149          1           0        0.261244    0.600626    1.434217
    150          1           0        0.206436   -0.874332    2.466853
    151          1           0       -1.284137   -0.228475    1.645023
    152          1           0       -4.490059   -5.481492    1.377109
    153          1           0       -3.045447   -4.849227    0.522988
    154          1           0       -4.468605   -5.401440   -0.447543
    155          1           0       -9.053358   -3.107922   -0.291271
    156          1           0      -12.281843   -3.761234    2.489556
    157          1           0      -12.266885   -1.890462    2.334795
    158          1           0      -11.305048   -2.833735    3.499837
 ---------------------------------------------------------------------

 SCF Done:  E(RCAM-B3LYP) =  -4069.81265012     A.U. after   19 cycles

 Excitation energies and oscillator strengths:

 Excited State   1:      Singlet-A      1.6535 eV  749.83 nm  f=0.0048  <S**2>=0.000
     309 -> 315       -0.11177
     310 -> 316        0.12586
     311 -> 313       -0.45419
     312 -> 314        0.51580
 This state for optimization and/or second-order correction.
 Total Energy, E(TD-HF/TD-DFT) =  -4069.75188509
 Copying the excited state density for this state as the 1-particle RhoCI density.

 Excited State   2:      Singlet-A      1.6973 eV  730.46 nm  f=0.7086  <S**2>=0.000
     309 -> 315        0.13552
     310 -> 316        0.11807
     311 -> 313        0.51390
     312 -> 314        0.45246

 Excited State   3:      Singlet-A      2.1838 eV  567.74 nm  f=0.1083  <S**2>=0.000
     310 -> 314        0.64199
     312 -> 316       -0.27104

 Excited State   4:      Singlet-A      2.1968 eV  564.37 nm  f=0.0940  <S**2>=0.000
     309 -> 313        0.63930
     311 -> 315       -0.27970

 Excited State   5:      Singlet-A      2.4790 eV  500.14 nm  f=0.0000  <S**2>=0.000
     312 -> 313        0.70644

 The electronic state is 1-A.
 Alpha  occ. eigenvalues --  -46.87881 -46.87456 -19.26415 -19.26215 -19.19180
 Alpha  occ. eigenvalues --  -19.19017 -19.18730 -19.18589 -19.18229 -19.17873
 Alpha  occ. eigenvalues --  -14.42509 -14.42302 -14.41495 -14.41133 -14.39448
 Alpha  occ. eigenvalues --  -14.39157 -14.38661 -14.38393 -10.39228 -10.38943
 Alpha  occ. eigenvalues --  -10.35356 -10.35271 -10.34456 -10.34050 -10.31799
 Alpha  occ. eigenvalues --  -10.31638 -10.31477 -10.31109 -10.30952 -10.30854
 Alpha  occ. eigenvalues --  -10.30630 -10.30549 -10.30216 -10.30186 -10.30149
 Alpha  occ. eigenvalues --  -10.29967 -10.29895 -10.29655 -10.29654 -10.29274
 Alpha  occ. eigenvalues --  -10.29235 -10.29200 -10.28823 -10.28630 -10.28570
 Alpha  occ. eigenvalues --  -10.28542 -10.28414 -10.28223 -10.28178 -10.27985
 Alpha  occ. eigenvalues --  -10.27824 -10.27803 -10.27771 -10.27592 -10.27499
 Alpha  occ. eigenvalues --  -10.27475 -10.27460 -10.27449 -10.27413 -10.27329
 Alpha  occ. eigenvalues --  -10.27290 -10.27278 -10.27240 -10.27115 -10.27090
 Alpha  occ. eigenvalues --  -10.26882 -10.26819 -10.26560 -10.26334 -10.26280
 Alpha  occ. eigenvalues --  -10.26213 -10.26167 -10.26054 -10.25885 -10.25881
 Alpha  occ. eigenvalues --  -10.25675 -10.25663 -10.25546 -10.25426 -10.25134
 Alpha  occ. eigenvalues --  -10.24878 -10.24820 -10.24676 -10.24675 -10.24485
 Alpha  occ. eigenvalues --  -10.24405  -3.16616  -3.16206  -1.91499  -1.91089
 Alpha  occ. eigenvalues --   -1.91083  -1.90925  -1.90677  -1.90514  -1.16767
 Alpha  occ. eigenvalues --   -1.16506  -1.08696  -1.08482  -1.07124  -1.06846
 Alpha  occ. eigenvalues --   -1.06801  -1.06795  -1.04638  -1.04304  -1.03803
 Alpha  occ. eigenvalues --   -1.03457  -1.03280  -1.02819  -1.02459  -1.01901
 Alpha  occ. eigenvalues --   -0.92032  -0.91794  -0.89541  -0.89255  -0.89219
 Alpha  occ. eigenvalues --   -0.88983  -0.88304  -0.87933  -0.87913  -0.87720
 Alpha  occ. eigenvalues --   -0.87565  -0.87478  -0.87239  -0.86959  -0.85034
 Alpha  occ. eigenvalues --   -0.84829  -0.83952  -0.83598  -0.82907  -0.82767
 Alpha  occ. eigenvalues --   -0.82661  -0.82479  -0.81657  -0.81414  -0.80635
 Alpha  occ. eigenvalues --   -0.80261  -0.78794  -0.78447  -0.77247  -0.76991
 Alpha  occ. eigenvalues --   -0.76949  -0.76692  -0.75979  -0.75663  -0.74919
 Alpha  occ. eigenvalues --   -0.74562  -0.72810  -0.72478  -0.71713  -0.71377
 Alpha  occ. eigenvalues --   -0.69912  -0.69424  -0.68911  -0.68651  -0.67672
 Alpha  occ. eigenvalues --   -0.67407  -0.67251  -0.67052  -0.65351  -0.65100
 Alpha  occ. eigenvalues --   -0.64909  -0.64666  -0.64557  -0.64457  -0.64293
 Alpha  occ. eigenvalues --   -0.63923  -0.62380  -0.62086  -0.60429  -0.60150
 Alpha  occ. eigenvalues --   -0.59862  -0.59622  -0.59031  -0.58779  -0.58546
 Alpha  occ. eigenvalues --   -0.58217  -0.57668  -0.57375  -0.57330  -0.57011
 Alpha  occ. eigenvalues --   -0.56339  -0.56063  -0.56000  -0.55722  -0.55511
 Alpha  occ. eigenvalues --   -0.55381  -0.55292  -0.55004  -0.54581  -0.54245
 Alpha  occ. eigenvalues --   -0.53961  -0.53752  -0.53320  -0.53225  -0.53036
 Alpha  occ. eigenvalues --   -0.52977  -0.52957  -0.52719  -0.52714  -0.52533
 Alpha  occ. eigenvalues --   -0.52439  -0.52066  -0.51961  -0.51647  -0.51633
 Alpha  occ. eigenvalues --   -0.51506  -0.51244  -0.50989  -0.50485  -0.50328
 Alpha  occ. eigenvalues --   -0.50029  -0.49903  -0.49813  -0.49615  -0.49525
 Alpha  occ. eigenvalues --   -0.49332  -0.49242  -0.49142  -0.49034  -0.48920
 Alpha  occ. eigenvalues --   -0.48653  -0.48488  -0.48407  -0.48384  -0.48198
 Alpha  occ. eigenvalues --   -0.48129  -0.47711  -0.47402  -0.47306  -0.46927
 Alpha  occ. eigenvalues --   -0.46835  -0.46612  -0.46483  -0.46396  -0.46376
 Alpha  occ. eigenvalues --   -0.46208  -0.46048  -0.45888  -0.45852  -0.45614
 Alpha  occ. eigenvalues --   -0.45215  -0.44978  -0.44634  -0.44501  -0.44352
 Alpha  occ. eigenvalues --   -0.44265  -0.44163  -0.44128  -0.44016  -0.43961
 Alpha  occ. eigenvalues --   -0.43845  -0.43781  -0.43558  -0.43428  -0.43361
 Alpha  occ. eigenvalues --   -0.43196  -0.43066  -0.42797  -0.42764  -0.42696
 Alpha  occ. eigenvalues --   -0.42669  -0.42300  -0.42045  -0.41750  -0.41719
 Alpha  occ. eigenvalues --   -0.41582  -0.41472  -0.41263  -0.41181  -0.40913
 Alpha  occ. eigenvalues --   -0.40800  -0.40768  -0.40592  -0.40588  -0.40504
 Alpha  occ. eigenvalues --   -0.40292  -0.40196  -0.40092  -0.39441  -0.39095
 Alpha  occ. eigenvalues --   -0.38495  -0.38086  -0.37820  -0.37493  -0.37347
 Alpha  occ. eigenvalues --   -0.37327  -0.37035  -0.36990  -0.36819  -0.36597
 Alpha  occ. eigenvalues --   -0.36257  -0.35979  -0.34342  -0.34045  -0.33913
 Alpha  occ. eigenvalues --   -0.33707  -0.33237  -0.32967  -0.31274  -0.31147
 Alpha  occ. eigenvalues --   -0.31069  -0.30772  -0.30095  -0.29776  -0.29469
 Alpha  occ. eigenvalues --   -0.29364  -0.29146  -0.29011  -0.24136  -0.23828
 Alpha  occ. eigenvalues --   -0.21167  -0.20909
 Alpha virt. eigenvalues --   -0.08803  -0.08595  -0.01784  -0.01484  -0.00047
 Alpha virt. eigenvalues --    0.00130   0.02118   0.02234   0.02500   0.03439
 Alpha virt. eigenvalues --    0.04654   0.04915   0.04962   0.05317   0.06047

 Mulliken charges:
               1
     1  Mg   0.831081
     2  C   -0.002641
     3  C   -0.093694
     4  C   -0.045106
     5  C   -0.063583
     6  N   -0.256398
     7  C   -0.054563
     8  C   -0.013432
     9  C   -0.087034
    10  C    0.046072
    11  C    0.104716
    12  C    0.053116
    13  C   -0.071893
    14  H    0.035711
    15  N   -0.433911
    16  C    0.168573
    17  C   -0.175979
    18  C   -0.002597
    19  C    0.149065
    20  C    0.109815
    21  C    0.014546
    22  O   -0.249152
    23  C    0.061185
    24  N   -0.340367
    25  C    0.041496
    26  C   -0.028358
    27  C   -0.024044
    28  C    0.073898
    29  C    0.076089
    30  C    0.035103
    31  C   -0.006072
    32  N   -0.310483
    33  C    0.078933
    34  C   -0.170903
    35  C    0.008113
    36  C    0.080282
    37  C    0.127539
    38  C    0.045217
    39  O   -0.188668
    40  C   -0.005572
    41  C    0.213429
    42  O   -0.259828
    43  O   -0.304251
    44  C    0.157668
    45  H   -0.017143
    46  H   -0.016070
    47  H   -0.041560
    48  H    0.001020
    49  H   -0.003678
    50  H    0.025585
    51  H    0.016736
    52  H    0.016976
    53  H    0.011135
    54  H    0.042281
    55  H    0.018346
    56  H    0.018604
    57  H    0.005578
    58  H    0.026950
    59  H    0.042471
    60  H    0.036257
    61  H    0.036248
    62  H    0.035983
    63  H    0.017339
    64  H    0.009600
    65  H    0.023658
    66  H    0.012546
    67  H    0.004902
    68  H    0.006951
    69  H    0.004695
    70  H    0.010021
    71  H    0.019133
    72  H    0.028455
    73  H    0.046903
    74  H    0.009338
    75  H    0.046269
    76  H    0.035574
    77  H    0.043557
    78  H    0.046683
    79  H    0.052868
    80  Mg   0.837428
    81  C   -0.017325
    82  C   -0.088303
    83  C   -0.045486
    84  C   -0.064655
    85  N   -0.254603
    86  C   -0.049792
    87  C   -0.015119
    88  C   -0.090417
    89  C    0.045594
    90  C    0.114550
    91  C    0.062610
    92  C   -0.077642
    93  H    0.034470
    94  N   -0.423307
    95  C    0.162642
    96  C   -0.175249
    97  C   -0.008506
    98  C    0.152094
    99  C    0.099605
   100  C    0.015420
   101  O   -0.254764
   102  C    0.061424
   103  N   -0.350085
   104  C    0.037479
   105  C   -0.020628
   106  C   -0.037498
   107  C    0.087934
   108  C    0.073170
   109  C    0.033329
   110  C   -0.010694
   111  N   -0.324232
   112  C    0.078519
   113  C   -0.162452
   114  C    0.002044
   115  C    0.096474
   116  C    0.131082
   117  C    0.042486
   118  O   -0.187978
   119  C    0.000915
   120  C    0.211212
   121  O   -0.251166
   122  O   -0.305660
   123  C    0.152144
   124  H   -0.020457
   125  H   -0.016707
   126  H   -0.035886
   127  H   -0.000908
   128  H   -0.004769
   129  H    0.022315
   130  H    0.014317
   131  H    0.015690
   132  H    0.013880
   133  H    0.037628
   134  H    0.020624
   135  H    0.019361
   136  H    0.008423
   137  H    0.025155
   138  H    0.039237
   139  H    0.037746
   140  H    0.035013
   141  H    0.034273
   142  H    0.012803
   143  H    0.019941
   144  H    0.022773
   145  H    0.009750
   146  H    0.009912
   147  H    0.010149
   148  H    0.011835
   149  H    0.008721
   150  H    0.020272
   151  H    0.028632
   152  H    0.045639
   153  H    0.011882
   154  H    0.047224
   155  H    0.034730
   156  H    0.043698
   157  H    0.049289
   158  H    0.053431
 Sum of Mulliken charges =  -0.00000

 Dipole moment (field-independent basis, Debye):
    X=              1.0147    Y=              6.4700    Z=             -4.7780  Tot=              8.1068
 Quadrupole moment (field-independent basis, Debye-Ang):
   XX=           -447.5011   YY=           -544.1813   ZZ=           -480.6018
   XY=            -29.6418   XZ=              3.0738   YZ=             -9.5543

 Normal termination of Gaussian 16 at Fri Sep 10 09:06:57 2021.
