 Gaussian 16, Revision A.03,
 Gaussian 16:  ES64L-G16RevA.03 25-Dec-2016

 -----------------------------------
 #p cam-b3lyp/Def2SVP td=(nstates=5)
 -----------------------------------

 --------------------------------
 TDDFT excited states in gaussian
 --------------------------------
 Symbolic Z-matrix:
 Charge =  0 Multiplicity = 1

                         Standard orientation:
 ---------------------------------------------------------------------
 Center     Atomic      Atomic             Coordinates (Angstroms)
 Number     Number       Type             X           Y           Z
 ---------------------------------------------------------------------
      1         12           0       16.052864   -0.637870    0.313278
      2          6           0       16.269352    2.442411   -1.497030
      3          6           0       16.886184    1.122495    3.115020
      4          6           0       16.312955   -3.404056    1.842065
      5          6           0       16.358973   -2.284647   -2.742877
      6          7           0       16.495141    1.506443    0.640325
      7          6           0       16.485400    2.593039   -0.125433
      8          6           0       16.651523    3.917087    0.678727
      9          6           0       17.389509    3.337770    1.967822
     10          6           0       16.865937    1.912925    1.927652
     11          6           0       18.908902    3.306601    1.837534
     12          6           0       15.274766    4.564385    1.049233
     13          6           0       15.345387    6.012069    1.543781
     14          1           0       14.271421    6.926965    1.187536
     15          7           0       16.048794   -1.037802    2.247932
     16          6           0       16.402512   -0.196919    3.249474
     17          6           0       16.228944   -0.960979    4.503574
     18          6           0       15.927631   -2.372984    4.138132
     19          6           0       16.112655   -2.333227    2.709999
     20          6           0       16.303790   -0.337954    5.863716
     21          6           0       15.545441   -3.570882    4.948752
     22          8           0       15.556048   -4.753073    4.462043
     23          6           0       15.239587   -3.331439    6.370780
     24          7           0       16.520346   -2.571495   -0.319330
     25          6           0       16.507019   -3.599564    0.536170
     26          6           0       16.592052   -4.911693   -0.185652
     27          6           0       16.421120   -4.574654   -1.737084
     28          6           0       16.345022   -3.031179   -1.636277
     29          6           0       17.887380   -5.708080    0.023877
     30          6           0       15.296902   -5.320361   -2.498974
     31          6           0       13.945944   -4.870698   -1.989256
     32          7           0       16.098169   -0.061868   -1.778902
     33          6           0       16.255828   -0.910842   -2.883918
     34          6           0       16.332939   -0.052697   -4.080459
     35          6           0       16.230755    1.245155   -3.583483
     36          6           0       16.124594    1.201757   -2.163928
     37          6           0       16.537042   -0.500564   -5.415446
     38          6           0       16.211326    2.659609   -3.919338
     39          8           0       16.173636    3.300853   -4.970470
     40          6           0       16.358099    3.496463   -2.572504
     41          6           0       15.307844    4.573483   -2.589870
     42          8           0       14.095317    4.285763   -2.523832
     43          8           0       15.896060    5.770431   -2.442023
     44          6           0       14.906845    6.880914   -2.421162
     45          1           0       17.368105    1.524337    4.008449
     46          1           0       16.297730   -4.386205    2.319128
     47          1           0       16.369597   -2.731648   -3.738633
     48          1           0       17.278979    4.666448    0.195838
     49          1           0       17.064059    3.835462    2.881117
     50          1           0       19.227687    3.567879    0.828559
     51          1           0       19.200552    2.283583    2.076001
     52          1           0       19.375691    3.935749    2.595859
     53          1           0       14.879787    4.081971    1.943285
     54          1           0       14.581478    4.503649    0.209597
     55          1           0       16.315906    6.459950    1.328365
     56          1           0       15.286142    6.004449    2.632189
     57          1           0       16.702057    0.674923    5.818902
     58          1           0       17.048075   -0.897683    6.429800
     59          1           0       15.345985   -0.370390    6.383227
     60          1           0       16.108380   -2.885748    6.855659
     61          1           0       14.900467   -4.286516    6.770375
     62          1           0       14.438302   -2.595211    6.440492
     63          1           0       15.791072   -5.581398    0.124754
     64          1           0       17.323101   -4.800311   -2.306454
     65          1           0       17.725167   -6.713301    0.413651
     66          1           0       18.534015   -5.131898    0.685064
     67          1           0       18.513747   -5.803515   -0.862675
     68          1           0       15.365783   -6.393103   -2.321702
     69          1           0       15.327578   -5.159664   -3.576697
     70          1           0       13.799553   -5.492302   -1.106640
     71          1           0       13.174339   -5.063964   -2.735236
     72          1           0       13.971338   -3.832905   -1.656349
     73          1           0       15.844821    0.067392   -6.036916
     74          1           0       16.361496   -1.572392   -5.504729
     75          1           0       17.584365   -0.235545   -5.559447
     76          1           0       17.366795    3.908327   -2.567714
     77          1           0       15.195063    7.582273   -3.204270
     78          1           0       14.877906    7.250908   -1.396139
     79          1           0       13.892767    6.629057   -2.733499
     80         12           0      -15.691233   -0.731833   -0.091374
     81          6           0      -18.183112    1.819771    0.307257
     82          6           0      -13.395170    1.770016   -0.412975
     83          6           0      -13.551471   -2.933449   -0.892439
     84          6           0      -18.273818   -2.937007   -0.874451
     85          7           0      -15.886089    1.470821   -0.040570
     86          6           0      -16.873050    2.326436    0.178986
     87          6           0      -16.420097    3.801731    0.346014
     88          6           0      -15.033112    3.720083   -0.459266
     89          6           0      -14.726179    2.236253   -0.267607
     90          6           0      -15.184544    3.988169   -1.947402
     91          6           0      -16.189789    4.189786    1.848804
     92          6           0      -16.047317    5.690716    2.110847
     93          1           0      -16.590383    6.235166    3.352276
     94          7           0      -13.708225   -0.653173   -0.097409
     95          6           0      -12.937923    0.448794   -0.213918
     96          6           0      -11.546518   -0.027855   -0.183053
     97          6           0      -11.559822   -1.515830   -0.204586
     98          6           0      -12.970565   -1.763661   -0.424791
     99          6           0      -10.371723    0.898239   -0.057947
    100          6           0      -10.479510   -2.545167   -0.064610
    101          8           0      -10.682222   -3.777503   -0.352840
    102          6           0       -9.151797   -2.052538    0.330333
    103          7           0      -15.858457   -2.600196   -0.987797
    104          6           0      -14.776730   -3.376668   -1.174579
    105          6           0      -15.173350   -4.776567   -1.578779
    106          6           0      -16.759787   -4.845382   -1.388884
    107          6           0      -17.028783   -3.381983   -0.974744
    108          6           0      -14.813972   -5.183417   -3.007670
    109          6           0      -17.311864   -5.982439   -0.486121
    110          6           0      -16.895461   -5.750598    0.948541
    111          7           0      -17.850725   -0.663997   -0.082609
    112          6           0      -18.737979   -1.691083   -0.472410
    113          6           0      -20.104998   -1.135437   -0.402136
    114          6           0      -19.915062    0.193794    0.004769
    115          6           0      -18.526341    0.454420    0.156477
    116          6           0      -21.302426   -1.826933   -0.739948
    117          6           0      -20.572956    1.438778    0.330167
    118          8           0      -21.743450    1.794303    0.461628
    119          6           0      -19.473572    2.583330    0.418252
    120          6           0      -19.718177    3.366297    1.679062
    121          8           0      -19.577184    2.831155    2.792772
    122          8           0      -19.864789    4.667207    1.368431
    123          6           0      -20.098642    5.486266    2.587565
    124          1           0      -12.633556    2.472496   -0.752618
    125          1           0      -12.862451   -3.760768   -1.077578
    126          1           0      -19.139432   -3.589247   -1.008456
    127          1           0      -17.074473    4.532651   -0.113692
    128          1           0      -14.267106    4.331661    0.010383
    129          1           0      -16.221095    4.073225   -2.238016
    130          1           0      -14.719391    3.148152   -2.446452
    131          1           0      -14.601942    4.868695   -2.232999
    132          1           0      -15.192981    3.849674    2.157729
    133          1           0      -16.966084    3.786660    2.469684
    134          1           0      -16.372637    6.291638    1.252934
    135          1           0      -14.985243    5.925488    2.215196
    136          1           0      -10.662111    1.941939   -0.230436
    137          1           0       -9.691585    0.665400   -0.884419
    138          1           0       -9.836410    0.774427    0.885866
    139          1           0       -8.805812   -1.323171   -0.398228
    140          1           0       -8.537210   -2.944736    0.464962
    141          1           0       -9.244762   -1.523603    1.285429
    142          1           0      -14.709832   -5.511698   -0.932380
    143          1           0      -17.278362   -5.001430   -2.346259
    144          1           0      -14.185174   -6.092366   -3.057623
    145          1           0      -14.316006   -4.349857   -3.484900
    146          1           0      -15.663480   -5.353248   -3.666983
    147          1           0      -16.883280   -6.943038   -0.782328
    148          1           0      -18.391086   -6.083851   -0.530678
    149          1           0      -15.883590   -6.165429    0.981918
    150          1           0      -17.560496   -6.276918    1.630263
    151          1           0      -16.819938   -4.679301    1.168209
    152          1           0      -22.026045   -1.590283    0.028735
    153          1           0      -21.135076   -2.899520   -0.812841
    154          1           0      -21.518861   -1.378178   -1.713111
    155          1           0      -19.573154    3.202594   -0.474032
    156          1           0      -21.031659    6.035863    2.429108
    157          1           0      -19.178754    6.084863    2.726300
    158          1           0      -20.316667    4.960975    3.510054
 ---------------------------------------------------------------------

 SCF Done:  E(RCAM-B3LYP) =  -4069.81178850     A.U. after   19 cycles

 Excitation energies and oscillator strengths:

 Excited State   1:      Singlet-A      1.6756 eV  739.93 nm  f=0.3947  <S**2>=0.000
     310 -> 316       -0.17358
     312 -> 313        0.68580
     310 <- 316       -0.10462
 This state for optimization and/or second-order correction.
 Total Energy, E(TD-HF/TD-DFT) =  -4069.75021097
 Copying the excited state density for this state as the 1-particle RhoCI density.

 Excited State   2:      Singlet-A      1.6799 eV  738.06 nm  f=0.3874  <S**2>=0.000
     309 -> 315        0.17551
     311 -> 314        0.68546
     309 <- 315        0.10511

 Excited State   3:      Singlet-A      2.1862 eV  567.12 nm  f=0.0952  <S**2>=0.000
     310 -> 313        0.64209
     312 -> 316        0.27302

 Excited State   4:      Singlet-A      2.1926 eV  565.47 nm  f=0.1049  <S**2>=0.000
     309 -> 314        0.64032
     311 -> 315       -0.27818

 Excited State   5:      Singlet-A      3.0635 eV  404.72 nm  f=0.0000  <S**2>=0.000
     312 -> 314        0.70710

 The electronic state is 1-A.
 Alpha  occ. eigenvalues --  -46.87811 -46.87659 -19.26352 -19.26306 -19.19163
 Alpha  occ. eigenvalues --  -19.19042 -19.18827 -19.18708 -19.18186 -19.18052
 Alpha  occ. eigenvalues --  -14.42497 -14.42465 -14.41464 -14.41358 -14.39417
 Alpha  occ. eigenvalues --  -14.39351 -14.38602 -14.38599 -10.39101 -10.39093
 Alpha  occ. eigenvalues --  -10.35460 -10.35385 -10.34407 -10.34229 -10.31760
 Alpha  occ. eigenvalues --  -10.31704 -10.31421 -10.31309 -10.31021 -10.30924
 Alpha  occ. eigenvalues --  -10.30585 -10.30522 -10.30397 -10.30360 -10.30220
 Alpha  occ. eigenvalues --  -10.30139 -10.29935 -10.29894 -10.29645 -10.29434
 Alpha  occ. eigenvalues --  -10.29399 -10.29268 -10.28766 -10.28718 -10.28655
 Alpha  occ. eigenvalues --  -10.28560 -10.28403 -10.28380 -10.28139 -10.28133
 Alpha  occ. eigenvalues --  -10.28000 -10.27808 -10.27742 -10.27667 -10.27599
 Alpha  occ. eigenvalues --  -10.27518 -10.27513 -10.27495 -10.27483 -10.27464
 Alpha  occ. eigenvalues --  -10.27461 -10.27458 -10.27419 -10.27375 -10.27176
 Alpha  occ. eigenvalues --  -10.27051 -10.26725 -10.26693 -10.26421 -10.26404
 Alpha  occ. eigenvalues --  -10.26249 -10.26195 -10.26138 -10.26033 -10.26023
 Alpha  occ. eigenvalues --  -10.25934 -10.25859 -10.25853 -10.25446 -10.25396
 Alpha  occ. eigenvalues --  -10.24872 -10.24848 -10.24802 -10.24732 -10.24699
 Alpha  occ. eigenvalues --  -10.24689  -3.16554  -3.16409  -1.91436  -1.91291
 Alpha  occ. eigenvalues --   -1.91022  -1.90880  -1.90865  -1.90717  -1.16655
 Alpha  occ. eigenvalues --   -1.16646  -1.08659  -1.08645  -1.07228  -1.06960
 Alpha  occ. eigenvalues --   -1.06948  -1.06664  -1.04596  -1.04494  -1.03775
 Alpha  occ. eigenvalues --   -1.03662  -1.03248  -1.03038  -1.02426  -1.02110
 Alpha  occ. eigenvalues --   -0.91988  -0.91987  -0.89533  -0.89494  -0.89204
 Alpha  occ. eigenvalues --   -0.89150  -0.88300  -0.88220  -0.87885  -0.87794
 Alpha  occ. eigenvalues --   -0.87688  -0.87683  -0.87287  -0.87115  -0.84999
 Alpha  occ. eigenvalues --   -0.84998  -0.83950  -0.83876  -0.82980  -0.82926
 Alpha  occ. eigenvalues --   -0.82664  -0.82650  -0.81604  -0.81597  -0.80612
 Alpha  occ. eigenvalues --   -0.80442  -0.78811  -0.78633  -0.77233  -0.77143
 Alpha  occ. eigenvalues --   -0.76951  -0.76898  -0.75940  -0.75838  -0.74912
 Alpha  occ. eigenvalues --   -0.74802  -0.72789  -0.72698  -0.71687  -0.71580
 Alpha  occ. eigenvalues --   -0.69920  -0.69758  -0.68889  -0.68826  -0.67656
 Alpha  occ. eigenvalues --   -0.67600  -0.67236  -0.67198  -0.65303  -0.65271
 Alpha  occ. eigenvalues --   -0.64870  -0.64770  -0.64653  -0.64637  -0.64283
 Alpha  occ. eigenvalues --   -0.64203  -0.62316  -0.62279  -0.60456  -0.60336
 Alpha  occ. eigenvalues --   -0.59820  -0.59796  -0.59002  -0.58992  -0.58519
 Alpha  occ. eigenvalues --   -0.58425  -0.57602  -0.57555  -0.57323  -0.57235
 Alpha  occ. eigenvalues --   -0.56325  -0.56203  -0.55998  -0.55887  -0.55535
 Alpha  occ. eigenvalues --   -0.55450  -0.55355  -0.55248  -0.54540  -0.54488
 Alpha  occ. eigenvalues --   -0.53912  -0.53911  -0.53313  -0.53238  -0.53226
 Alpha  occ. eigenvalues --   -0.53140  -0.52931  -0.52902  -0.52770  -0.52662
 Alpha  occ. eigenvalues --   -0.52451  -0.52401  -0.51930  -0.51886  -0.51657
 Alpha  occ. eigenvalues --   -0.51633  -0.51212  -0.51201  -0.50585  -0.50469
 Alpha  occ. eigenvalues --   -0.50044  -0.49977  -0.49932  -0.49865  -0.49530
 Alpha  occ. eigenvalues --   -0.49484  -0.49230  -0.49201  -0.49112  -0.49104
 Alpha  occ. eigenvalues --   -0.48609  -0.48558  -0.48475  -0.48460  -0.48376
 Alpha  occ. eigenvalues --   -0.48334  -0.47710  -0.47593  -0.47311  -0.47116
 Alpha  occ. eigenvalues --   -0.46812  -0.46709  -0.46572  -0.46553  -0.46374
 Alpha  occ. eigenvalues --   -0.46269  -0.46178  -0.46086  -0.45839  -0.45823
 Alpha  occ. eigenvalues --   -0.45214  -0.45208  -0.44594  -0.44521  -0.44514
 Alpha  occ. eigenvalues --   -0.44475  -0.44159  -0.44126  -0.44104  -0.44077
 Alpha  occ. eigenvalues --   -0.44035  -0.43936  -0.43554  -0.43512  -0.43401
 Alpha  occ. eigenvalues --   -0.43385  -0.43042  -0.42931  -0.42901  -0.42717
 Alpha  occ. eigenvalues --   -0.42670  -0.42552  -0.42024  -0.41964  -0.41719
 Alpha  occ. eigenvalues --   -0.41669  -0.41550  -0.41458  -0.41156  -0.40988
 Alpha  occ. eigenvalues --   -0.40885  -0.40837  -0.40719  -0.40696  -0.40585
 Alpha  occ. eigenvalues --   -0.40493  -0.40252  -0.40225  -0.39453  -0.39426
 Alpha  occ. eigenvalues --   -0.38482  -0.38350  -0.37766  -0.37654  -0.37334
 Alpha  occ. eigenvalues --   -0.37280  -0.37265  -0.37198  -0.36773  -0.36732
 Alpha  occ. eigenvalues --   -0.36217  -0.36209  -0.34301  -0.34253  -0.33864
 Alpha  occ. eigenvalues --   -0.33791  -0.33202  -0.33175  -0.31357  -0.31267
 Alpha  occ. eigenvalues --   -0.31050  -0.30972  -0.30046  -0.29956  -0.29464
 Alpha  occ. eigenvalues --   -0.29337  -0.29325  -0.29211  -0.24095  -0.24035
 Alpha  occ. eigenvalues --   -0.21142  -0.21116
 Alpha virt. eigenvalues --   -0.08790  -0.08789  -0.01764  -0.01682  -0.00072
 Alpha virt. eigenvalues --   -0.00025   0.02185   0.02207   0.03105   0.03226
 Alpha virt. eigenvalues --    0.04702   0.04730   0.05078   0.05163   0.06159

 Mulliken charges:
               1
     1  Mg   0.838734
     2  C   -0.002983
     3  C   -0.094118
     4  C   -0.045870
     5  C   -0.063933
     6  N   -0.256763
     7  C   -0.052501
     8  C   -0.014003
     9  C   -0.087009
    10  C    0.046304
    11  C    0.104809
    12  C    0.053485
    13  C   -0.071784
    14  H    0.036027
    15  N   -0.433157
    16  C    0.168426
    17  C   -0.177148
    18  C   -0.003980
    19  C    0.148715
    20  C    0.110179
    21  C    0.012300
    22  O   -0.249579
    23  C    0.062467
    24  N   -0.341137
    25  C    0.041255
    26  C   -0.028170
    27  C   -0.023987
    28  C    0.074818
    29  C    0.076152
    30  C    0.035133
    31  C   -0.004512
    32  N   -0.310460
    33  C    0.080386
    34  C   -0.169736
    35  C    0.008346
    36  C    0.082977
    37  C    0.127316
    38  C    0.046097
    39  O   -0.188492
    40  C   -0.005350
    41  C    0.212873
    42  O   -0.257157
    43  O   -0.304774
    44  C    0.157714
    45  H   -0.017584
    46  H   -0.016793
    47  H   -0.041483
    48  H    0.000933
    49  H   -0.004039
    50  H    0.025475
    51  H    0.016473
    52  H    0.016673
    53  H    0.011197
    54  H    0.044078
    55  H    0.017896
    56  H    0.017962
    57  H    0.005872
    58  H    0.026866
    59  H    0.039559
    60  H    0.037365
    61  H    0.035705
    62  H    0.031488
    63  H    0.016583
    64  H    0.009478
    65  H    0.023255
    66  H    0.012553
    67  H    0.004772
    68  H    0.006407
    69  H    0.004724
    70  H    0.008811
    71  H    0.018143
    72  H    0.028944
    73  H    0.047527
    74  H    0.009123
    75  H    0.046018
    76  H    0.035160
    77  H    0.042931
    78  H    0.046401
    79  H    0.053617
    80  Mg   0.837747
    81  C   -0.016835
    82  C   -0.087760
    83  C   -0.045495
    84  C   -0.064863
    85  N   -0.254554
    86  C   -0.049854
    87  C   -0.015110
    88  C   -0.090487
    89  C    0.045746
    90  C    0.114362
    91  C    0.062521
    92  C   -0.077893
    93  H    0.034858
    94  N   -0.423489
    95  C    0.162926
    96  C   -0.174578
    97  C   -0.007762
    98  C    0.152118
    99  C    0.099340
   100  C    0.015604
   101  O   -0.253140
   102  C    0.061189
   103  N   -0.350041
   104  C    0.037543
   105  C   -0.019852
   106  C   -0.034801
   107  C    0.088876
   108  C    0.073632
   109  C    0.034738
   110  C   -0.007671
   111  N   -0.324068
   112  C    0.078406
   113  C   -0.163164
   114  C    0.002227
   115  C    0.096170
   116  C    0.131497
   117  C    0.042347
   118  O   -0.187928
   119  C    0.000932
   120  C    0.211246
   121  O   -0.251029
   122  O   -0.305623
   123  C    0.152032
   124  H   -0.019578
   125  H   -0.015521
   126  H   -0.040488
   127  H   -0.000654
   128  H   -0.004295
   129  H    0.022444
   130  H    0.014459
   131  H    0.016336
   132  H    0.013926
   133  H    0.037659
   134  H    0.020797
   135  H    0.019618
   136  H    0.008796
   137  H    0.026288
   138  H    0.039843
   139  H    0.038362
   140  H    0.036484
   141  H    0.033875
   142  H    0.014419
   143  H    0.012409
   144  H    0.025184
   145  H    0.011679
   146  H    0.005671
   147  H    0.006274
   148  H    0.003625
   149  H    0.010950
   150  H    0.017909
   151  H    0.030100
   152  H    0.045975
   153  H    0.008497
   154  H    0.046918
   155  H    0.035015
   156  H    0.043895
   157  H    0.049506
   158  H    0.053564
 Sum of Mulliken charges =  -0.00000

 Dipole moment (field-independent basis, Debye):
    X=              5.6592    Y=              2.6556    Z=              2.5771  Tot=              6.7616
 Quadrupole moment (field-independent basis, Debye-Ang):
   XX=           -583.7647   YY=           -475.8221   ZZ=           -512.2786
   XY=              7.6778   XZ=             98.9966   YZ=             40.4361

 Normal termination of Gaussian 16 at Sun Sep 12 22:31:29 2021.
