 Gaussian 16, Revision A.03,
 Gaussian 16:  ES64L-G16RevA.03 25-Dec-2016

 -----------------------------------
 #p cam-b3lyp/Def2SVP td=(nstates=5)
 -----------------------------------

 --------------------------------
 TDDFT excited states in gaussian
 --------------------------------
 Symbolic Z-matrix:
 Charge =  0 Multiplicity = 1

                         Standard orientation:
 ---------------------------------------------------------------------
 Center     Atomic      Atomic             Coordinates (Angstroms)
 Number     Number       Type             X           Y           Z
 ---------------------------------------------------------------------
      1         12           0        6.740104   -0.573412    0.718141
      2          6           0        7.115291    2.372606   -1.279965
      3          6           0        7.311299    1.387796    3.451356
      4          6           0        6.864623   -3.222130    2.457511
      5          6           0        7.326588   -2.429914   -2.172377
      6          7           0        7.146887    1.592264    0.930324
      7          6           0        7.205083    2.621780    0.091347
      8          6           0        7.294816    4.000786    0.810835
      9          6           0        7.913196    3.520347    2.199642
     10          6           0        7.398011    2.091953    2.213747
     11          6           0        9.438193    3.492599    2.210467
     12          6           0        5.888854    4.661288    1.007659
     13          6           0        5.911497    6.140897    1.402118
     14          1           0        4.872865    7.019349    0.885482
     15          7           0        6.560329   -0.835340    2.667994
     16          6           0        6.819735    0.077262    3.635027
     17          6           0        6.533882   -0.597469    4.919436
     18          6           0        6.269672   -2.034254    4.629721
     19          6           0        6.584095   -2.094213    3.225114
     20          6           0        6.483263    0.120921    6.232868
     21          6           0        5.817285   -3.174853    5.485590
     22          8           0        5.874343   -4.388417    5.087371
     23          6           0        5.382594   -2.837836    6.853254
     24          7           0        7.266778   -2.543051    0.270066
     25          6           0        7.177321   -3.508024    1.191917
     26          6           0        7.330168   -4.867232    0.576180
     27          6           0        7.300834   -4.642344   -1.004427
     28          6           0        7.213107   -3.096287   -1.021231
     29          6           0        8.602408   -5.636037    0.958743
     30          6           0        6.252116   -5.449412   -1.810187
     31          6           0        4.859502   -4.975970   -1.458652
     32          7           0        6.974994   -0.146678   -1.396988
     33          6           0        7.234284   -1.070448   -2.419774
     34          6           0        7.418665   -0.298593   -3.662477
     35          6           0        7.269270    1.030307   -3.270623
     36          6           0        7.034168    1.086680   -1.867113
     37          6           0        7.744464   -0.838181   -4.938069
     38          6           0        7.278027    2.417214   -3.706823
     39          8           0        7.335211    2.982068   -4.800058
     40          6           0        7.299868    3.348539   -2.415319
     41          6           0        6.253654    4.412899   -2.604746
     42          8           0        5.040672    4.120559   -2.628785
     43          8           0        6.823800    5.622138   -2.489778
     44          6           0        5.834825    6.723089   -2.638074
     45          1           0        7.709015    1.855878    4.353942
     46          1           0        6.807706   -4.168117    3.000012
     47          1           0        7.428775   -2.946213   -3.128644
     48          1           0        7.962357    4.719230    0.334757
     49          1           0        7.504925    4.078763    3.041787
     50          1           0        9.847199    3.684390    1.218574
     51          1           0        9.708703    2.491487    2.546756
     52          1           0        9.832757    4.177715    2.961275
     53          1           0        5.414846    4.240154    1.894239
     54          1           0        5.275137    4.535504    0.114991
     55          1           0        6.896817    6.580409    1.244378
     56          1           0        5.753252    6.209891    2.478408
     57          1           0        6.882151    1.131340    6.152331
     58          1           0        7.173820   -0.391134    6.902675
     59          1           0        5.482132    0.117437    6.664210
     60          1           0        6.202750   -2.351751    7.382040
     61          1           0        5.010149   -3.764986    7.287453
     62          1           0        4.576978   -2.105173    6.797232
     63          1           0        6.505413   -5.519874    0.859488
     64          1           0        8.251383   -4.900289   -1.471969
     65          1           0        8.407118   -6.612435    1.402830
     66          1           0        9.185022   -5.009144    1.633174
     67          1           0        9.307185   -5.788836    0.141822
     68          1           0        6.306456   -6.506299   -1.551375
     69          1           0        6.380662   -5.365199   -2.889370
     70          1           0        4.634338   -5.534692   -0.550928
     71          1           0        4.159490   -5.227960   -2.255957
     72          1           0        4.852579   -3.917031   -1.199642
     73          1           0        7.110791   -0.321413   -5.658748
     74          1           0        7.579703   -1.915056   -4.966298
     75          1           0        8.800080   -0.575371   -5.004860
     76          1           0        8.303188    3.768039   -2.348292
     77          1           0        6.192009    7.369584   -3.439758
     78          1           0        5.711868    7.164498   -1.648910
     79          1           0        4.853909    6.441363   -3.022486
     80         12           0       -6.410503   -0.729918   -0.646261
     81          6           0       -8.701865    1.587662    0.856254
     82          6           0       -4.964414    1.938930   -2.202121
     83          6           0       -4.670800   -2.780634   -2.330135
     84          6           0       -8.695783   -3.254891    0.093817
     85          7           0       -6.863875    1.434452   -0.598857
     86          6           0       -7.718600    2.205820    0.055945
     87          6           0       -7.457285    3.728422   -0.095599
     88          6           0       -6.663404    3.698420   -1.491206
     89          6           0       -6.094965    2.282685   -1.418676
     90          6           0       -7.574859    3.785590   -2.704058
     91          6           0       -6.564147    4.299638    1.061130
     92          6           0       -6.524218    5.826902    1.148428
     93          1           0       -6.444650    6.446779    2.468239
     94          7           0       -4.730507   -0.454286   -1.666172
     95          6           0       -4.286907    0.699869   -2.206942
     96          6           0       -3.015162    0.371138   -2.869338
     97          6           0       -2.826336   -1.104072   -2.816466
     98          6           0       -4.106535   -1.514476   -2.275421
     99          6           0       -2.080243    1.418271   -3.401191
    100          6           0       -1.687449   -1.998579   -3.202474
    101          8           0       -1.830019   -3.269123   -3.293215
    102          6           0       -0.425505   -1.335282   -3.561681
    103          7           0       -6.736679   -2.692427   -1.249990
    104          6           0       -5.795822   -3.372471   -1.928403
    105          6           0       -6.138277   -4.840811   -2.012617
    106          6           0       -7.388925   -5.046886   -1.037420
    107          6           0       -7.619164   -3.581292   -0.607981
    108          6           0       -6.488018   -5.363499   -3.405764
    109          6           0       -7.247979   -6.127889    0.069032
    110          6           0       -6.207772   -5.699986    1.079105
    111          7           0       -8.260665   -0.878037    0.459632
    112          6           0       -9.067954   -2.025231    0.621836
    113          6           0      -10.279491   -1.604870    1.355250
    114          6           0      -10.102246   -0.226810    1.550242
    115          6           0       -8.876903    0.186543    0.961036
    116          6           0      -11.373373   -2.445534    1.705727
    117          6           0      -10.678122    0.974154    2.111262
    118          8           0      -11.662794    1.222964    2.805705
    119          6           0       -9.857117    2.225734    1.576577
    120          6           0       -9.546693    3.113492    2.750479
    121          8           0       -8.793501    2.720208    3.658584
    122          8           0      -10.011714    4.351365    2.501923
    123          6           0       -9.718059    5.271325    3.632969
    124          1           0       -4.583159    2.672729   -2.912810
    125          1           0       -4.057413   -3.550085   -2.804657
    126          1           0       -9.409833   -4.001240    0.448464
    127          1           0       -8.349832    4.335467   -0.188527
    128          1           0       -5.860866    4.431294   -1.504942
    129          1           0       -8.617796    3.734150   -2.428778
    130          1           0       -7.307897    2.946827   -3.333545
    131          1           0       -7.344766    4.683458   -3.284754
    132          1           0       -5.509852    4.096864    0.832918
    133          1           0       -6.859772    3.891180    2.007914
    134          1           0       -7.316306    6.294760    0.551233
    135          1           0       -5.597961    6.176809    0.686237
    136          1           0       -2.562563    2.402500   -3.446584
    137          1           0       -1.879408    1.165679   -4.447959
    138          1           0       -1.133447    1.452660   -2.858005
    139          1           0       -0.597611   -0.659059   -4.395682
    140          1           0        0.293378   -2.141374   -3.720733
    141          1           0       -0.102363   -0.717018   -2.716731
    142          1           0       -5.314848   -5.450703   -1.661774
    143          1           0       -8.288534   -5.357853   -1.588649
    144          1           0       -5.846913   -6.204921   -3.729895
    145          1           0       -6.419391   -4.541509   -4.105887
    146          1           0       -7.519362   -5.688616   -3.531560
    147          1           0       -6.893739   -7.067366   -0.362300
    148          1           0       -8.177902   -6.341078    0.585559
    149          1           0       -5.267778   -6.005286    0.609748
    150          1           0       -6.360449   -6.212470    2.026780
    151          1           0       -6.185310   -4.608927    1.182805
    152          1           0      -11.640793   -2.199845    2.724852
    153          1           0      -11.114765   -3.497491    1.604321
    154          1           0      -12.108500   -2.129873    0.960604
    155          1           0      -10.476150    2.730573    0.833938
    156          1           0      -10.672322    5.704118    3.948808
    157          1           0       -8.947679    5.970561    3.257033
    158          1           0       -9.368606    4.830938    4.559463
 ---------------------------------------------------------------------

 SCF Done:  E(RCAM-B3LYP) =  -4069.81232920     A.U. after   19 cycles

 Excitation energies and oscillator strengths:

 Excited State   1:      Singlet-A      1.6663 eV  744.05 nm  f=0.1717  <S**2>=0.000
     309 -> 315        0.11238
     310 -> 316        0.13037
     311 -> 313       -0.44693
     312 -> 314        0.52116
 This state for optimization and/or second-order correction.
 Total Energy, E(TD-HF/TD-DFT) =  -4069.75109248
 Copying the excited state density for this state as the 1-particle RhoCI density.

 Excited State   2:      Singlet-A      1.6886 eV  734.24 nm  f=0.5960  <S**2>=0.000
     309 -> 315       -0.13516
     310 -> 316        0.11522
     311 -> 313        0.52010
     312 -> 314        0.44619

 Excited State   3:      Singlet-A      2.1875 eV  566.79 nm  f=0.0315  <S**2>=0.000
     309 -> 313       -0.23953
     310 -> 314        0.59645
     311 -> 315       -0.10144
     312 -> 316       -0.25398

 Excited State   4:      Singlet-A      2.1946 eV  564.96 nm  f=0.1567  <S**2>=0.000
     309 -> 313        0.59438
     310 -> 314        0.23794
     311 -> 315        0.25943
     312 -> 316       -0.10387

 Excited State   5:      Singlet-A      2.6396 eV  469.70 nm  f=0.0000  <S**2>=0.000
     312 -> 313        0.70698

 The electronic state is 1-A.
 Alpha  occ. eigenvalues --  -46.87875 -46.87519 -19.26481 -19.26277 -19.19229
 Alpha  occ. eigenvalues --  -19.19079 -19.18847 -19.18505 -19.18285 -19.17925
 Alpha  occ. eigenvalues --  -14.42530 -14.42357 -14.41513 -14.41221 -14.39475
 Alpha  occ. eigenvalues --  -14.39201 -14.38673 -14.38459 -10.39276 -10.39006
 Alpha  occ. eigenvalues --  -10.35477 -10.35170 -10.34509 -10.34106 -10.31892
 Alpha  occ. eigenvalues --  -10.31703 -10.31497 -10.31178 -10.30993 -10.30871
 Alpha  occ. eigenvalues --  -10.30655 -10.30580 -10.30258 -10.30250 -10.30217
 Alpha  occ. eigenvalues --  -10.29987 -10.29983 -10.29772 -10.29703 -10.29318
 Alpha  occ. eigenvalues --  -10.29272 -10.29235 -10.28859 -10.28688 -10.28599
 Alpha  occ. eigenvalues --  -10.28576 -10.28450 -10.28252 -10.28212 -10.28013
 Alpha  occ. eigenvalues --  -10.27872 -10.27847 -10.27802 -10.27651 -10.27524
 Alpha  occ. eigenvalues --  -10.27519 -10.27504 -10.27491 -10.27461 -10.27399
 Alpha  occ. eigenvalues --  -10.27345 -10.27289 -10.27288 -10.27262 -10.27134
 Alpha  occ. eigenvalues --  -10.26937 -10.26849 -10.26592 -10.26413 -10.26317
 Alpha  occ. eigenvalues --  -10.26139 -10.26087 -10.26077 -10.26034 -10.25926
 Alpha  occ. eigenvalues --  -10.25901 -10.25793 -10.25737 -10.25445 -10.25294
 Alpha  occ. eigenvalues --  -10.24920 -10.24851 -10.24726 -10.24629 -10.24602
 Alpha  occ. eigenvalues --  -10.24551  -3.16618  -3.16269  -1.91500  -1.91151
 Alpha  occ. eigenvalues --   -1.91086  -1.90928  -1.90740  -1.90576  -1.16830
 Alpha  occ. eigenvalues --   -1.16568  -1.08752  -1.08540  -1.07245  -1.06863
 Alpha  occ. eigenvalues --   -1.06846  -1.06758  -1.04664  -1.04354  -1.03828
 Alpha  occ. eigenvalues --   -1.03520  -1.03308  -1.02896  -1.02485  -1.01968
 Alpha  occ. eigenvalues --   -0.92068  -0.91853  -0.89555  -0.89364  -0.89288
 Alpha  occ. eigenvalues --   -0.89028  -0.88316  -0.88096  -0.87953  -0.87751
 Alpha  occ. eigenvalues --   -0.87659  -0.87544  -0.87326  -0.86893  -0.85076
 Alpha  occ. eigenvalues --   -0.84869  -0.83961  -0.83758  -0.82994  -0.82732
 Alpha  occ. eigenvalues --   -0.82723  -0.82481  -0.81709  -0.81486  -0.80688
 Alpha  occ. eigenvalues --   -0.80306  -0.78860  -0.78444  -0.77284  -0.77028
 Alpha  occ. eigenvalues --   -0.76999  -0.76786  -0.76024  -0.75705  -0.74943
 Alpha  occ. eigenvalues --   -0.74678  -0.72845  -0.72555  -0.71747  -0.71450
 Alpha  occ. eigenvalues --   -0.69905  -0.69640  -0.68960  -0.68688  -0.67720
 Alpha  occ. eigenvalues --   -0.67458  -0.67314  -0.67046  -0.65387  -0.65147
 Alpha  occ. eigenvalues --   -0.64946  -0.64702  -0.64639  -0.64529  -0.64308
 Alpha  occ. eigenvalues --   -0.64079  -0.62427  -0.62173  -0.60492  -0.60148
 Alpha  occ. eigenvalues --   -0.59897  -0.59663  -0.59064  -0.58859  -0.58584
 Alpha  occ. eigenvalues --   -0.58289  -0.57715  -0.57441  -0.57371  -0.57087
 Alpha  occ. eigenvalues --   -0.56393  -0.56121  -0.56050  -0.55773  -0.55589
 Alpha  occ. eigenvalues --   -0.55407  -0.55280  -0.55132  -0.54609  -0.54380
 Alpha  occ. eigenvalues --   -0.53998  -0.53787  -0.53363  -0.53307  -0.53081
 Alpha  occ. eigenvalues --   -0.53021  -0.52983  -0.52815  -0.52774  -0.52437
 Alpha  occ. eigenvalues --   -0.52429  -0.52284  -0.52003  -0.51762  -0.51712
 Alpha  occ. eigenvalues --   -0.51501  -0.51279  -0.51074  -0.50602  -0.50223
 Alpha  occ. eigenvalues --   -0.50057  -0.49969  -0.49803  -0.49718  -0.49594
 Alpha  occ. eigenvalues --   -0.49312  -0.49304  -0.49191  -0.49040  -0.48979
 Alpha  occ. eigenvalues --   -0.48701  -0.48525  -0.48495  -0.48431  -0.48257
 Alpha  occ. eigenvalues --   -0.48138  -0.47764  -0.47436  -0.47363  -0.46942
 Alpha  occ. eigenvalues --   -0.46862  -0.46655  -0.46577  -0.46433  -0.46417
 Alpha  occ. eigenvalues --   -0.46239  -0.46117  -0.45960  -0.45934  -0.45712
 Alpha  occ. eigenvalues --   -0.45236  -0.45082  -0.44680  -0.44562  -0.44389
 Alpha  occ. eigenvalues --   -0.44337  -0.44212  -0.44158  -0.44097  -0.43993
 Alpha  occ. eigenvalues --   -0.43934  -0.43741  -0.43610  -0.43458  -0.43449
 Alpha  occ. eigenvalues --   -0.43255  -0.43105  -0.42856  -0.42826  -0.42772
 Alpha  occ. eigenvalues --   -0.42677  -0.42412  -0.42058  -0.41846  -0.41786
 Alpha  occ. eigenvalues --   -0.41621  -0.41539  -0.41333  -0.41217  -0.40943
 Alpha  occ. eigenvalues --   -0.40870  -0.40857  -0.40604  -0.40588  -0.40519
 Alpha  occ. eigenvalues --   -0.40374  -0.40346  -0.40090  -0.39426  -0.39310
 Alpha  occ. eigenvalues --   -0.38507  -0.38232  -0.37860  -0.37541  -0.37366
 Alpha  occ. eigenvalues --   -0.37364  -0.37138  -0.37063  -0.36864  -0.36682
 Alpha  occ. eigenvalues --   -0.36283  -0.36101  -0.34366  -0.34116  -0.33958
 Alpha  occ. eigenvalues --   -0.33769  -0.33268  -0.33035  -0.31378  -0.31111
 Alpha  occ. eigenvalues --   -0.31071  -0.30829  -0.30149  -0.29835  -0.29520
 Alpha  occ. eigenvalues --   -0.29406  -0.29159  -0.29061  -0.24159  -0.23897
 Alpha  occ. eigenvalues --   -0.21200  -0.20969
 Alpha virt. eigenvalues --   -0.08847  -0.08637  -0.01815  -0.01539  -0.00123
 Alpha virt. eigenvalues --    0.00151   0.02111   0.02343   0.03004   0.03353
 Alpha virt. eigenvalues --    0.04628   0.04855   0.04916   0.05255   0.06051

 Mulliken charges:
               1
     1  Mg   0.837879
     2  C   -0.003754
     3  C   -0.094209
     4  C   -0.045435
     5  C   -0.063661
     6  N   -0.256861
     7  C   -0.052781
     8  C   -0.013943
     9  C   -0.087021
    10  C    0.046278
    11  C    0.104749
    12  C    0.053496
    13  C   -0.071612
    14  H    0.035006
    15  N   -0.433278
    16  C    0.168564
    17  C   -0.176947
    18  C   -0.003623
    19  C    0.148802
    20  C    0.110093
    21  C    0.012675
    22  O   -0.249003
    23  C    0.062307
    24  N   -0.341181
    25  C    0.041440
    26  C   -0.028304
    27  C   -0.023994
    28  C    0.074872
    29  C    0.076100
    30  C    0.034953
    31  C   -0.004740
    32  N   -0.310206
    33  C    0.079782
    34  C   -0.170194
    35  C    0.007961
    36  C    0.082148
    37  C    0.127471
    38  C    0.045243
    39  O   -0.189169
    40  C   -0.005011
    41  C    0.213127
    42  O   -0.259098
    43  O   -0.304271
    44  C    0.158033
    45  H   -0.017376
    46  H   -0.016255
    47  H   -0.041134
    48  H    0.000879
    49  H   -0.003946
    50  H    0.025486
    51  H    0.016714
    52  H    0.016866
    53  H    0.011305
    54  H    0.042866
    55  H    0.018229
    56  H    0.018409
    57  H    0.005882
    58  H    0.027167
    59  H    0.040112
    60  H    0.037332
    61  H    0.036251
    62  H    0.031875
    63  H    0.017270
    64  H    0.009449
    65  H    0.023603
    66  H    0.012372
    67  H    0.004873
    68  H    0.006840
    69  H    0.004727
    70  H    0.009475
    71  H    0.020623
    72  H    0.027455
    73  H    0.046766
    74  H    0.009577
    75  H    0.046151
    76  H    0.035397
    77  H    0.043143
    78  H    0.046674
    79  H    0.052255
    80  Mg   0.837414
    81  C   -0.016912
    82  C   -0.087362
    83  C   -0.045579
    84  C   -0.064958
    85  N   -0.254510
    86  C   -0.050284
    87  C   -0.015071
    88  C   -0.090509
    89  C    0.045602
    90  C    0.114356
    91  C    0.062503
    92  C   -0.077610
    93  H    0.033889
    94  N   -0.423649
    95  C    0.162859
    96  C   -0.174086
    97  C   -0.007557
    98  C    0.152162
    99  C    0.098902
   100  C    0.015286
   101  O   -0.254194
   102  C    0.061646
   103  N   -0.350038
   104  C    0.037682
   105  C   -0.019857
   106  C   -0.034620
   107  C    0.088583
   108  C    0.073759
   109  C    0.034834
   110  C   -0.007598
   111  N   -0.323951
   112  C    0.077955
   113  C   -0.163580
   114  C    0.001990
   115  C    0.095849
   116  C    0.131593
   117  C    0.042016
   118  O   -0.188688
   119  C    0.000991
   120  C    0.211198
   121  O   -0.251330
   122  O   -0.305571
   123  C    0.152203
   124  H   -0.018939
   125  H   -0.015705
   126  H   -0.040915
   127  H   -0.000961
   128  H   -0.004055
   129  H    0.022216
   130  H    0.014609
   131  H    0.016351
   132  H    0.014139
   133  H    0.037335
   134  H    0.020720
   135  H    0.019751
   136  H    0.008942
   137  H    0.027244
   138  H    0.044059
   139  H    0.039973
   140  H    0.035710
   141  H    0.035866
   142  H    0.014268
   143  H    0.012107
   144  H    0.024867
   145  H    0.011771
   146  H    0.005456
   147  H    0.005942
   148  H    0.003385
   149  H    0.010940
   150  H    0.017620
   151  H    0.030223
   152  H    0.045518
   153  H    0.008203
   154  H    0.046576
   155  H    0.034782
   156  H    0.043631
   157  H    0.049396
   158  H    0.053226
 Sum of Mulliken charges =  -0.00000

 Dipole moment (field-independent basis, Debye):
    X=              3.9872    Y=              3.0036    Z=              0.9371  Tot=              5.0791
 Quadrupole moment (field-independent basis, Debye-Ang):
   XX=           -534.3824   YY=           -465.0579   ZZ=           -521.1911
   XY=             10.8231   XZ=             60.8010   YZ=             23.7580

 Normal termination of Gaussian 16 at Sat Sep 11 04:28:13 2021.
