 Gaussian 16, Revision A.03,
 Gaussian 16:  ES64L-G16RevA.03 25-Dec-2016

 -----------------------------------
 #p cam-b3lyp/Def2SVP td=(nstates=5)
 -----------------------------------

 --------------------------------
 TDDFT excited states in gaussian
 --------------------------------
 Symbolic Z-matrix:
 Charge =  0 Multiplicity = 1

                         Standard orientation:
 ---------------------------------------------------------------------
 Center     Atomic      Atomic             Coordinates (Angstroms)
 Number     Number       Type             X           Y           Z
 ---------------------------------------------------------------------
      1         12           0      -15.793272   -0.723773    0.264506
      2          6           0      -15.994056    2.803989   -0.307152
      3          6           0      -16.708571   -1.153498   -2.994425
      4          6           0      -16.065016   -3.826071    0.863276
      5          6           0      -16.011999   -0.034580    3.673734
      6          7           0      -16.262250    0.720074   -1.346708
      7          6           0      -16.243974    2.045068   -1.452676
      8          6           0      -16.440933    2.550836   -2.913080
      9          6           0      -17.204168    1.287609   -3.516177
     10          6           0      -16.667138    0.213076   -2.587251
     11          6           0      -18.719698    1.359594   -3.359687
     12          6           0      -15.079182    2.800379   -3.644580
     13          6           0      -15.174409    3.598305   -4.948267
     14          1           0      -14.100458    4.520642   -5.284827
     15          7           0      -15.831630   -2.267805   -0.967299
     16          6           0      -16.216517   -2.258211   -2.266166
     17          6           0      -16.066017   -3.648771   -2.746138
     18          6           0      -15.743559   -4.503695   -1.570035
     19          6           0      -15.894932   -3.558869   -0.493109
     20          6           0      -16.178708   -4.038236   -4.188140
     21          6           0      -15.370106   -5.946233   -1.436816
     22          8           0      -15.358628   -6.544303   -0.306880
     23          6           0      -15.100279   -6.673437   -2.690375
     24          7           0      -16.228371   -1.802704    1.997778
     25          6           0      -16.226240   -3.140231    1.996800
     26          6           0      -16.282420   -3.687355    3.392307
     27          6           0      -16.077665   -2.438068    4.365503
     28          6           0      -16.017715   -1.316060    3.299777
     29          6           0      -17.575228   -4.422935    3.771224
     30          6           0      -14.929070   -2.534058    5.400845
     31          6           0      -13.594660   -2.525267    4.689248
     32          7           0      -15.793958    1.056689    1.505876
     33          6           0      -15.917751    1.111274    2.901716
     34          6           0      -15.974030    2.536602    3.274999
     35          6           0      -15.895233    3.216299    2.061061
     36          6           0      -15.822460    2.274814    0.994945
     37          6           0      -16.142354    3.047032    4.592407
     38          6           0      -15.880407    4.518617    1.414837
     39          8           0      -15.823448    5.683242    1.812202
     40          6           0      -16.066586    4.302711   -0.151863
     41          6           0      -15.025835    5.133360   -0.851983
     42          8           0      -13.812709    4.859746   -0.747931
     43          8           0      -15.628020    5.964345   -1.716494
     44          6           0      -14.649495    6.796808   -2.465925
     45          1           0      -17.215146   -1.411401   -3.926524
     46          1           0      -16.052400   -4.886443    1.123834
     47          1           0      -15.994976    0.258102    4.725162
     48          1           0      -17.063373    3.441010   -3.005718
     49          1           0      -16.904957    1.083983   -4.544151
     50          1           0      -19.016723    2.208027   -2.743360
     51          1           0      -19.007824    0.422838   -2.882231
     52          1           0      -19.209956    1.362727   -4.333552
     53          1           0      -14.701289    1.854682   -4.033060
     54          1           0      -14.365620    3.284478   -2.976894
     55          1           0      -16.143479    4.088541   -5.045637
     56          1           0      -15.140984    2.896361   -5.781548
     57          1           0      -16.584790   -3.227278   -4.791455
     58          1           0      -16.931231   -4.824277   -4.247778
     59          1           0      -15.233272   -4.403196   -4.589745
     60          1           0      -15.984280   -6.633285   -3.327147
     61          1           0      -14.762272   -7.666184   -2.395326
     62          1           0      -14.307456   -6.158459   -3.233679
     63          1           0      -15.483120   -4.407484    3.562479
     64          1           0      -16.963816   -2.240205    4.969043
     65          1           0      -17.413392   -5.446493    4.110109
     66          1           0      -18.242495   -4.396955    2.910195
     67          1           0      -18.179473   -3.924515    4.528775
     68          1           0      -14.992602   -3.471808    5.951785
     69          1           0      -14.935549   -1.721451    6.127398
     70          1           0      -13.463767   -3.568627    4.404469
     71          1           0      -12.803855   -2.203603    5.367754
     72          1           0      -13.637188   -1.939658    3.770695
     73          1           0      -15.440635    3.875232    4.690614
     74          1           0      -15.955210    2.278296    5.341822
     75          1           0      -17.188274    3.351633    4.558838
     76          1           0      -17.078734    4.624836   -0.394587
     77          1           0      -14.925245    7.839098   -2.305216
     78          1           0      -14.648220    6.426045   -3.491078
     79          1           0      -13.626081    6.794249   -2.089155
     80         12           0       15.962113   -0.796613   -0.121789
     81          6           0       15.776291    2.644663    0.879259
     82          6           0       15.050005    0.218655   -3.247789
     83          6           0       15.677946   -3.853348   -0.923692
     84          6           0       15.733110   -1.645661    3.250504
     85          7           0       15.501170    1.200529   -0.953173
     86          6           0       15.523568    2.442550   -0.493590
     87          6           0       15.339643    3.534358   -1.581567
     88          6           0       14.564589    2.653253   -2.677839
     89          6           0       15.093429    1.271379   -2.299117
     90          6           0       13.056126    2.654301   -2.493791
     91          6           0       16.709269    4.064138   -2.134263
     92          6           0       16.614214    5.342300   -2.970343
     93          1           0       17.699329    6.315370   -2.880062
     94          7           0       15.922487   -1.656954   -1.909756
     95          6           0       15.547080   -1.092029   -3.076463
     96          6           0       15.677013   -2.146361   -4.094147
     97          6           0       16.001955   -3.425183   -3.405853
     98          6           0       15.856388   -3.023603   -2.021063
     99          6           0       15.574307   -1.873088   -5.566625
    100          6           0       16.368880   -4.787777   -3.910742
    101          8           0       16.376516   -5.811898   -3.140063
    102          6           0       16.628152   -4.904567   -5.353178
    103          7           0       15.525751   -2.507546    0.975779
    104          6           0       15.516090   -3.719138    0.392780
    105          6           0       15.451382   -4.820256    1.424159
    106          6           0       15.664447   -4.099676    2.835875
    107          6           0       15.729250   -2.630802    2.363008
    108          6           0       14.153401   -5.626886    1.455547
    109          6           0       16.811016   -4.638044    3.734885
    110          6           0       18.149225   -4.343446    3.096305
    111          7           0       15.971722    0.272835    1.755500
    112          6           0       15.838213   -0.275195    3.050084
    113          6           0       15.788101    0.856153    3.998744
    114          6           0       15.873463    1.993596    3.181794
    115          6           0       15.949620    1.599488    1.818570
    116          6           0       15.629578    0.752430    5.409499
    117          6           0       15.905754    3.438332    3.161886
    118          8           0       15.960124    4.317928    4.020420
    119          6           0       15.716860    3.927394    1.661370
    120          6           0       16.763072    4.970175    1.377524
    121          8           0       17.969521    4.668547    1.366853
    122          8           0       16.159786    6.095672    0.953654
    123          6           0       17.156990    7.156076    0.648760
    124          1           0       14.550483    0.398729   -4.200121
    125          1           0       15.684760   -4.924826   -1.136679
    126          1           0       15.761105   -1.829538    4.326648
    127          1           0       14.727788    4.376478   -1.281159
    128          1           0       14.873259    2.916441   -3.686209
    129          1           0       12.761789    3.153293   -1.582456
    130          1           0       12.762322    1.613150   -2.466911
    131          1           0       12.569178    3.082219   -3.374755
    132          1           0       17.080984    3.367893   -2.897030
    133          1           0       17.412858    4.205344   -1.336991
    134          1           0       15.642710    5.838332   -2.856013
    135          1           0       16.652856    5.069036   -4.027631
    136          1           0       15.166263   -0.873883   -5.762806
    137          1           0       14.819290   -2.558241   -5.967104
    138          1           0       16.516849   -2.039291   -6.092615
    139          1           0       15.747369   -4.585625   -5.905403
    140          1           0       16.961640   -5.932546   -5.507849
    141          1           0       17.434883   -4.213038   -5.620747
    142          1           0       16.247298   -5.539099    1.272861
    143          1           0       14.773620   -4.184914    3.475406
    144          1           0       14.311148   -6.713186    1.317191
    145          1           0       13.491656   -5.238542    0.692778
    146          1           0       13.558259   -5.509144    2.359508
    147          1           0       16.742813   -5.724934    3.825314
    148          1           0       16.799673   -4.229918    4.740022
    149          1           0       18.270196   -5.166677    2.385846
    150          1           0       18.939765   -4.347971    3.844004
    151          1           0       18.113325   -3.412328    2.518911
    152          1           0       16.327840    1.449517    5.853346
    153          1           0       15.806632   -0.263673    5.755839
    154          1           0       14.580495    1.043344    5.509793
    155          1           0       14.705904    4.326782    1.571795
    156          1           0       16.882430    8.033182    1.242882
    157          1           0       17.145626    7.269363   -0.451600
    158          1           0       18.177971    6.992116    0.973059
 ---------------------------------------------------------------------

 SCF Done:  E(RCAM-B3LYP) =  -4069.81176782     A.U. after   19 cycles

 Excitation energies and oscillator strengths:

 Excited State   1:      Singlet-A      1.6754 eV  740.05 nm  f=0.2387  <S**2>=0.000
     310 -> 316        0.16931
     311 -> 314       -0.15039
     312 -> 313        0.66937
     310 <- 316        0.10207
 This state for optimization and/or second-order correction.
 Total Energy, E(TD-HF/TD-DFT) =  -4069.75019965
 Copying the excited state density for this state as the 1-particle RhoCI density.

 Excited State   2:      Singlet-A      1.6801 eV  737.97 nm  f=0.5385  <S**2>=0.000
     309 -> 315        0.17134
     311 -> 314        0.66900
     312 -> 313        0.15034
     309 <- 315        0.10259

 Excited State   3:      Singlet-A      2.1861 eV  567.16 nm  f=0.0961  <S**2>=0.000
     310 -> 313        0.64214
     312 -> 316       -0.27294

 Excited State   4:      Singlet-A      2.1925 eV  565.48 nm  f=0.1041  <S**2>=0.000
     309 -> 314        0.64036
     311 -> 315       -0.27817

 Excited State   5:      Singlet-A      3.0659 eV  404.39 nm  f=0.0000  <S**2>=0.000
     311 -> 313        0.70711

 The electronic state is 1-A.
 Alpha  occ. eigenvalues --  -46.87796 -46.87660 -19.26345 -19.26286 -19.19158
 Alpha  occ. eigenvalues --  -19.19021 -19.18815 -19.18716 -19.18169 -19.18049
 Alpha  occ. eigenvalues --  -14.42497 -14.42450 -14.41449 -14.41359 -14.39402
 Alpha  occ. eigenvalues --  -14.39352 -14.38599 -14.38586 -10.39087 -10.39081
 Alpha  occ. eigenvalues --  -10.35448 -10.35393 -10.34389 -10.34226 -10.31751
 Alpha  occ. eigenvalues --  -10.31682 -10.31405 -10.31308 -10.31023 -10.30909
 Alpha  occ. eigenvalues --  -10.30569 -10.30507 -10.30397 -10.30360 -10.30206
 Alpha  occ. eigenvalues --  -10.30141 -10.29920 -10.29894 -10.29630 -10.29437
 Alpha  occ. eigenvalues --  -10.29401 -10.29254 -10.28750 -10.28717 -10.28652
 Alpha  occ. eigenvalues --  -10.28542 -10.28404 -10.28365 -10.28138 -10.28118
 Alpha  occ. eigenvalues --  -10.28000 -10.27792 -10.27727 -10.27669 -10.27584
 Alpha  occ. eigenvalues --  -10.27518 -10.27499 -10.27483 -10.27482 -10.27468
 Alpha  occ. eigenvalues --  -10.27465 -10.27448 -10.27403 -10.27377 -10.27158
 Alpha  occ. eigenvalues --  -10.27048 -10.26707 -10.26691 -10.26418 -10.26410
 Alpha  occ. eigenvalues --  -10.26235 -10.26181 -10.26139 -10.26021 -10.26018
 Alpha  occ. eigenvalues --  -10.25934 -10.25849 -10.25841 -10.25433 -10.25398
 Alpha  occ. eigenvalues --  -10.24872 -10.24832 -10.24787 -10.24733 -10.24690
 Alpha  occ. eigenvalues --  -10.24684  -3.16539  -3.16410  -1.91421  -1.91292
 Alpha  occ. eigenvalues --   -1.91007  -1.90881  -1.90849  -1.90718  -1.16640
 Alpha  occ. eigenvalues --   -1.16634  -1.08656  -1.08627  -1.07216  -1.06968
 Alpha  occ. eigenvalues --   -1.06942  -1.06644  -1.04581  -1.04494  -1.03760
 Alpha  occ. eigenvalues --   -1.03663  -1.03233  -1.03039  -1.02411  -1.02111
 Alpha  occ. eigenvalues --   -0.91986  -0.91972  -0.89518  -0.89495  -0.89189
 Alpha  occ. eigenvalues --   -0.89149  -0.88286  -0.88221  -0.87869  -0.87793
 Alpha  occ. eigenvalues --   -0.87683  -0.87673  -0.87274  -0.87121  -0.84998
 Alpha  occ. eigenvalues --   -0.84983  -0.83935  -0.83876  -0.82967  -0.82933
 Alpha  occ. eigenvalues --   -0.82652  -0.82649  -0.81594  -0.81586  -0.80597
 Alpha  occ. eigenvalues --   -0.80442  -0.78797  -0.78636  -0.77218  -0.77144
 Alpha  occ. eigenvalues --   -0.76935  -0.76897  -0.75924  -0.75837  -0.74897
 Alpha  occ. eigenvalues --   -0.74803  -0.72774  -0.72699  -0.71672  -0.71580
 Alpha  occ. eigenvalues --   -0.69905  -0.69758  -0.68874  -0.68826  -0.67641
 Alpha  occ. eigenvalues --   -0.67601  -0.67221  -0.67199  -0.65287  -0.65270
 Alpha  occ. eigenvalues --   -0.64854  -0.64769  -0.64652  -0.64621  -0.64268
 Alpha  occ. eigenvalues --   -0.64204  -0.62298  -0.62276  -0.60442  -0.60340
 Alpha  occ. eigenvalues --   -0.59805  -0.59795  -0.58992  -0.58987  -0.58503
 Alpha  occ. eigenvalues --   -0.58425  -0.57585  -0.57552  -0.57308  -0.57236
 Alpha  occ. eigenvalues --   -0.56310  -0.56204  -0.55980  -0.55884  -0.55520
 Alpha  occ. eigenvalues --   -0.55451  -0.55339  -0.55247  -0.54523  -0.54487
 Alpha  occ. eigenvalues --   -0.53911  -0.53896  -0.53298  -0.53227  -0.53222
 Alpha  occ. eigenvalues --   -0.53141  -0.52915  -0.52901  -0.52756  -0.52669
 Alpha  occ. eigenvalues --   -0.52436  -0.52402  -0.51914  -0.51884  -0.51658
 Alpha  occ. eigenvalues --   -0.51617  -0.51200  -0.51196  -0.50573  -0.50477
 Alpha  occ. eigenvalues --   -0.50030  -0.49979  -0.49918  -0.49868  -0.49515
 Alpha  occ. eigenvalues --   -0.49487  -0.49215  -0.49201  -0.49103  -0.49097
 Alpha  occ. eigenvalues --   -0.48593  -0.48557  -0.48461  -0.48445  -0.48376
 Alpha  occ. eigenvalues --   -0.48339  -0.47695  -0.47594  -0.47297  -0.47118
 Alpha  occ. eigenvalues --   -0.46797  -0.46708  -0.46556  -0.46552  -0.46359
 Alpha  occ. eigenvalues --   -0.46270  -0.46162  -0.46085  -0.45822  -0.45820
 Alpha  occ. eigenvalues --   -0.45209  -0.45200  -0.44578  -0.44513  -0.44507
 Alpha  occ. eigenvalues --   -0.44475  -0.44144  -0.44126  -0.44089  -0.44078
 Alpha  occ. eigenvalues --   -0.44019  -0.43939  -0.43551  -0.43495  -0.43386
 Alpha  occ. eigenvalues --   -0.43385  -0.43027  -0.42928  -0.42900  -0.42699
 Alpha  occ. eigenvalues --   -0.42654  -0.42554  -0.42009  -0.41964  -0.41704
 Alpha  occ. eigenvalues --   -0.41668  -0.41534  -0.41458  -0.41141  -0.40988
 Alpha  occ. eigenvalues --   -0.40869  -0.40823  -0.40722  -0.40698  -0.40570
 Alpha  occ. eigenvalues --   -0.40493  -0.40236  -0.40226  -0.39439  -0.39426
 Alpha  occ. eigenvalues --   -0.38468  -0.38350  -0.37750  -0.37652  -0.37319
 Alpha  occ. eigenvalues --   -0.37266  -0.37264  -0.37198  -0.36769  -0.36714
 Alpha  occ. eigenvalues --   -0.36216  -0.36192  -0.34286  -0.34253  -0.33859
 Alpha  occ. eigenvalues --   -0.33771  -0.33186  -0.33175  -0.31344  -0.31275
 Alpha  occ. eigenvalues --   -0.31035  -0.30972  -0.30029  -0.29953  -0.29449
 Alpha  occ. eigenvalues --   -0.29327  -0.29321  -0.29211  -0.24080  -0.24036
 Alpha  occ. eigenvalues --   -0.21127  -0.21117
 Alpha virt. eigenvalues --   -0.08792  -0.08774  -0.01749  -0.01684  -0.00058
 Alpha virt. eigenvalues --   -0.00029   0.02201   0.02208   0.03121   0.03226
 Alpha virt. eigenvalues --    0.04717   0.04731   0.05097   0.05168   0.06174

 Mulliken charges:
               1
     1  Mg   0.838690
     2  C   -0.002961
     3  C   -0.094137
     4  C   -0.045835
     5  C   -0.063938
     6  N   -0.256784
     7  C   -0.052455
     8  C   -0.014017
     9  C   -0.087004
    10  C    0.046328
    11  C    0.104813
    12  C    0.053468
    13  C   -0.071781
    14  H    0.036084
    15  N   -0.433127
    16  C    0.168423
    17  C   -0.177159
    18  C   -0.003998
    19  C    0.148684
    20  C    0.110180
    21  C    0.012283
    22  O   -0.249613
    23  C    0.062479
    24  N   -0.341108
    25  C    0.041233
    26  C   -0.028196
    27  C   -0.023955
    28  C    0.074834
    29  C    0.076163
    30  C    0.035114
    31  C   -0.004506
    32  N   -0.310475
    33  C    0.080401
    34  C   -0.169699
    35  C    0.008356
    36  C    0.082989
    37  C    0.127308
    38  C    0.046129
    39  O   -0.188430
    40  C   -0.005352
    41  C    0.212894
    42  O   -0.257116
    43  O   -0.304797
    44  C    0.157695
    45  H   -0.017613
    46  H   -0.016829
    47  H   -0.041469
    48  H    0.000936
    49  H   -0.004052
    50  H    0.025477
    51  H    0.016458
    52  H    0.016648
    53  H    0.011197
    54  H    0.044117
    55  H    0.017876
    56  H    0.017935
    57  H    0.005862
    58  H    0.026827
    59  H    0.039535
    60  H    0.037344
    61  H    0.035656
    62  H    0.031489
    63  H    0.016564
    64  H    0.009470
    65  H    0.023223
    66  H    0.012541
    67  H    0.004764
    68  H    0.006381
    69  H    0.004749
    70  H    0.008779
    71  H    0.018169
    72  H    0.028972
    73  H    0.047585
    74  H    0.009132
    75  H    0.046015
    76  H    0.035151
    77  H    0.042948
    78  H    0.046383
    79  H    0.053678
    80  Mg   0.837788
    81  C   -0.016795
    82  C   -0.087782
    83  C   -0.045494
    84  C   -0.064863
    85  N   -0.254546
    86  C   -0.049848
    87  C   -0.015082
    88  C   -0.090499
    89  C    0.045740
    90  C    0.114362
    91  C    0.062525
    92  C   -0.077910
    93  H    0.034907
    94  N   -0.423470
    95  C    0.162923
    96  C   -0.174617
    97  C   -0.007819
    98  C    0.152108
    99  C    0.099364
   100  C    0.015560
   101  O   -0.253193
   102  C    0.061198
   103  N   -0.350045
   104  C    0.037501
   105  C   -0.019822
   106  C   -0.034828
   107  C    0.088929
   108  C    0.073643
   109  C    0.034719
   110  C   -0.007669
   111  N   -0.324116
   112  C    0.078458
   113  C   -0.163124
   114  C    0.002266
   115  C    0.096199
   116  C    0.131489
   117  C    0.042411
   118  O   -0.187811
   119  C    0.000888
   120  C    0.211277
   121  O   -0.251039
   122  O   -0.305611
   123  C    0.152018
   124  H   -0.019651
   125  H   -0.015582
   126  H   -0.040439
   127  H   -0.000600
   128  H   -0.004329
   129  H    0.022515
   130  H    0.014432
   131  H    0.016312
   132  H    0.013901
   133  H    0.037672
   134  H    0.020827
   135  H    0.019586
   136  H    0.008768
   137  H    0.026132
   138  H    0.039782
   139  H    0.038247
   140  H    0.036379
   141  H    0.033896
   142  H    0.014387
   143  H    0.012450
   144  H    0.025128
   145  H    0.011655
   146  H    0.005706
   147  H    0.006264
   148  H    0.003665
   149  H    0.010923
   150  H    0.017931
   151  H    0.030103
   152  H    0.046017
   153  H    0.008511
   154  H    0.047006
   155  H    0.035089
   156  H    0.043955
   157  H    0.049497
   158  H    0.053573
 Sum of Mulliken charges =  -0.00000

 Dipole moment (field-independent basis, Debye):
    X=             -4.0969    Y=             -2.3959    Z=             -7.4928  Tot=              8.8694
 Quadrupole moment (field-independent basis, Debye-Ang):
   XX=           -516.2524   YY=           -546.7109   ZZ=           -452.2253
   XY=             23.2371   XZ=             -6.6166   YZ=            -44.0110

 Normal termination of Gaussian 16 at Sun Sep 12 15:57:31 2021.
