 Gaussian 16, Revision A.03,
 Gaussian 16:  ES64L-G16RevA.03 25-Dec-2016

 -----------------------------------
 #p cam-b3lyp/Def2SVP td=(nstates=5)
 -----------------------------------

 --------------------------------
 TDDFT excited states in gaussian
 --------------------------------
 Symbolic Z-matrix:
 Charge =  0 Multiplicity = 1

                         Standard orientation:
 ---------------------------------------------------------------------
 Center     Atomic      Atomic             Coordinates (Angstroms)
 Number     Number       Type             X           Y           Z
 ---------------------------------------------------------------------
      1         12           0        4.022698    1.024873    0.345098
      2          6           0        4.708579   -2.071742   -1.314046
      3          6           0        4.864839    2.598247   -2.563228
      4          6           0        3.863687    3.775977    1.914418
      5          6           0        4.339796   -0.691167    3.361771
      6          7           0        4.684416    0.252152   -1.621035
      7          6           0        4.849403   -0.958262   -2.145296
      8          6           0        5.112207   -0.935894   -3.680811
      9          6           0        5.692490    0.543013   -3.815366
     10          6           0        5.013418    1.180442   -2.616004
     11          6           0        7.203646    0.624244   -3.624818
     12          6           0        3.796948   -1.113041   -4.511741
     13          6           0        3.999642   -1.428440   -5.996596
     14          1           0        3.063063   -2.325778   -6.656105
     15          7           0        3.845284    2.874388   -0.326221
     16          6           0        4.225833    3.334549   -1.542248
     17          6           0        3.883739    4.773080   -1.559009
     18          6           0        3.447922    5.153168   -0.186533
     19          6           0        3.730140    3.940245    0.537723
     20          6           0        3.939301    5.617711   -2.794833
     21          6           0        2.878756    6.413521    0.384161
     22          8           0        2.786385    6.608557    1.644321
     23          6           0        2.509053    7.463785   -0.581917
     24          7           0        4.307021    1.534956    2.349246
     25          6           0        4.119928    2.788903    2.775389
     26          6           0        4.102012    2.859483    4.273600
     27          6           0        4.073475    1.347763    4.787060
     28          6           0        4.167662    0.631466    3.417273
     29          6           0        5.281238    3.596848    4.923007
     30          6           0        2.924209    0.953167    5.748258
     31          6           0        1.602763    0.998900    5.014236
     32          7           0        4.271494   -1.044243    0.951649
     33          6           0        4.403759   -1.528978    2.260928
     34          6           0        4.657184   -2.978103    2.161522
     35          6           0        4.671311   -3.234453    0.791877
     36          6           0        4.467417   -2.017817    0.080179
     37          6           0        4.896477   -3.859059    3.252893
     38          6           0        4.835761   -4.249051   -0.236426
     39          8           0        4.941018   -5.476410   -0.234661
     40          6           0        4.987921   -3.517285   -1.642553
     41          6           0        4.070992   -4.207142   -2.615511
     42          8           0        2.831842   -4.143576   -2.481976
     43          8           0        4.781007   -4.628446   -3.673303
     44          6           0        3.925883   -5.295936   -4.690836
     45          1           0        5.329466    3.206976   -3.341374
     46          1           0        3.704936    4.684433    2.499177
     47          1           0        4.365006   -1.306627    4.262896
     48          1           0        5.851637   -1.658773   -4.025940
     49          1           0        5.366437    1.025870   -4.736376
     50          1           0        7.616088   -0.330739   -3.299517
     51          1           0        7.360171    1.386434   -2.861234
     52          1           0        7.688153    0.999572   -4.526571
     53          1           0        3.291310   -0.150928   -4.593778
     54          1           0        3.158206   -1.875814   -4.065074
     55          1           0        5.027051   -1.729309   -6.203520
     56          1           0        3.868199   -0.506232   -6.562685
     57          1           0        4.452724    5.105238   -3.607430
     58          1           0        4.575792    6.472718   -2.567782
     59          1           0        2.951870    5.965044   -3.099252
     60          1           0        3.389148    7.747514   -1.159394
     61          1           0        2.037444    8.254971   -0.000144
     62          1           0        1.794250    7.051907   -1.294912
     63          1           0        3.211057    3.374722    4.630188
     64          1           0        4.979387    1.084215    5.333448
     65          1           0        4.979911    4.425942    5.563719
     66          1           0        5.944382    3.937655    4.128412
     67          1           0        5.949753    2.964857    5.507038
     68          1           0        2.858273    1.663094    6.572031
     69          1           0        3.044109   -0.041931    6.176808
     70          1           0        1.328400    2.051608    5.072217
     71          1           0        0.865071    0.374771    5.519690
     72          1           0        1.724483    0.751506    3.959501
     73          1           0        4.316191   -4.759342    3.051082
     74          1           0        4.605949   -3.404481    4.199759
     75          1           0        5.974420   -3.996360    3.168969
     76          1           0        6.034524   -3.608049   -1.931528
     77          1           0        4.343375   -6.288623   -4.859674
     78          1           0        3.871792   -4.618148   -5.542940
     79          1           0        2.912521   -5.549438   -4.377511
     80         12           0       -4.882199   -0.099842   -0.145465
     81          6           0       -2.101794   -2.060978    0.995749
     82          6           0       -2.873508    2.642057    0.140456
     83          6           0       -7.430691    1.703213   -0.712521
     84          6           0       -6.946943   -2.762873    0.743804
     85          7           0       -2.777938    0.132480    0.495136
     86          6           0       -1.801905   -0.690785    0.847186
     87          6           0       -0.408169   -0.019160    0.973603
     88          6           0       -0.891294    1.487608    1.247639
     89          6           0       -2.252347    1.437401    0.556489
     90          6           0       -1.114218    1.789726    2.720177
     91          6           0        0.427489   -0.122611   -0.350408
     92          6           0        1.908201    0.235658   -0.205972
     93          1           0        2.883404   -0.498790   -1.007251
     94          7           0       -5.012392    1.790221   -0.736453
     95          6           0       -4.094808    2.763612   -0.558109
     96          6           0       -4.673853    3.976759   -1.155715
     97          6           0       -6.076376    3.679528   -1.554823
     98          6           0       -6.237797    2.356740   -0.985377
     99          6           0       -3.883021    5.234128   -1.372605
    100          6           0       -7.106620    4.462174   -2.311315
    101          8           0       -8.337693    4.106329   -2.336913
    102          6           0       -6.649408    5.708180   -2.943713
    103          7           0       -6.914199   -0.385723    0.188528
    104          6           0       -7.814810    0.533853   -0.200316
    105          6           0       -9.221603   -0.007238   -0.107873
    106          6           0       -9.062022   -1.569321    0.195479
    107          6           0       -7.524538   -1.647193    0.319784
    108          6           0      -10.110641    0.630040    0.959787
    109          6           0       -9.775899   -2.550983   -0.773741
    110          6           0       -9.128285   -2.491143   -2.138446
    111          7           0       -4.595600   -2.128733    0.539745
    112          6           0       -5.597699   -3.064327    0.878176
    113          6           0       -4.913671   -4.265731    1.398928
    114          6           0       -3.551273   -3.934369    1.348459
    115          6           0       -3.398155   -2.611802    0.851613
    116          6           0       -5.552016   -5.442552    1.882383
    117          6           0       -2.208391   -4.398768    1.612497
    118          8           0       -1.712109   -5.469735    1.959591
    119          6           0       -1.217000   -3.160234    1.514779
    120          6           0       -0.041934   -3.571343    0.670553
    121          8           0       -0.191920   -3.836583   -0.535171
    122          8           0        1.091922   -3.373987    1.367552
    123          6           0        2.286040   -3.756894    0.568001
    124          1           0       -2.403510    3.588196    0.410295
    125          1           0       -8.338477    2.241496   -0.994768
    126          1           0       -7.515146   -3.672416    0.950079
    127          1           0        0.193261   -0.373304    1.802235
    128          1           0       -0.240597    2.206522    0.756592
    129          1           0       -1.024462    0.903930    3.331271
    130          1           0       -2.114479    2.196928    2.788777
    131          1           0       -0.441057    2.587252    3.047478
    132          1           0        0.108370    0.671046   -1.038169
    133          1           0        0.332597   -1.098451   -0.785580
    134          1           0        2.222949    0.272101    0.844059
    135          1           0        2.054734    1.257144   -0.565282
    136          1           0       -2.930481    5.209014   -0.829058
    137          1           0       -4.443023    6.049316   -0.901742
    138          1           0       -3.743013    5.466463   -2.430477
    139          1           0       -6.239899    6.369629   -2.183945
    140          1           0       -7.505229    6.079071   -3.511061
    141          1           0       -5.828926    5.471444   -3.630283
    142          1           0       -9.746057    0.116504   -1.047412
    143          1           0       -9.470923   -1.836869    1.180898
    144          1           0      -11.044403    1.059814    0.550581
    145          1           0       -9.536037    1.389045    1.473882
    146          1           0      -10.400615   -0.031475    1.774347
    147          1           0      -10.818825   -2.255402   -0.911887
    148          1           0       -9.775799   -3.578430   -0.425393
    149          1           0       -9.609798   -1.625110   -2.602342
    150          1           0       -9.330112   -3.401994   -2.698510
    151          1           0       -8.057996   -2.268761   -2.056769
    152          1           0       -5.003031   -6.282806    1.478560
    153          1           0       -6.599934   -5.474522    1.591482
    154          1           0       -5.429160   -5.302536    2.959681
    155          1           0       -0.919349   -2.897915    2.530737
    156          1           0        2.844854   -4.489126    1.158974
    157          1           0        2.799913   -2.807808    0.325264
    158          1           0        2.118921   -4.308850   -0.349521
 ---------------------------------------------------------------------

 SCF Done:  E(RCAM-B3LYP) =  -4069.75146530     A.U. after   19 cycles

 Excitation energies and oscillator strengths:

 Excited State   1:      Singlet-A      1.6134 eV  768.45 nm  f=0.0423  <S**2>=0.000
     309 -> 315        0.13963
     311 -> 313        0.58578
     312 -> 314        0.36239
 This state for optimization and/or second-order correction.
 Total Energy, E(TD-HF/TD-DFT) =  -4069.69217295
 Copying the excited state density for this state as the 1-particle RhoCI density.

 Excited State   2:      Singlet-A      1.6995 eV  729.55 nm  f=0.6427  <S**2>=0.000
     310 -> 316       -0.15240
     311 -> 313       -0.35871
     312 -> 314        0.58222

 Excited State   3:      Singlet-A      2.1501 eV  576.64 nm  f=0.0768  <S**2>=0.000
     309 -> 313        0.63315
     311 -> 315       -0.26473
     312 -> 313       -0.12562

 Excited State   4:      Singlet-A      2.1779 eV  569.28 nm  f=0.1082  <S**2>=0.000
     310 -> 314        0.62144
     312 -> 313        0.16671
     312 -> 316        0.26186

 Excited State   5:      Singlet-A      2.2009 eV  563.33 nm  f=0.0124  <S**2>=0.000
     309 -> 313        0.10406
     310 -> 314       -0.16029
     312 -> 313        0.67404

 The electronic state is 1-A.
 Alpha  occ. eigenvalues --  -46.87376 -46.87368 -19.26741 -19.24284 -19.19681
 Alpha  occ. eigenvalues --  -19.19220 -19.19097 -19.18491 -19.17574 -19.17501
 Alpha  occ. eigenvalues --  -14.42694 -14.42242 -14.41660 -14.41054 -14.39422
 Alpha  occ. eigenvalues --  -14.39062 -14.38585 -14.38279 -10.39675 -10.37538
 Alpha  occ. eigenvalues --  -10.35852 -10.35177 -10.35038 -10.33638 -10.31853
 Alpha  occ. eigenvalues --  -10.31758 -10.31486 -10.30988 -10.30865 -10.30806
 Alpha  occ. eigenvalues --  -10.30737 -10.30617 -10.30250 -10.30099 -10.30032
 Alpha  occ. eigenvalues --  -10.29969 -10.29890 -10.29707 -10.29598 -10.29162
 Alpha  occ. eigenvalues --  -10.29129 -10.29109 -10.29081 -10.28756 -10.28744
 Alpha  occ. eigenvalues --  -10.28615 -10.28434 -10.28088 -10.28040 -10.28035
 Alpha  occ. eigenvalues --  -10.27926 -10.27876 -10.27876 -10.27846 -10.27840
 Alpha  occ. eigenvalues --  -10.27822 -10.27788 -10.27775 -10.27660 -10.27388
 Alpha  occ. eigenvalues --  -10.27298 -10.27279 -10.27178 -10.27149 -10.27120
 Alpha  occ. eigenvalues --  -10.27102 -10.27022 -10.26846 -10.26536 -10.26504
 Alpha  occ. eigenvalues --  -10.26333 -10.26270 -10.26251 -10.26113 -10.25947
 Alpha  occ. eigenvalues --  -10.25722 -10.25644 -10.25604 -10.25548 -10.25325
 Alpha  occ. eigenvalues --  -10.25203 -10.25198 -10.25116 -10.24548 -10.24506
 Alpha  occ. eigenvalues --  -10.24385  -3.16253  -3.16119  -1.91142  -1.91001
 Alpha  occ. eigenvalues --   -1.90738  -1.90590  -1.90574  -1.90426  -1.17132
 Alpha  occ. eigenvalues --   -1.14720  -1.09567  -1.08036  -1.07629  -1.07348
 Alpha  occ. eigenvalues --   -1.06749  -1.05328  -1.05145  -1.04212  -1.04105
 Alpha  occ. eigenvalues --   -1.03716  -1.03377  -1.02877  -1.02738  -1.01800
 Alpha  occ. eigenvalues --   -0.92704  -0.91524  -0.89934  -0.89644  -0.89196
 Alpha  occ. eigenvalues --   -0.89131  -0.88656  -0.88375  -0.88065  -0.87966
 Alpha  occ. eigenvalues --   -0.87643  -0.87552  -0.87441  -0.86878  -0.85339
 Alpha  occ. eigenvalues --   -0.85060  -0.84423  -0.83572  -0.83378  -0.83037
 Alpha  occ. eigenvalues --   -0.82717  -0.82546  -0.82180  -0.81199  -0.80845
 Alpha  occ. eigenvalues --   -0.79651  -0.79131  -0.78353  -0.77725  -0.77492
 Alpha  occ. eigenvalues --   -0.77297  -0.76591  -0.76329  -0.75274  -0.75166
 Alpha  occ. eigenvalues --   -0.74252  -0.73198  -0.72442  -0.72074  -0.71253
 Alpha  occ. eigenvalues --   -0.70306  -0.69852  -0.69484  -0.69107  -0.68121
 Alpha  occ. eigenvalues --   -0.67737  -0.67570  -0.67195  -0.65785  -0.65337
 Alpha  occ. eigenvalues --   -0.65207  -0.64992  -0.64692  -0.64481  -0.64105
 Alpha  occ. eigenvalues --   -0.63800  -0.62745  -0.61239  -0.60797  -0.60393
 Alpha  occ. eigenvalues --   -0.60075  -0.59610  -0.59432  -0.58926  -0.58627
 Alpha  occ. eigenvalues --   -0.58273  -0.57967  -0.57765  -0.57027  -0.56845
 Alpha  occ. eigenvalues --   -0.56584  -0.56360  -0.55987  -0.55889  -0.55759
 Alpha  occ. eigenvalues --   -0.55472  -0.55053  -0.54954  -0.54748  -0.54309
 Alpha  occ. eigenvalues --   -0.54003  -0.53808  -0.53664  -0.53616  -0.53420
 Alpha  occ. eigenvalues --   -0.53284  -0.53198  -0.53060  -0.52876  -0.52769
 Alpha  occ. eigenvalues --   -0.52444  -0.52227  -0.51978  -0.51760  -0.51545
 Alpha  occ. eigenvalues --   -0.51474  -0.51287  -0.51054  -0.50908  -0.50516
 Alpha  occ. eigenvalues --   -0.50367  -0.50281  -0.50026  -0.49857  -0.49750
 Alpha  occ. eigenvalues --   -0.49655  -0.49490  -0.49423  -0.49161  -0.49032
 Alpha  occ. eigenvalues --   -0.48948  -0.48835  -0.48697  -0.48322  -0.48235
 Alpha  occ. eigenvalues --   -0.48132  -0.47944  -0.47774  -0.47719  -0.47612
 Alpha  occ. eigenvalues --   -0.47144  -0.46933  -0.46780  -0.46468  -0.46392
 Alpha  occ. eigenvalues --   -0.46213  -0.46018  -0.45952  -0.45679  -0.45423
 Alpha  occ. eigenvalues --   -0.45348  -0.45168  -0.44897  -0.44783  -0.44595
 Alpha  occ. eigenvalues --   -0.44551  -0.44504  -0.44352  -0.44100  -0.44032
 Alpha  occ. eigenvalues --   -0.43914  -0.43867  -0.43662  -0.43498  -0.43423
 Alpha  occ. eigenvalues --   -0.43211  -0.43164  -0.42999  -0.42643  -0.42490
 Alpha  occ. eigenvalues --   -0.42297  -0.42194  -0.42033  -0.41879  -0.41829
 Alpha  occ. eigenvalues --   -0.41562  -0.41357  -0.41238  -0.41131  -0.41111
 Alpha  occ. eigenvalues --   -0.41019  -0.40801  -0.40719  -0.40573  -0.40417
 Alpha  occ. eigenvalues --   -0.40304  -0.40280  -0.39966  -0.39593  -0.39239
 Alpha  occ. eigenvalues --   -0.39006  -0.38274  -0.38023  -0.37839  -0.37419
 Alpha  occ. eigenvalues --   -0.37102  -0.37020  -0.36958  -0.36616  -0.36113
 Alpha  occ. eigenvalues --   -0.35882  -0.34917  -0.34313  -0.34233  -0.33944
 Alpha  occ. eigenvalues --   -0.33047  -0.32955  -0.32290  -0.31737  -0.31472
 Alpha  occ. eigenvalues --   -0.31042  -0.30828  -0.30584  -0.29690  -0.29385
 Alpha  occ. eigenvalues --   -0.29047  -0.28877  -0.28728  -0.24429  -0.23698
 Alpha  occ. eigenvalues --   -0.21437  -0.20835
 Alpha virt. eigenvalues --   -0.09189  -0.08477  -0.02142  -0.01408  -0.00686
 Alpha virt. eigenvalues --    0.00238   0.01229   0.02616   0.03440   0.04068
 Alpha virt. eigenvalues --    0.04317   0.04639   0.05209   0.06163   0.06394

 Mulliken charges:
               1
     1  Mg   0.408726
     2  C    0.022101
     3  C   -0.089439
     4  C   -0.046367
     5  C   -0.060955
     6  N   -0.249546
     7  C   -0.065826
     8  C   -0.009545
     9  C   -0.083155
    10  C    0.053634
    11  C    0.105388
    12  C    0.048269
    13  C   -0.072436
    14  H    0.040061
    15  N   -0.426374
    16  C    0.173646
    17  C   -0.177560
    18  C   -0.009176
    19  C    0.154789
    20  C    0.110907
    21  C    0.008961
    22  O   -0.250099
    23  C    0.063525
    24  N   -0.319593
    25  C    0.043099
    26  C   -0.025881
    27  C   -0.024576
    28  C    0.073878
    29  C    0.077018
    30  C    0.045281
    31  C   -0.023733
    32  N   -0.269307
    33  C    0.082510
    34  C   -0.164308
    35  C   -0.062208
    36  C    0.018545
    37  C    0.140989
    38  C    0.001809
    39  O   -0.176984
    40  C    0.016368
    41  C    0.222285
    42  O   -0.249716
    43  O   -0.303756
    44  C    0.154101
    45  H   -0.018324
    46  H   -0.018637
    47  H   -0.042577
    48  H    0.000070
    49  H   -0.004257
    50  H    0.025750
    51  H    0.017325
    52  H    0.017074
    53  H    0.013326
    54  H    0.047281
    55  H    0.018204
    56  H    0.018291
    57  H    0.006540
    58  H    0.027392
    59  H    0.038147
    60  H    0.038866
    61  H    0.035484
    62  H    0.028876
    63  H    0.014277
    64  H    0.010915
    65  H    0.023295
    66  H    0.013236
    67  H    0.005656
    68  H    0.006913
    69  H    0.006184
    70  H    0.011492
    71  H    0.023135
    72  H    0.031007
    73  H    0.040740
    74  H    0.011231
    75  H    0.047777
    76  H    0.037805
    77  H    0.045058
    78  H    0.047464
    79  H    0.060896
    80  Mg   0.836831
    81  C   -0.014088
    82  C   -0.089205
    83  C   -0.046332
    84  C   -0.066067
    85  N   -0.253912
    86  C   -0.045726
    87  C   -0.034579
    88  C   -0.099416
    89  C    0.043959
    90  C    0.111595
    91  C    0.160668
    92  C   -0.261543
    93  H    0.202974
    94  N   -0.423409
    95  C    0.162010
    96  C   -0.174993
    97  C   -0.008807
    98  C    0.151960
    99  C    0.099259
   100  C    0.014935
   101  O   -0.253990
   102  C    0.061568
   103  N   -0.350391
   104  C    0.037322
   105  C   -0.019544
   106  C   -0.034837
   107  C    0.089517
   108  C    0.073920
   109  C    0.034922
   110  C   -0.007552
   111  N   -0.324166
   112  C    0.079047
   113  C   -0.163826
   114  C    0.003646
   115  C    0.094989
   116  C    0.131454
   117  C    0.041575
   118  O   -0.184961
   119  C    0.007005
   120  C    0.212879
   121  O   -0.247272
   122  O   -0.316166
   123  C    0.226953
   124  H   -0.017598
   125  H   -0.016550
   126  H   -0.041070
   127  H    0.006385
   128  H    0.004684
   129  H    0.025855
   130  H    0.011959
   131  H    0.023183
   132  H    0.009030
   133  H    0.044625
   134  H    0.171568
   135  H    0.154713
   136  H    0.008631
   137  H    0.025960
   138  H    0.036978
   139  H    0.038017
   140  H    0.035476
   141  H    0.032659
   142  H    0.013747
   143  H    0.011992
   144  H    0.024421
   145  H    0.011585
   146  H    0.005130
   147  H    0.005630
   148  H    0.003486
   149  H    0.010478
   150  H    0.017442
   151  H    0.030576
   152  H    0.046754
   153  H    0.007637
   154  H    0.046289
   155  H    0.030937
   156  H    0.039033
   157  H    0.023901
   158  H    0.066992
 Sum of Mulliken charges =  -0.00000

 Dipole moment (field-independent basis, Debye):
    X=              3.2627    Y=              6.5285    Z=             -2.2878  Tot=              7.6486
 Quadrupole moment (field-independent basis, Debye-Ang):
   XX=           -493.2372   YY=           -545.8947   ZZ=           -472.3523
   XY=             29.9754   XZ=            -24.3577   YZ=             -8.6828

 Normal termination of Gaussian 16 at Thu Sep  9 23:10:27 2021.
