 Gaussian 16, Revision A.03,
 Gaussian 16:  ES64L-G16RevA.03 25-Dec-2016

 -----------------------------------
 #p cam-b3lyp/Def2SVP td=(nstates=5)
 -----------------------------------

 --------------------------------
 TDDFT excited states in gaussian
 --------------------------------
 Symbolic Z-matrix:
 Charge =  0 Multiplicity = 1

                         Standard orientation:
 ---------------------------------------------------------------------
 Center     Atomic      Atomic             Coordinates (Angstroms)
 Number     Number       Type             X           Y           Z
 ---------------------------------------------------------------------
      1         12           0        6.453704   -1.036842    0.147924
      2          6           0        7.142657    2.204082   -1.206318
      3          6           0        7.576194    0.141513    3.147017
      4          6           0        6.283031   -4.003875    1.254361
      5          6           0        6.472339   -2.244425   -3.121182
      6          7           0        7.232837    0.940825    0.766334
      7          6           0        7.389920    2.116175    0.165462
      8          6           0        7.769819    3.265574    1.146244
      9          6           0        8.416034    2.395436    2.315545
     10          6           0        7.672842    1.091103    2.086842
     11          6           0        9.910258    2.147382    2.135919
     12          6           0        6.515896    4.057979    1.647744
     13          6           0        6.818838    5.388484    2.342968
     14          1           0        5.900971    6.501808    2.154876
     15          7           0        6.400461   -1.710915    2.004167
     16          6           0        6.890398   -1.091689    3.104988
     17          6           0        6.607065   -1.995118    4.240866
     18          6           0        6.082963   -3.273783    3.685503
     19          6           0        6.261463   -3.054096    2.272968
     20          6           0        6.789750   -1.597898    5.673552
     21          6           0        5.521597   -4.503374    4.326678
     22          8           0        5.341015   -5.588349    3.674917
     23          6           0        5.268032   -4.430611    5.777007
     24          7           0        6.603962   -2.905593   -0.770132
     25          6           0        6.434043   -4.033355   -0.071373
     26          6           0        6.304610   -5.222332   -0.976647
     27          6           0        6.177909   -4.638692   -2.457547
     28          6           0        6.348295   -3.133946   -2.133542
     29          6           0        7.458750   -6.232844   -0.923375
     30          6           0        4.944097   -5.080082   -3.284167
     31          6           0        3.685325   -4.505189   -2.674177
     32          7           0        6.574426   -0.174077   -1.840067
     33          6           0        6.587336   -0.865692   -3.059976
     34          6           0        6.790779    0.136219   -4.122451
     35          6           0        6.899365    1.346934   -3.441111
     36          6           0        6.798086    1.112662   -2.039986
     37          6           0        6.911469   -0.137061   -5.513560
     38          6           0        7.102033    2.780931   -3.569305
     39          8           0        7.158800    3.567509   -4.515649
     40          6           0        7.389546    3.377770   -2.121221
     41          6           0        6.523287    4.596009   -1.951522
     42          8           0        5.280993    4.494189   -1.890653
     43          8           0        7.294951    5.651848   -1.651055
     44          6           0        6.494545    6.887651   -1.440590
     45          1           0        8.122288    0.327776    4.073855
     46          1           0        6.115742   -5.030923    1.585457
     47          1           0        6.404630   -2.536519   -4.170730
     48          1           0        8.504613    3.970695    0.757263
     49          1           0        8.180343    2.798206    3.300405
     50          1           0       10.259030    2.501071    1.165773
     51          1           0       10.037719    1.067628    2.215787
     52          1           0       10.476469    2.577874    2.962271
     53          1           0        6.055983    3.517026    2.474733
     54          1           0        5.815606    4.229949    0.829609
     55          1           0        7.846497    5.706391    2.164748
     56          1           0        6.767125    5.230470    3.420260
     57          1           0        7.343269   -0.663979    5.762764
     58          1           0        7.439984   -2.343730    6.130322
     59          1           0        5.842762   -1.556621    6.211923
     60          1           0        6.200047   -4.201811    6.294257
     61          1           0        4.784681   -5.369374    6.045234
     62          1           0        4.594179   -3.596840    5.976245
     63          1           0        5.409859   -5.797282   -0.741535
     64          1           0        7.028486   -4.916058   -3.080654
     65          1           0        7.142038   -7.246710   -0.677461
     66          1           0        8.193413   -5.867849   -0.206200
     67          1           0        8.055531   -6.293496   -1.833095
     68          1           0        4.843281   -6.164712   -3.265196
     69          1           0        4.991958   -4.769658   -4.328005
     70          1           0        3.448690   -5.219158   -1.886088
     71          1           0        2.887381   -4.464224   -3.416349
     72          1           0        3.877423   -3.544292   -2.196409
     73          1           0        6.313537    0.616826   -6.025517
     74          1           0        6.567514   -1.143578   -5.750672
     75          1           0        7.986481   -0.020228   -5.649778
     76          1           0        8.450801    3.622216   -2.087970
     77          1           0        6.884588    7.642818   -2.123102
     78          1           0        6.532174    7.103081   -0.372611
     79          1           0        5.451095    6.845495   -1.754872
     80         12           0       -6.621886    1.010094    0.366925
     81          6           0       -6.967708   -2.421828   -0.623721
     82          6           0       -5.683738    1.686228   -2.842021
     83          6           0       -5.875378    3.946519    1.309042
     84          6           0       -6.468305   -0.102393    3.666083
     85          7           0       -6.393973   -0.284420   -1.411991
     86          6           0       -6.612791   -1.562090   -1.684066
     87          6           0       -6.519881   -1.923950   -3.190715
     88          6           0       -5.570592   -0.720219   -3.669015
     89          6           0       -5.924816    0.310404   -2.598957
     90          6           0       -4.089366   -1.039379   -3.553023
     91          6           0       -7.916083   -1.872960   -3.904880
     92          6           0       -7.950848   -2.511004   -5.295361
     93          1           0       -9.162816   -3.212776   -5.709044
     94          7           0       -6.363835    2.670817   -0.688528
     95          6           0       -6.004675    2.762724   -1.986163
     96          6           0       -5.930924    4.201840   -2.282234
     97          6           0       -6.115096    4.952427   -1.010462
     98          6           0       -6.104249    3.861519   -0.056587
     99          6           0       -5.784141    4.739331   -3.676143
    100          6           0       -6.262147    6.411771   -0.702407
    101          8           0       -6.172190    6.859544    0.495190
    102          6           0       -6.421371    7.312048   -1.853763
    103          7           0       -6.016789    1.793171    2.195302
    104          6           0       -5.807822    3.112726    2.347086
    105          6           0       -5.650397    3.475997    3.804366
    106          6           0       -6.039579    2.156855    4.620446
    107          6           0       -6.279093    1.190342    3.439814
    108          6           0       -4.257654    3.943104    4.226812
    109          6           0       -7.149937    2.297535    5.697475
    110          6           0       -8.477896    2.585878    5.035076
    111          7           0       -6.884046   -0.877027    1.385798
    112          6           0       -6.749445   -1.125282    2.769393
    113          6           0       -6.908837   -2.580446    2.968146
    114          6           0       -7.103749   -3.084721    1.673459
    115          6           0       -7.048193   -2.021639    0.732051
    116          6           0       -6.817150   -3.265036    4.212757
    117          6           0       -7.333256   -4.276003    0.888046
    118          8           0       -7.556280   -5.457849    1.147334
    119          6           0       -7.129342   -3.916473   -0.646729
    120          6           0       -8.291394   -4.483777   -1.415054
    121          8           0       -9.442360   -4.049711   -1.232138
    122          8           0       -7.825746   -5.287246   -2.388705
    123          6           0       -8.940572   -5.865278   -3.185483
    124          1           0       -5.160974    1.967703   -3.756552
    125          1           0       -5.722790    4.955279    1.699653
    126          1           0       -6.531221   -0.515328    4.675148
    127          1           0       -6.047526   -2.876032   -3.400933
    128          1           0       -5.855326   -0.360212   -4.654248
    129          1           0       -3.918177   -1.982372   -3.055429
    130          1           0       -3.657157   -0.227091   -2.983437
    131          1           0       -3.617132   -1.000872   -4.538850
    132          1           0       -8.145019   -0.832680   -4.169730
    133          1           0       -8.676116   -2.310680   -3.287331
    134          1           0       -7.064776   -3.128016   -5.488035
    135          1           0       -7.892017   -1.716550   -6.043288
    136          1           0       -5.507014    3.949181   -4.384846
    137          1           0       -4.920748    5.413418   -3.669658
    138          1           0       -6.663783    5.294916   -4.008154
    139          1           0       -5.563174    7.209628   -2.513670
    140          1           0       -6.601078    8.301363   -1.428496
    141          1           0       -7.299197    6.994415   -2.427472
    142          1           0       -6.330096    4.272999    4.079848
    143          1           0       -5.182891    1.758620    5.183750
    144          1           0       -4.256463    4.946761    4.692371
    145          1           0       -3.613760    3.926406    3.357522
    146          1           0       -3.736136    3.278409    4.913392
    147          1           0       -6.938101    3.147318    6.351039
    148          1           0       -7.251373    1.422089    6.330164
    149          1           0       -8.444352    3.667787    4.875594
    150          1           0       -9.301097    2.308875    5.690567
    151          1           0       -8.537985    2.109152    4.049799
    152          1           0       -7.628493   -3.980380    4.235136
    153          1           0       -6.871974   -2.574169    5.051498
    154          1           0       -5.825359   -3.714640    4.115450
    155          1           0       -6.179492   -4.350426   -0.961457
    156          1           0       -8.823101   -6.952974   -3.157110
    157          1           0       -8.883039   -5.378123   -4.177008
    158          1           0       -9.945912   -5.750930   -2.797315
 ---------------------------------------------------------------------

 SCF Done:  E(RCAM-B3LYP) =  -4069.81188903     A.U. after   19 cycles

 Excitation energies and oscillator strengths:

 Excited State   1:      Singlet-A      1.6679 eV  743.34 nm  f=0.0923  <S**2>=0.000
     309 -> 315        0.10788
     310 -> 316        0.13388
     311 -> 313        0.42888
     312 -> 314        0.53597
 This state for optimization and/or second-order correction.
 Total Energy, E(TD-HF/TD-DFT) =  -4069.75059338
 Copying the excited state density for this state as the 1-particle RhoCI density.

 Excited State   2:      Singlet-A      1.6871 eV  734.88 nm  f=0.6455  <S**2>=0.000
     309 -> 315        0.13851
     310 -> 316       -0.11034
     311 -> 313        0.53502
     312 -> 314       -0.42822

 Excited State   3:      Singlet-A      2.1859 eV  567.19 nm  f=0.0620  <S**2>=0.000
     309 -> 313        0.16554
     310 -> 314        0.62111
     312 -> 316       -0.26345

 Excited State   4:      Singlet-A      2.1933 eV  565.29 nm  f=0.1311  <S**2>=0.000
     309 -> 313        0.61912
     310 -> 314       -0.16420
     311 -> 315       -0.26924

 Excited State   5:      Singlet-A      2.6483 eV  468.17 nm  f=0.0000  <S**2>=0.000
     312 -> 313        0.70710

 The electronic state is 1-A.
 Alpha  occ. eigenvalues --  -46.87856 -46.87551 -19.26351 -19.26268 -19.19093
 Alpha  occ. eigenvalues --  -19.19076 -19.18851 -19.18602 -19.18241 -19.17950
 Alpha  occ. eigenvalues --  -14.42507 -14.42384 -14.41508 -14.41255 -14.39459
 Alpha  occ. eigenvalues --  -14.39239 -14.38650 -14.38492 -10.39151 -10.39004
 Alpha  occ. eigenvalues --  -10.35483 -10.35278 -10.34461 -10.34128 -10.31742
 Alpha  occ. eigenvalues --  -10.31684 -10.31467 -10.31195 -10.30961 -10.30904
 Alpha  occ. eigenvalues --  -10.30634 -10.30568 -10.30294 -10.30261 -10.30251
 Alpha  occ. eigenvalues --  -10.30037 -10.29982 -10.29801 -10.29691 -10.29322
 Alpha  occ. eigenvalues --  -10.29310 -10.29292 -10.28797 -10.28603 -10.28573
 Alpha  occ. eigenvalues --  -10.28560 -10.28423 -10.28290 -10.28166 -10.28010
 Alpha  occ. eigenvalues --  -10.27889 -10.27855 -10.27784 -10.27640 -10.27560
 Alpha  occ. eigenvalues --  -10.27546 -10.27526 -10.27501 -10.27462 -10.27449
 Alpha  occ. eigenvalues --  -10.27375 -10.27353 -10.27310 -10.27305 -10.27224
 Alpha  occ. eigenvalues --  -10.26951 -10.26749 -10.26589 -10.26432 -10.26291
 Alpha  occ. eigenvalues --  -10.26280 -10.26256 -10.26088 -10.26082 -10.25933
 Alpha  occ. eigenvalues --  -10.25865 -10.25835 -10.25768 -10.25476 -10.25336
 Alpha  occ. eigenvalues --  -10.24897 -10.24843 -10.24771 -10.24764 -10.24680
 Alpha  occ. eigenvalues --  -10.24586  -3.16599  -3.16301  -1.91480  -1.91183
 Alpha  occ. eigenvalues --   -1.91067  -1.90909  -1.90772  -1.90608  -1.16701
 Alpha  occ. eigenvalues --   -1.16561  -1.08701  -1.08560  -1.07250  -1.06861
 Alpha  occ. eigenvalues --   -1.06854  -1.06715  -1.04638  -1.04381  -1.03818
 Alpha  occ. eigenvalues --   -1.03554  -1.03293  -1.02934  -1.02470  -1.02004
 Alpha  occ. eigenvalues --   -0.92034  -0.91881  -0.89582  -0.89406  -0.89238
 Alpha  occ. eigenvalues --   -0.89031  -0.88345  -0.88138  -0.87941  -0.87729
 Alpha  occ. eigenvalues --   -0.87693  -0.87574  -0.87322  -0.86996  -0.85033
 Alpha  occ. eigenvalues --   -0.84887  -0.83998  -0.83800  -0.83010  -0.82821
 Alpha  occ. eigenvalues --   -0.82699  -0.82540  -0.81648  -0.81502  -0.80653
 Alpha  occ. eigenvalues --   -0.80340  -0.78853  -0.78519  -0.77276  -0.77037
 Alpha  occ. eigenvalues --   -0.76989  -0.76802  -0.75980  -0.75726  -0.74953
 Alpha  occ. eigenvalues --   -0.74717  -0.72836  -0.72594  -0.71727  -0.71476
 Alpha  occ. eigenvalues --   -0.69972  -0.69686  -0.68925  -0.68716  -0.67697
 Alpha  occ. eigenvalues --   -0.67497  -0.67265  -0.67090  -0.65341  -0.65163
 Alpha  occ. eigenvalues --   -0.64914  -0.64678  -0.64669  -0.64553  -0.64329
 Alpha  occ. eigenvalues --   -0.64118  -0.62361  -0.62188  -0.60493  -0.60229
 Alpha  occ. eigenvalues --   -0.59858  -0.59680  -0.59046  -0.58891  -0.58563
 Alpha  occ. eigenvalues --   -0.58324  -0.57651  -0.57458  -0.57367  -0.57140
 Alpha  occ. eigenvalues --   -0.56370  -0.56096  -0.56039  -0.55791  -0.55572
 Alpha  occ. eigenvalues --   -0.55402  -0.55344  -0.55165  -0.54587  -0.54407
 Alpha  occ. eigenvalues --   -0.53945  -0.53796  -0.53355  -0.53272  -0.53126
 Alpha  occ. eigenvalues --   -0.53033  -0.52975  -0.52800  -0.52800  -0.52542
 Alpha  occ. eigenvalues --   -0.52507  -0.52334  -0.51993  -0.51793  -0.51666
 Alpha  occ. eigenvalues --   -0.51545  -0.51259  -0.51104  -0.50613  -0.50351
 Alpha  occ. eigenvalues --   -0.50089  -0.49965  -0.49866  -0.49773  -0.49564
 Alpha  occ. eigenvalues --   -0.49374  -0.49274  -0.49150  -0.49089  -0.48994
 Alpha  occ. eigenvalues --   -0.48653  -0.48517  -0.48493  -0.48453  -0.48293
 Alpha  occ. eigenvalues --   -0.48225  -0.47748  -0.47486  -0.47349  -0.47008
 Alpha  occ. eigenvalues --   -0.46857  -0.46610  -0.46605  -0.46441  -0.46419
 Alpha  occ. eigenvalues --   -0.46225  -0.46167  -0.45995  -0.45890  -0.45730
 Alpha  occ. eigenvalues --   -0.45256  -0.45121  -0.44643  -0.44555  -0.44417
 Alpha  occ. eigenvalues --   -0.44365  -0.44204  -0.44140  -0.44074  -0.44019
 Alpha  occ. eigenvalues --   -0.43982  -0.43827  -0.43559  -0.43464  -0.43439
 Alpha  occ. eigenvalues --   -0.43281  -0.43086  -0.42839  -0.42805  -0.42762
 Alpha  occ. eigenvalues --   -0.42720  -0.42465  -0.42072  -0.41877  -0.41764
 Alpha  occ. eigenvalues --   -0.41584  -0.41567  -0.41356  -0.41195  -0.40922
 Alpha  occ. eigenvalues --   -0.40880  -0.40861  -0.40630  -0.40615  -0.40591
 Alpha  occ. eigenvalues --   -0.40406  -0.40277  -0.40119  -0.39507  -0.39356
 Alpha  occ. eigenvalues --   -0.38524  -0.38266  -0.37797  -0.37550  -0.37378
 Alpha  occ. eigenvalues --   -0.37317  -0.37173  -0.37088  -0.36779  -0.36688
 Alpha  occ. eigenvalues --   -0.36254  -0.36126  -0.34346  -0.34148  -0.33841
 Alpha  occ. eigenvalues --   -0.33772  -0.33247  -0.33068  -0.31381  -0.31162
 Alpha  occ. eigenvalues --   -0.31092  -0.30865  -0.30101  -0.29856  -0.29506
 Alpha  occ. eigenvalues --   -0.29386  -0.29212  -0.29103  -0.24140  -0.23927
 Alpha  occ. eigenvalues --   -0.21187  -0.21007
 Alpha virt. eigenvalues --   -0.08832  -0.08680  -0.01806  -0.01577  -0.00108
 Alpha virt. eigenvalues --    0.00089   0.02135   0.02308   0.03052   0.03323
 Alpha virt. eigenvalues --    0.04665   0.04841   0.05028   0.05254   0.06133

 Mulliken charges:
               1
     1  Mg   0.838591
     2  C   -0.002984
     3  C   -0.094064
     4  C   -0.045791
     5  C   -0.064109
     6  N   -0.256811
     7  C   -0.052499
     8  C   -0.013995
     9  C   -0.087033
    10  C    0.046407
    11  C    0.104778
    12  C    0.053445
    13  C   -0.071983
    14  H    0.036465
    15  N   -0.433215
    16  C    0.168531
    17  C   -0.177041
    18  C   -0.003821
    19  C    0.148806
    20  C    0.110151
    21  C    0.012472
    22  O   -0.249174
    23  C    0.062408
    24  N   -0.341124
    25  C    0.041291
    26  C   -0.028307
    27  C   -0.023912
    28  C    0.074732
    29  C    0.076081
    30  C    0.035159
    31  C   -0.004468
    32  N   -0.310351
    33  C    0.080172
    34  C   -0.170238
    35  C    0.008205
    36  C    0.082756
    37  C    0.127451
    38  C    0.045791
    39  O   -0.188865
    40  C   -0.005208
    41  C    0.212827
    42  O   -0.257432
    43  O   -0.304703
    44  C    0.157740
    45  H   -0.017411
    46  H   -0.016513
    47  H   -0.041792
    48  H    0.000956
    49  H   -0.003896
    50  H    0.025490
    51  H    0.016483
    52  H    0.016825
    53  H    0.011221
    54  H    0.044013
    55  H    0.017887
    56  H    0.018063
    57  H    0.005954
    58  H    0.027072
    59  H    0.039662
    60  H    0.037371
    61  H    0.036151
    62  H    0.031435
    63  H    0.016847
    64  H    0.009491
    65  H    0.023555
    66  H    0.012632
    67  H    0.004775
    68  H    0.006687
    69  H    0.004307
    70  H    0.009446
    71  H    0.017187
    72  H    0.028811
    73  H    0.046880
    74  H    0.008819
    75  H    0.046143
    76  H    0.035250
    77  H    0.042903
    78  H    0.046702
    79  H    0.053466
    80  Mg   0.837965
    81  C   -0.016801
    82  C   -0.087305
    83  C   -0.045253
    84  C   -0.065061
    85  N   -0.254548
    86  C   -0.049815
    87  C   -0.015106
    88  C   -0.090508
    89  C    0.045626
    90  C    0.114105
    91  C    0.062530
    92  C   -0.077759
    93  H    0.034494
    94  N   -0.423667
    95  C    0.162904
    96  C   -0.173676
    97  C   -0.007681
    98  C    0.152370
    99  C    0.098951
   100  C    0.015789
   101  O   -0.253473
   102  C    0.061129
   103  N   -0.350005
   104  C    0.037684
   105  C   -0.019858
   106  C   -0.034606
   107  C    0.088815
   108  C    0.073693
   109  C    0.034831
   110  C   -0.007588
   111  N   -0.324016
   112  C    0.078285
   113  C   -0.163390
   114  C    0.002228
   115  C    0.096053
   116  C    0.131496
   117  C    0.042255
   118  O   -0.188236
   119  C    0.000948
   120  C    0.211216
   121  O   -0.251134
   122  O   -0.305609
   123  C    0.152099
   124  H   -0.018532
   125  H   -0.015732
   126  H   -0.041008
   127  H   -0.000826
   128  H   -0.004263
   129  H    0.022175
   130  H    0.015622
   131  H    0.016720
   132  H    0.013914
   133  H    0.037479
   134  H    0.020710
   135  H    0.019712
   136  H    0.009275
   137  H    0.027506
   138  H    0.039554
   139  H    0.039020
   140  H    0.036095
   141  H    0.033701
   142  H    0.014165
   143  H    0.011860
   144  H    0.024651
   145  H    0.012506
   146  H    0.004943
   147  H    0.005770
   148  H    0.003331
   149  H    0.010838
   150  H    0.017650
   151  H    0.030385
   152  H    0.045733
   153  H    0.008063
   154  H    0.046890
   155  H    0.035076
   156  H    0.043698
   157  H    0.049495
   158  H    0.053450
 Sum of Mulliken charges =  -0.00000

 Dipole moment (field-independent basis, Debye):
    X=              4.4225    Y=              1.7902    Z=              0.8306  Tot=              4.8429
 Quadrupole moment (field-independent basis, Debye-Ang):
   XX=           -521.4437   YY=           -538.9964   ZZ=           -458.7033
   XY=            -19.1388   XZ=             55.5596   YZ=             34.7628

 Normal termination of Gaussian 16 at Sat Sep 11 05:09:36 2021.
