 Gaussian 16, Revision A.03,
 Gaussian 16:  ES64L-G16RevA.03 25-Dec-2016

 -----------------------------------
 #p cam-b3lyp/Def2SVP td=(nstates=5)
 -----------------------------------

 --------------------------------
 TDDFT excited states in gaussian
 --------------------------------
 Symbolic Z-matrix:
 Charge =  0 Multiplicity = 1

                         Standard orientation:
 ---------------------------------------------------------------------
 Center     Atomic      Atomic             Coordinates (Angstroms)
 Number     Number       Type             X           Y           Z
 ---------------------------------------------------------------------
      1         12           0        3.279960   -2.101846    0.037050
      2          6           0        5.163535    0.648055   -1.267713
      3          6           0        4.851933   -1.570855    3.018663
      4          6           0        1.974439   -4.796602    1.081332
      5          6           0        2.736883   -3.101466   -3.257110
      6          7           0        4.794508   -0.616979    0.671053
      7          6           0        5.389736    0.420889    0.091653
      8          6           0        6.218518    1.290672    1.083605
      9          6           0        6.495640    0.194986    2.208182
     10          6           0        5.290752   -0.699974    1.977492
     11          6           0        7.764059   -0.617353    1.967931
     12          6           0        5.394470    2.496113    1.648926
     13          6           0        6.217331    3.572683    2.362544
     14          1           0        5.811760    4.964189    2.233808
     15          7           0        3.010030   -2.765292    1.878198
     16          6           0        3.732568   -2.429862    2.973968
     17          6           0        3.142614   -3.187221    4.098710
     18          6           0        2.140832   -4.133694    3.534163
     19          6           0        2.356589   -3.952556    2.121358
     20          6           0        3.503422   -2.945776    5.532332
     21          6           0        1.154092   -5.062852    4.167520
     22          8           0        0.541955   -5.964030    3.498385
     23          6           0        0.986346   -4.947242    5.627499
     24          7           0        2.654037   -3.843754   -0.928151
     25          6           0        2.068335   -4.836345   -0.249401
     26          6           0        1.455591   -5.844206   -1.176061
     27          6           0        1.533873   -5.205896   -2.637631
     28          6           0        2.294934   -3.903809   -2.286030
     29          6           0        2.115397   -7.230032   -1.188403
     30          6           0        0.206021   -5.093598   -3.427958
     31          6           0       -0.706021   -4.089710   -2.759012
     32          7           0        3.683352   -1.287245   -1.933926
     33          6           0        3.390609   -1.883792   -3.168879
     34          6           0        3.948123   -1.007055   -4.215100
     35          6           0        4.544780    0.036951   -3.510901
     36          6           0        4.393823   -0.187713   -2.112677
     37          6           0        3.915898   -1.256231   -5.615567
     38          6           0        5.296161    1.277387   -3.613873
     39          8           0        5.636580    2.010399   -4.543550
     40          6           0        5.832701    1.660017   -2.164202
     41          6           0        5.524996    3.114698   -1.935005
     42          8           0        4.346091    3.510499   -1.830649
     43          8           0        6.659270    3.767792   -1.639316
     44          6           0        6.419977    5.211096   -1.371423
     45          1           0        5.450004   -1.648818    3.928703
     46          1           0        1.421933   -5.684754    1.394957
     47          1           0        2.532807   -3.305507   -4.309808
     48          1           0        7.162736    1.660945    0.683887
     49          1           0        6.463560    0.622909    3.209968
     50          1           0        8.200217   -0.396287    0.993858
     51          1           0        7.454893   -1.661553    2.018485
     52          1           0        8.474928   -0.475565    2.782387
     53          1           0        4.778504    2.152229    2.479824
     54          1           0        4.799639    2.959982    0.861317
     55          1           0        7.282024    3.464263    2.153781
     56          1           0        6.134035    3.409891    3.437142
     57          1           0        4.383905   -2.310788    5.622247
     58          1           0        3.815785   -3.903685    5.947723
     59          1           0        2.664141   -2.552407    6.106092
     60          1           0        1.945247   -5.124288    6.115057
     61          1           0        0.177232   -5.627117    5.891986
     62          1           0        0.703504   -3.922565    5.870369
     63          1           0        0.412364   -6.026281   -0.921204
     64          1           0        2.188958   -5.774795   -3.297852
     65          1           0        1.428873   -8.043958   -0.954066
     66          1           0        2.952167   -7.211115   -0.490729
     67          1           0        2.616369   -7.489477   -2.120676
     68          1           0       -0.316084   -6.049814   -3.429927
     69          1           0        0.347045   -4.790593   -4.465528
     70          1           0       -1.186654   -4.679321   -1.979151
     71          1           0       -1.440521   -3.710139   -3.470100
     72          1           0       -0.136844   -3.300787   -2.266952
     73          1           0        3.653352   -0.309661   -6.087841
     74          1           0        3.195264   -2.035494   -5.862628
     75          1           0        4.945367   -1.569409   -5.788685
     76          1           0        6.904362    1.463385   -2.164603
     77          1           0        7.060356    5.774087   -2.050533
     78          1           0        6.566510    5.356023   -0.300942
     79          1           0        5.437869    5.596312   -1.647850
     80         12           0       -3.432094    2.125559    0.482910
     81          6           0       -5.134876   -0.852148   -0.572008
     82          6           0       -2.382933    2.488859   -2.742287
     83          6           0       -1.559276    4.491730    1.463312
     84          6           0       -3.650132    0.926733    3.748031
     85          7           0       -3.780500    0.910481   -1.332153
     86          6           0       -4.494670   -0.165897   -1.624925
     87          6           0       -4.590381   -0.481271   -3.141807
     88          6           0       -3.253857    0.264925   -3.627361
     89          6           0       -3.143641    1.312921   -2.521816
     90          6           0       -2.018197   -0.618013   -3.573406
     91          6           0       -5.869229    0.143156   -3.802603
     92          6           0       -6.188742   -0.379317   -5.204994
     93          1           0       -7.589506   -0.529271   -5.589492
     94          7           0       -2.563063    3.585067   -0.543342
     95          6           0       -2.229323    3.573392   -1.850917
     96          6           0       -1.598405    4.875486   -2.116744
     97          6           0       -1.438146    5.592054   -0.822314
     98          6           0       -1.837008    4.552731    0.105486
     99          6           0       -1.285273    5.360171   -3.502548
    100          6           0       -0.986806    6.978610   -0.475953
    101          8           0       -0.696900    7.311470    0.727372
    102          6           0       -0.804610    7.908680   -1.599903
    103          7           0       -2.520792    2.539983    2.305034
    104          6           0       -1.802039    3.662962    2.478945
    105          6           0       -1.477259    3.882371    3.937288
    106          6           0       -2.337149    2.796715    4.736994
    107          6           0       -2.969553    2.046328    3.544363
    108          6           0       -0.003420    3.745149    4.318538
    109          6           0       -3.273524    3.326815    5.857196
    110          6           0       -4.394357    4.140244    5.251000
    111          7           0       -4.395558    0.461185    1.467635
    112          6           0       -4.336038    0.131009    2.839319
    113          6           0       -5.054340   -1.148475    3.010706
    114          6           0       -5.465372   -1.488234    1.712974
    115          6           0       -5.016305   -0.501153    0.794545
    116          6           0       -5.210653   -1.857201    4.235209
    117          6           0       -6.167885   -2.462879    0.909704
    118          8           0       -6.834701   -3.468500    1.150118
    119          6           0       -5.876399   -2.159112   -0.622997
    120          6           0       -7.186877   -2.192836   -1.360586
    121          8           0       -8.066458   -1.345669   -1.125491
    122          8           0       -7.102369   -3.079849   -2.368765
    123          6           0       -8.374462   -3.141076   -3.136784
    124          1           0       -1.814352    2.572852   -3.668861
    125          1           0       -1.009544    5.343311    1.870847
    126          1           0       -3.846487    0.536833    4.749075
    127          1           0       -4.539636   -1.534431   -3.390906
    128          1           0       -3.396933    0.742922   -4.592966
    129          1           0       -2.222611   -1.568821   -3.104025
    130          1           0       -1.285303   -0.063720   -3.001843
    131          1           0       -1.594106   -0.734497   -4.574856
    132          1           0       -5.673442    1.197833   -4.035116
    133          1           0       -6.724909    0.020160   -3.167527
    134          1           0       -5.625034   -1.289234   -5.444212
    135          1           0       -5.838362    0.353075   -5.936335
    136          1           0       -1.361901    4.550540   -4.238759
    137          1           0       -0.225512    5.637061   -3.512615
    138          1           0       -1.880491    6.229796   -3.789152
    139          1           0       -0.074083    7.498629   -2.293186
    140          1           0       -0.566676    8.872621   -1.145923
    141          1           0       -1.750418    7.984773   -2.147885
    142          1           0       -1.778149    4.872906    4.255720
    143          1           0       -1.694843    2.072361    5.259106
    144          1           0        0.407210    4.649263    4.806430
    145          1           0        0.559213    3.505978    3.425917
    146          1           0        0.228701    2.904467    4.970128
    147          1           0       -2.725917    3.999715    6.521644
    148          1           0       -3.697990    2.541046    6.473152
    149          1           0       -3.938564    5.125561    5.115012
    150          1           0       -5.243311    4.188388    5.929960
    151          1           0       -4.663038    3.761458    4.258036
    152          1           0       -6.238305   -2.193559    4.271253
    153          1           0       -4.966161   -1.231241    5.090870
    154          1           0       -4.481194   -2.658693    4.091164
    155          1           0       -5.184624   -2.921933   -0.982342
    156          1           0       -8.697228   -4.186789   -3.137479
    157          1           0       -8.153186   -2.681560   -4.118433
    158          1           0       -9.242056   -2.652248   -2.709265
 ---------------------------------------------------------------------

 SCF Done:  E(RCAM-B3LYP) =  -4069.81190302     A.U. after   19 cycles

 Excitation energies and oscillator strengths:

 Excited State   1:      Singlet-A      1.6448 eV  753.78 nm  f=0.0736  <S**2>=0.000
     309 -> 315        0.11536
     310 -> 316        0.11902
     311 -> 313       -0.47611
     312 -> 314        0.49607
 This state for optimization and/or second-order correction.
 Total Energy, E(TD-HF/TD-DFT) =  -4069.75145622
 Copying the excited state density for this state as the 1-particle RhoCI density.

 Excited State   2:      Singlet-A      1.7042 eV  727.54 nm  f=0.5890  <S**2>=0.000
     309 -> 315       -0.13104
     310 -> 316        0.12552
     311 -> 313        0.49336
     312 -> 314        0.47378

 Excited State   3:      Singlet-A      2.1840 eV  567.69 nm  f=0.0272  <S**2>=0.000
     309 -> 313       -0.40961
     310 -> 314        0.49778
     311 -> 315       -0.17051
     312 -> 316       -0.20782

 Excited State   4:      Singlet-A      2.1967 eV  564.41 nm  f=0.1524  <S**2>=0.000
     309 -> 313        0.49338
     310 -> 314        0.40503
     311 -> 315        0.21786
     312 -> 316       -0.17917

 Excited State   5:      Singlet-A      2.2238 eV  557.54 nm  f=0.0000  <S**2>=0.000
     312 -> 313        0.70704

 The electronic state is 1-A.
 Alpha  occ. eigenvalues --  -46.87933 -46.87386 -19.26416 -19.26181 -19.19174
 Alpha  occ. eigenvalues --  -19.18968 -19.18901 -19.18400 -19.18354 -19.17768
 Alpha  occ. eigenvalues --  -14.42580 -14.42219 -14.41592 -14.41103 -14.39534
 Alpha  occ. eigenvalues --  -14.39054 -14.38742 -14.38323 -10.39230 -10.38894
 Alpha  occ. eigenvalues --  -10.35532 -10.35073 -10.34571 -10.33953 -10.31782
 Alpha  occ. eigenvalues --  -10.31621 -10.31554 -10.31033 -10.31020 -10.30733
 Alpha  occ. eigenvalues --  -10.30720 -10.30657 -10.30343 -10.30129 -10.30072
 Alpha  occ. eigenvalues --  -10.30070 -10.29875 -10.29787 -10.29676 -10.29394
 Alpha  occ. eigenvalues --  -10.29119 -10.29104 -10.28831 -10.28534 -10.28503
 Alpha  occ. eigenvalues --  -10.28493 -10.28475 -10.28217 -10.28096 -10.27952
 Alpha  occ. eigenvalues --  -10.27865 -10.27858 -10.27728 -10.27686 -10.27667
 Alpha  occ. eigenvalues --  -10.27614 -10.27576 -10.27538 -10.27394 -10.27348
 Alpha  occ. eigenvalues --  -10.27309 -10.27256 -10.27209 -10.27139 -10.26946
 Alpha  occ. eigenvalues --  -10.26802 -10.26743 -10.26484 -10.26481 -10.26416
 Alpha  occ. eigenvalues --  -10.26332 -10.26184 -10.26099 -10.26062 -10.26053
 Alpha  occ. eigenvalues --  -10.25685 -10.25685 -10.25605 -10.25527 -10.25356
 Alpha  occ. eigenvalues --  -10.24998 -10.24990 -10.24918 -10.24631 -10.24568
 Alpha  occ. eigenvalues --  -10.24425  -3.16676  -3.16136  -1.91557  -1.91144
 Alpha  occ. eigenvalues --   -1.91019  -1.90986  -1.90607  -1.90443  -1.16768
 Alpha  occ. eigenvalues --   -1.16468  -1.08816  -1.08387  -1.07296  -1.06795
 Alpha  occ. eigenvalues --   -1.06752  -1.06651  -1.04712  -1.04212  -1.03898
 Alpha  occ. eigenvalues --   -1.03388  -1.03381  -1.02770  -1.02556  -1.01834
 Alpha  occ. eigenvalues --   -0.92119  -0.91714  -0.89692  -0.89286  -0.89285
 Alpha  occ. eigenvalues --   -0.88892  -0.88442  -0.88057  -0.88043  -0.87800
 Alpha  occ. eigenvalues --   -0.87517  -0.87408  -0.87402  -0.86751  -0.85083
 Alpha  occ. eigenvalues --   -0.84744  -0.84113  -0.83722  -0.83091  -0.82759
 Alpha  occ. eigenvalues --   -0.82636  -0.82372  -0.81723  -0.81372  -0.80729
 Alpha  occ. eigenvalues --   -0.80186  -0.78944  -0.78303  -0.77372  -0.77054
 Alpha  occ. eigenvalues --   -0.76884  -0.76689  -0.76051  -0.75576  -0.75041
 Alpha  occ. eigenvalues --   -0.74622  -0.72933  -0.72425  -0.71802  -0.71345
 Alpha  occ. eigenvalues --   -0.70116  -0.69609  -0.68987  -0.68565  -0.67777
 Alpha  occ. eigenvalues --   -0.67338  -0.67301  -0.66934  -0.65402  -0.65037
 Alpha  occ. eigenvalues --   -0.64990  -0.64755  -0.64524  -0.64451  -0.64396
 Alpha  occ. eigenvalues --   -0.64002  -0.62439  -0.62068  -0.60574  -0.60039
 Alpha  occ. eigenvalues --   -0.59920  -0.59528  -0.59130  -0.58741  -0.58650
 Alpha  occ. eigenvalues --   -0.58172  -0.57741  -0.57455  -0.57313  -0.56994
 Alpha  occ. eigenvalues --   -0.56463  -0.56099  -0.55921  -0.55664  -0.55648
 Alpha  occ. eigenvalues --   -0.55510  -0.55170  -0.55068  -0.54694  -0.54316
 Alpha  occ. eigenvalues --   -0.53991  -0.53683  -0.53447  -0.53335  -0.53066
 Alpha  occ. eigenvalues --   -0.52981  -0.52882  -0.52857  -0.52662  -0.52659
 Alpha  occ. eigenvalues --   -0.52318  -0.52244  -0.52129  -0.51719  -0.51624
 Alpha  occ. eigenvalues --   -0.51385  -0.51346  -0.50960  -0.50696  -0.50246
 Alpha  occ. eigenvalues --   -0.50124  -0.50030  -0.49708  -0.49641  -0.49601
 Alpha  occ. eigenvalues --   -0.49363  -0.49217  -0.49199  -0.48908  -0.48857
 Alpha  occ. eigenvalues --   -0.48729  -0.48604  -0.48555  -0.48318  -0.48189
 Alpha  occ. eigenvalues --   -0.48028  -0.47823  -0.47426  -0.47333  -0.46945
 Alpha  occ. eigenvalues --   -0.46826  -0.46652  -0.46525  -0.46462  -0.46317
 Alpha  occ. eigenvalues --   -0.46301  -0.45989  -0.45985  -0.45868  -0.45604
 Alpha  occ. eigenvalues --   -0.45345  -0.45029  -0.44744  -0.44630  -0.44308
 Alpha  occ. eigenvalues --   -0.44278  -0.44239  -0.44210  -0.44140  -0.43908
 Alpha  occ. eigenvalues --   -0.43828  -0.43645  -0.43632  -0.43505  -0.43374
 Alpha  occ. eigenvalues --   -0.43202  -0.43136  -0.42827  -0.42763  -0.42722
 Alpha  occ. eigenvalues --   -0.42666  -0.42332  -0.42149  -0.41852  -0.41767
 Alpha  occ. eigenvalues --   -0.41634  -0.41405  -0.41263  -0.41215  -0.40993
 Alpha  occ. eigenvalues --   -0.40908  -0.40750  -0.40711  -0.40483  -0.40414
 Alpha  occ. eigenvalues --   -0.40304  -0.40290  -0.39988  -0.39641  -0.39284
 Alpha  occ. eigenvalues --   -0.38604  -0.38179  -0.37827  -0.37471  -0.37424
 Alpha  occ. eigenvalues --   -0.37364  -0.37051  -0.36933  -0.36846  -0.36590
 Alpha  occ. eigenvalues --   -0.36329  -0.36013  -0.34431  -0.33987  -0.33923
 Alpha  occ. eigenvalues --   -0.33651  -0.33334  -0.32898  -0.31430  -0.31169
 Alpha  occ. eigenvalues --   -0.30968  -0.30699  -0.30213  -0.29683  -0.29594
 Alpha  occ. eigenvalues --   -0.29483  -0.28998  -0.28903  -0.24221  -0.23760
 Alpha  occ. eigenvalues --   -0.21275  -0.20828
 Alpha virt. eigenvalues --   -0.08919  -0.08486  -0.01884  -0.01413  -0.00179
 Alpha virt. eigenvalues --    0.00295   0.02028   0.02383   0.02593   0.03603
 Alpha virt. eigenvalues --    0.04608   0.04948   0.05029   0.05374   0.06103

 Mulliken charges:
               1
     1  Mg   0.839110
     2  C   -0.002374
     3  C   -0.094245
     4  C   -0.045178
     5  C   -0.065005
     6  N   -0.256872
     7  C   -0.052185
     8  C   -0.014199
     9  C   -0.087049
    10  C    0.046864
    11  C    0.104753
    12  C    0.053258
    13  C   -0.072839
    14  H    0.039004
    15  N   -0.433406
    16  C    0.169078
    17  C   -0.177084
    18  C   -0.003292
    19  C    0.149522
    20  C    0.110158
    21  C    0.012856
    22  O   -0.247798
    23  C    0.062242
    24  N   -0.341160
    25  C    0.041251
    26  C   -0.029078
    27  C   -0.025493
    28  C    0.074856
    29  C    0.076039
    30  C    0.044011
    31  C   -0.022534
    32  N   -0.310123
    33  C    0.079507
    34  C   -0.172196
    35  C    0.007644
    36  C    0.082383
    37  C    0.127828
    38  C    0.044765
    39  O   -0.189738
    40  C   -0.004916
    41  C    0.212351
    42  O   -0.257753
    43  O   -0.304604
    44  C    0.158069
    45  H   -0.017195
    46  H   -0.015699
    47  H   -0.042718
    48  H    0.000945
    49  H   -0.003744
    50  H    0.025541
    51  H    0.016410
    52  H    0.017032
    53  H    0.011076
    54  H    0.045210
    55  H    0.017425
    56  H    0.017740
    57  H    0.006088
    58  H    0.027525
    59  H    0.039186
    60  H    0.037408
    61  H    0.037004
    62  H    0.030611
    63  H    0.018059
    64  H    0.009819
    65  H    0.024424
    66  H    0.012767
    67  H    0.004748
    68  H    0.006723
    69  H    0.002901
    70  H    0.012229
    71  H    0.023123
    72  H    0.033359
    73  H    0.045095
    74  H    0.008036
    75  H    0.046710
    76  H    0.035470
    77  H    0.042599
    78  H    0.047724
    79  H    0.052975
    80  Mg   0.836718
    81  C   -0.016900
    82  C   -0.085882
    83  C   -0.043802
    84  C   -0.065856
    85  N   -0.254554
    86  C   -0.050710
    87  C   -0.013784
    88  C   -0.093717
    89  C    0.044734
    90  C    0.111383
    91  C    0.063554
    92  C   -0.077338
    93  H    0.034115
    94  N   -0.424515
    95  C    0.162509
    96  C   -0.167668
    97  C   -0.006141
    98  C    0.153517
    99  C    0.096796
   100  C    0.017321
   101  O   -0.254758
   102  C    0.060261
   103  N   -0.350099
   104  C    0.037294
   105  C   -0.019676
   106  C   -0.034086
   107  C    0.088456
   108  C    0.073789
   109  C    0.035132
   110  C   -0.007500
   111  N   -0.323952
   112  C    0.077696
   113  C   -0.163430
   114  C    0.002505
   115  C    0.095408
   116  C    0.130873
   117  C    0.042504
   118  O   -0.188772
   119  C    0.000619
   120  C    0.211159
   121  O   -0.251244
   122  O   -0.305882
   123  C    0.152177
   124  H   -0.015544
   125  H   -0.016303
   126  H   -0.042472
   127  H   -0.002225
   128  H   -0.004769
   129  H    0.024703
   130  H    0.017693
   131  H    0.014723
   132  H    0.014060
   133  H    0.037214
   134  H    0.019449
   135  H    0.019732
   136  H    0.009743
   137  H    0.034515
   138  H    0.038028
   139  H    0.041721
   140  H    0.034601
   141  H    0.033066
   142  H    0.013919
   143  H    0.009644
   144  H    0.023613
   145  H    0.013722
   146  H    0.002395
   147  H    0.004776
   148  H    0.002744
   149  H    0.010656
   150  H    0.017352
   151  H    0.031109
   152  H    0.045239
   153  H    0.006618
   154  H    0.048204
   155  H    0.034884
   156  H    0.043292
   157  H    0.049170
   158  H    0.053438
 Sum of Mulliken charges =  -0.00000

 Dipole moment (field-independent basis, Debye):
    X=              5.0651    Y=              0.0096    Z=              0.6704  Tot=              5.1093
 Quadrupole moment (field-independent basis, Debye-Ang):
   XX=           -531.7696   YY=           -527.9160   ZZ=           -460.6883
   XY=            -17.7590   XZ=             49.7671   YZ=             16.9168

 Normal termination of Gaussian 16 at Fri Sep  3 12:55:54 2021.
