 Gaussian 16, Revision A.03,
 Gaussian 16:  ES64L-G16RevA.03 25-Dec-2016

 -----------------------------------
 #p cam-b3lyp/Def2SVP td=(nstates=5)
 -----------------------------------

 --------------------------------
 TDDFT excited states in gaussian
 --------------------------------
 Symbolic Z-matrix:
 Charge =  0 Multiplicity = 1

                         Standard orientation:
 ---------------------------------------------------------------------
 Center     Atomic      Atomic             Coordinates (Angstroms)
 Number     Number       Type             X           Y           Z
 ---------------------------------------------------------------------
      1         12           0        6.749847    0.304406    0.015901
      2          6           0        6.714549   -3.260095   -0.308593
      3          6           0        7.559965    0.448930   -3.295577
      4          6           0        7.231825    3.417417    0.381252
      5          6           0        7.061071   -0.159490    3.455901
      6          7           0        7.066787   -1.274208   -1.503366
      7          6           0        6.964381   -2.599568   -1.513554
      8          6           0        7.072602   -3.216642   -2.940047
      9          6           0        7.886287   -2.048808   -3.658433
     10          6           0        7.452223   -0.880841   -2.790468
     11          6           0        9.399703   -2.205129   -3.550561
     12          6           0        5.670437   -3.429939   -3.603500
     13          6           0        5.665745   -4.320627   -4.849296
     14          1           0        4.525614   -5.194552   -5.081044
     15          7           0        6.832660    1.753952   -1.323804
     16          6           0        7.164655    1.630217   -2.631380
     17          6           0        7.079537    2.990920   -3.204026
     18          6           0        6.855992    3.943839   -2.081498
     19          6           0        6.992472    3.068190   -0.945720
     20          6           0        7.158483    3.271732   -4.673265
     21          6           0        6.575863    5.412796   -2.038787
     22          8           0        6.645157    6.087198   -0.954834
     23          6           0        6.301121    6.067011   -3.330902
     24          7           0        7.317418    1.471195    1.651169
     25          6           0        7.396002    2.802915    1.554572
     26          6           0        7.540193    3.440720    2.904517
     27          6           0        7.298996    2.277204    3.971198
     28          6           0        7.129364    1.090110    2.991247
     29          6           0        8.889009    4.117851    3.184158
     30          6           0        6.200088    2.516826    5.036750
     31          6           0        4.840514    2.542879    4.374950
     32          7           0        6.692080   -1.382329    1.380684
     33          6           0        6.867395   -1.347827    2.771637
     34          6           0        6.852224   -2.744596    3.243733
     35          6           0        6.684644   -3.500396    2.085057
     36          6           0        6.626784   -2.632277    0.957532
     37          6           0        7.041336   -3.172174    4.587551
     38          6           0        6.565705   -4.840804    1.534589
     39          8           0        6.454282   -5.969212    2.016018
     40          6           0        6.702545   -4.746054   -0.049116
     41          6           0        5.586701   -5.555957   -0.650996
     42          8           0        4.397365   -5.199906   -0.524211
     43          8           0        6.102998   -6.481091   -1.474467
     44          6           0        5.047161   -7.300137   -2.127558
     45          1           0        8.043968    0.609245   -4.260968
     46          1           0        7.293551    4.491968    0.565557
     47          1           0        7.067958   -0.377014    4.525522
     48          1           0        7.636020   -4.148538   -2.990579
     49          1           0        7.559540   -1.898401   -4.687188
     50          1           0        9.669080   -3.025877   -2.885933
     51          1           0        9.762492   -1.257582   -3.151775
     52          1           0        9.850024   -2.306567   -4.538336
     53          1           0        5.335277   -2.491484   -4.045123
     54          1           0        4.955886   -3.820724   -2.878222
     55          1           0        6.598847   -4.876509   -4.945344
     56          1           0        5.641867   -3.677355   -5.728972
     57          1           0        7.490715    2.396976   -5.230911
     58          1           0        7.954144    4.002779   -4.815403
     59          1           0        6.221679    3.666850   -5.066472
     60          1           0        7.155240    5.927249   -3.993847
     61          1           0        6.035584    7.097124   -3.095939
     62          1           0        5.457813    5.566629   -3.807764
     63          1           0        6.793174    4.219830    3.050720
     64          1           0        8.194734    2.066166    4.555826
     65          1           0        8.802776    5.170575    3.454420
     66          1           0        9.518955    3.990328    2.304274
     67          1           0        9.491515    3.636002    3.953721
     68          1           0        6.341831    3.484602    5.516609
     69          1           0        6.186193    1.757686    5.818903
     70          1           0        4.761702    3.570186    4.021029
     71          1           0        4.059154    2.319432    5.102108
     72          1           0        4.811291    1.893562    3.499724
     73          1           0        6.295326   -3.945725    4.769367
     74          1           0        6.930694   -2.343133    5.286158
     75          1           0        8.064815   -3.543660    4.539119
     76          1           0        7.683019   -5.147341   -0.303598
     77          1           0        5.265617   -8.344096   -1.902480
     78          1           0        5.027776   -7.001901   -3.175930
     79          1           0        4.041452   -7.207020   -1.716197
     80         12           0       -6.458170    1.161095    0.317303
     81          6           0       -7.893573   -2.127360    0.248174
     82          6           0       -7.065319    1.334185   -3.034711
     83          6           0       -4.799095    3.865027    0.257091
     84          6           0       -4.958018    0.291713    3.340453
     85          7           0       -7.367658   -0.275092   -1.097780
     86          6           0       -7.932665   -1.468945   -0.998588
     87          6           0       -8.646524   -1.951956   -2.289586
     88          6           0       -7.831081   -1.073441   -3.358295
     89          6           0       -7.421046    0.089320   -2.456886
     90          6           0       -6.569777   -1.755792   -3.861134
     91          6           0      -10.174143   -1.593744   -2.297588
     92          6           0      -10.994903   -2.301187   -3.378160
     93          1           0      -12.366246   -2.693641   -3.065305
     94          7           0       -6.422849    2.616393   -1.031561
     95          6           0       -6.720765    2.516799   -2.344043
     96          6           0       -6.521430    3.862053   -2.905044
     97          6           0       -5.923216    4.725868   -1.851159
     98          6           0       -5.667012    3.742306   -0.818183
     99          6           0       -6.961080    4.239537   -4.289834
    100          6           0       -5.618839    6.192040   -1.788872
    101          8           0       -4.880271    6.687809   -0.866078
    102          6           0       -6.133685    7.015945   -2.892327
    103          7           0       -4.911136    1.892666    1.497899
    104          6           0       -4.404199    3.120582    1.290140
    105          6           0       -3.499583    3.536534    2.425502
    106          6           0       -3.695954    2.426619    3.560010
    107          6           0       -4.654684    1.471207    2.816094
    108          6           0       -2.014754    3.656824    2.083172
    109          6           0       -4.101685    2.928521    4.972874
    110          6           0       -5.500148    3.501468    4.935142
    111          7           0       -6.558362   -0.513879    1.678373
    112          6           0       -5.826953   -0.686396    2.873923
    113          6           0       -6.149400   -2.032070    3.391242
    114          6           0       -7.035304   -2.562194    2.441175
    115          6           0       -7.234102   -1.621703    1.394533
    116          6           0       -5.605836   -2.623906    4.566140
    117          6           0       -7.839206   -3.707697    2.080273
    118          8           0       -8.134175   -4.769220    2.627916
    119          6           0       -8.332046   -3.526728    0.580016
    120          6           0       -9.804938   -3.828594    0.535353
    121          8           0      -10.617928   -3.099156    1.129962
    122          8           0      -10.029411   -4.794359   -0.374204
    123          6           0      -11.477631   -5.120868   -0.462913
    124          1           0       -7.002662    1.402902   -4.121101
    125          1           0       -4.285850    4.825715    0.341492
    126          1           0       -4.607270   -0.015737    4.327939
    127          1           0       -8.527475   -3.006628   -2.507012
    128          1           0       -8.478084   -0.725213   -4.159234
    129          1           0       -6.366821   -2.671852   -3.326537
    130          1           0       -5.769370   -1.043606   -3.708873
    131          1           0       -6.631581   -1.913235   -4.941749
    132          1           0      -10.295946   -0.551974   -2.621040
    133          1           0      -10.612633   -1.773290   -1.335244
    134          1           0      -10.448625   -3.138955   -3.828346
    135          1           0      -11.149971   -1.606084   -4.206901
    136          1           0       -7.217080    3.354825   -4.885776
    137          1           0       -6.088846    4.665716   -4.797211
    138          1           0       -7.765637    4.978028   -4.289684
    139          1           0       -5.736043    6.646743   -3.834687
    140          1           0       -5.891891    8.046460   -2.625056
    141          1           0       -7.221649    6.895226   -2.940972
    142          1           0       -3.794711    4.500297    2.821930
    143          1           0       -2.769545    1.862577    3.742922
    144          1           0       -1.596057    4.657281    2.301903
    145          1           0       -1.884425    3.410317    1.037808
    146          1           0       -1.367486    2.931957    2.573900
    147          1           0       -3.442272    3.740034    5.290306
    148          1           0       -4.054072    2.158003    5.735122
    149          1           0       -5.338725    4.523102    4.578362
    150          1           0       -5.943375    3.495843    5.928904
    151          1           0       -6.116816    2.985648    4.189955
    152          1           0       -6.427668   -3.101182    5.083138
    153          1           0       -5.116412   -1.882850    5.194686
    154          1           0       -4.890945   -3.320831    4.120620
    155          1           0       -7.754394   -4.213650   -0.039683
    156          1           0      -11.573904   -6.196781   -0.287356
    157          1           0      -11.810202   -4.739253   -1.446538
    158          1           0      -12.129326   -4.722014    0.305630
 ---------------------------------------------------------------------

 SCF Done:  E(RCAM-B3LYP) =  -4069.81166791     A.U. after   19 cycles

 Excitation energies and oscillator strengths:

 Excited State   1:      Singlet-A      1.6654 eV  744.48 nm  f=0.0080  <S**2>=0.000
     309 -> 315       -0.10888
     310 -> 316        0.13234
     311 -> 313       -0.43485
     312 -> 314        0.53137
 This state for optimization and/or second-order correction.
 Total Energy, E(TD-HF/TD-DFT) =  -4069.75046672
 Copying the excited state density for this state as the 1-particle RhoCI density.

 Excited State   2:      Singlet-A      1.6895 eV  733.87 nm  f=0.7353  <S**2>=0.000
     309 -> 315        0.13783
     310 -> 316        0.11218
     311 -> 313        0.53018
     312 -> 314        0.43394

 Excited State   3:      Singlet-A      2.1848 eV  567.49 nm  f=0.0571  <S**2>=0.000
     309 -> 313       -0.17610
     310 -> 314        0.61845
     312 -> 316       -0.26182

 Excited State   4:      Singlet-A      2.1936 eV  565.22 nm  f=0.1350  <S**2>=0.000
     309 -> 313        0.61609
     310 -> 314        0.17440
     311 -> 315       -0.26842

 Excited State   5:      Singlet-A      2.6561 eV  466.80 nm  f=0.0000  <S**2>=0.000
     312 -> 313        0.70703

 The electronic state is 1-A.
 Alpha  occ. eigenvalues --  -46.87826 -46.87550 -19.26299 -19.26258 -19.19067
 Alpha  occ. eigenvalues --  -19.19037 -19.18824 -19.18626 -19.18187 -19.17935
 Alpha  occ. eigenvalues --  -14.42479 -14.42390 -14.41480 -14.41246 -14.39430
 Alpha  occ. eigenvalues --  -14.39245 -14.38616 -14.38486 -10.39097 -10.38995
 Alpha  occ. eigenvalues --  -10.35456 -10.35306 -10.34408 -10.34113 -10.31690
 Alpha  occ. eigenvalues --  -10.31676 -10.31435 -10.31199 -10.30935 -10.30925
 Alpha  occ. eigenvalues --  -10.30599 -10.30534 -10.30284 -10.30248 -10.30238
 Alpha  occ. eigenvalues --  -10.30032 -10.29951 -10.29774 -10.29656 -10.29330
 Alpha  occ. eigenvalues --  -10.29292 -10.29280 -10.28779 -10.28629 -10.28589
 Alpha  occ. eigenvalues --  -10.28578 -10.28390 -10.28298 -10.28147 -10.28049
 Alpha  occ. eigenvalues --  -10.27889 -10.27817 -10.27756 -10.27608 -10.27565
 Alpha  occ. eigenvalues --  -10.27542 -10.27506 -10.27484 -10.27430 -10.27398
 Alpha  occ. eigenvalues --  -10.27397 -10.27375 -10.27363 -10.27252 -10.27178
 Alpha  occ. eigenvalues --  -10.26939 -10.26741 -10.26615 -10.26408 -10.26353
 Alpha  occ. eigenvalues --  -10.26261 -10.26246 -10.26052 -10.26035 -10.25931
 Alpha  occ. eigenvalues --  -10.25868 -10.25818 -10.25695 -10.25461 -10.25253
 Alpha  occ. eigenvalues --  -10.24857 -10.24815 -10.24775 -10.24758 -10.24637
 Alpha  occ. eigenvalues --  -10.24578  -3.16569  -3.16300  -1.91451  -1.91182
 Alpha  occ. eigenvalues --   -1.91037  -1.90879  -1.90771  -1.90608  -1.16648
 Alpha  occ. eigenvalues --   -1.16552  -1.08644  -1.08542  -1.07224  -1.06880
 Alpha  occ. eigenvalues --   -1.06851  -1.06659  -1.04609  -1.04389  -1.03790
 Alpha  occ. eigenvalues --   -1.03554  -1.03262  -1.02926  -1.02440  -1.01999
 Alpha  occ. eigenvalues --   -0.91997  -0.91877  -0.89558  -0.89383  -0.89219
 Alpha  occ. eigenvalues --   -0.89058  -0.88324  -0.88106  -0.87896  -0.87703
 Alpha  occ. eigenvalues --   -0.87669  -0.87578  -0.87294  -0.87030  -0.85011
 Alpha  occ. eigenvalues --   -0.84905  -0.83977  -0.83763  -0.82986  -0.82845
 Alpha  occ. eigenvalues --   -0.82674  -0.82560  -0.81609  -0.81495  -0.80620
 Alpha  occ. eigenvalues --   -0.80342  -0.78821  -0.78534  -0.77251  -0.77044
 Alpha  occ. eigenvalues --   -0.76965  -0.76798  -0.75949  -0.75740  -0.74930
 Alpha  occ. eigenvalues --   -0.74687  -0.72803  -0.72586  -0.71700  -0.71471
 Alpha  occ. eigenvalues --   -0.69957  -0.69649  -0.68901  -0.68732  -0.67665
 Alpha  occ. eigenvalues --   -0.67496  -0.67247  -0.67114  -0.65316  -0.65175
 Alpha  occ. eigenvalues --   -0.64882  -0.64663  -0.64650  -0.64553  -0.64306
 Alpha  occ. eigenvalues --   -0.64093  -0.62320  -0.62178  -0.60466  -0.60240
 Alpha  occ. eigenvalues --   -0.59833  -0.59697  -0.59016  -0.58883  -0.58531
 Alpha  occ. eigenvalues --   -0.58318  -0.57606  -0.57446  -0.57336  -0.57129
 Alpha  occ. eigenvalues --   -0.56334  -0.56098  -0.55999  -0.55793  -0.55541
 Alpha  occ. eigenvalues --   -0.55372  -0.55357  -0.55136  -0.54554  -0.54382
 Alpha  occ. eigenvalues --   -0.53925  -0.53820  -0.53324  -0.53245  -0.53124
 Alpha  occ. eigenvalues --   -0.53046  -0.52941  -0.52805  -0.52777  -0.52587
 Alpha  occ. eigenvalues --   -0.52490  -0.52298  -0.51940  -0.51747  -0.51641
 Alpha  occ. eigenvalues --   -0.51570  -0.51225  -0.51094  -0.50590  -0.50395
 Alpha  occ. eigenvalues --   -0.50071  -0.49939  -0.49886  -0.49758  -0.49537
 Alpha  occ. eigenvalues --   -0.49396  -0.49237  -0.49123  -0.49103  -0.49000
 Alpha  occ. eigenvalues --   -0.48617  -0.48489  -0.48461  -0.48455  -0.48258
 Alpha  occ. eigenvalues --   -0.48247  -0.47722  -0.47499  -0.47321  -0.47018
 Alpha  occ. eigenvalues --   -0.46830  -0.46603  -0.46584  -0.46462  -0.46388
 Alpha  occ. eigenvalues --   -0.46190  -0.46163  -0.45968  -0.45846  -0.45709
 Alpha  occ. eigenvalues --   -0.45235  -0.45092  -0.44601  -0.44535  -0.44413
 Alpha  occ. eigenvalues --   -0.44375  -0.44179  -0.44116  -0.44040  -0.44028
 Alpha  occ. eigenvalues --   -0.43977  -0.43844  -0.43518  -0.43452  -0.43416
 Alpha  occ. eigenvalues --   -0.43282  -0.43055  -0.42833  -0.42791  -0.42728
 Alpha  occ. eigenvalues --   -0.42689  -0.42448  -0.42050  -0.41863  -0.41730
 Alpha  occ. eigenvalues --   -0.41565  -0.41560  -0.41364  -0.41168  -0.40904
 Alpha  occ. eigenvalues --   -0.40883  -0.40839  -0.40636  -0.40608  -0.40606
 Alpha  occ. eigenvalues --   -0.40383  -0.40265  -0.40146  -0.39496  -0.39318
 Alpha  occ. eigenvalues --   -0.38506  -0.38238  -0.37781  -0.37566  -0.37355
 Alpha  occ. eigenvalues --   -0.37293  -0.37157  -0.37100  -0.36736  -0.36673
 Alpha  occ. eigenvalues --   -0.36221  -0.36110  -0.34315  -0.34143  -0.33789
 Alpha  occ. eigenvalues --   -0.33765  -0.33214  -0.33065  -0.31354  -0.31184
 Alpha  occ. eigenvalues --   -0.31062  -0.30865  -0.30047  -0.29839  -0.29472
 Alpha  occ. eigenvalues --   -0.29347  -0.29224  -0.29095  -0.24109  -0.23924
 Alpha  occ. eigenvalues --   -0.21156  -0.21007
 Alpha virt. eigenvalues --   -0.08800  -0.08683  -0.01777  -0.01575  -0.00077
 Alpha virt. eigenvalues --    0.00068   0.02177   0.02323   0.03079   0.03324
 Alpha virt. eigenvalues --    0.04686   0.04833   0.05080   0.05263   0.06143

 Mulliken charges:
               1
     1  Mg   0.838501
     2  C   -0.002937
     3  C   -0.094167
     4  C   -0.045831
     5  C   -0.064084
     6  N   -0.256758
     7  C   -0.052519
     8  C   -0.013990
     9  C   -0.086990
    10  C    0.046314
    11  C    0.104794
    12  C    0.053506
    13  C   -0.071724
    14  H    0.035959
    15  N   -0.433181
    16  C    0.168452
    17  C   -0.177128
    18  C   -0.003861
    19  C    0.148710
    20  C    0.110200
    21  C    0.012529
    22  O   -0.249378
    23  C    0.062389
    24  N   -0.341093
    25  C    0.041171
    26  C   -0.028260
    27  C   -0.023922
    28  C    0.074650
    29  C    0.076119
    30  C    0.035199
    31  C   -0.004527
    32  N   -0.310457
    33  C    0.080240
    34  C   -0.169849
    35  C    0.008435
    36  C    0.082868
    37  C    0.127329
    38  C    0.046127
    39  O   -0.188197
    40  C   -0.005356
    41  C    0.212962
    42  O   -0.257146
    43  O   -0.304801
    44  C    0.157609
    45  H   -0.017595
    46  H   -0.016691
    47  H   -0.041588
    48  H    0.001023
    49  H   -0.004138
    50  H    0.025555
    51  H    0.016498
    52  H    0.016662
    53  H    0.011037
    54  H    0.044140
    55  H    0.017995
    56  H    0.017774
    57  H    0.005755
    58  H    0.026915
    59  H    0.039540
    60  H    0.037192
    61  H    0.036089
    62  H    0.031607
    63  H    0.016570
    64  H    0.009593
    65  H    0.023357
    66  H    0.012652
    67  H    0.004802
    68  H    0.006492
    69  H    0.004699
    70  H    0.008979
    71  H    0.017064
    72  H    0.028949
    73  H    0.047626
    74  H    0.008940
    75  H    0.046140
    76  H    0.035223
    77  H    0.043154
    78  H    0.046238
    79  H    0.053847
    80  Mg   0.838049
    81  C   -0.016857
    82  C   -0.087998
    83  C   -0.045588
    84  C   -0.064106
    85  N   -0.254545
    86  C   -0.049633
    87  C   -0.015099
    88  C   -0.090557
    89  C    0.045829
    90  C    0.114433
    91  C    0.062592
    92  C   -0.077732
    93  H    0.034655
    94  N   -0.423422
    95  C    0.162858
    96  C   -0.175029
    97  C   -0.008003
    98  C    0.152023
    99  C    0.099568
   100  C    0.015313
   101  O   -0.253194
   102  C    0.061296
   103  N   -0.349965
   104  C    0.037601
   105  C   -0.019926
   106  C   -0.034878
   107  C    0.089004
   108  C    0.073517
   109  C    0.034682
   110  C   -0.007610
   111  N   -0.324238
   112  C    0.078554
   113  C   -0.162566
   114  C    0.002462
   115  C    0.096328
   116  C    0.131426
   117  C    0.042725
   118  O   -0.187639
   119  C    0.000787
   120  C    0.211208
   121  O   -0.251173
   122  O   -0.305562
   123  C    0.152095
   124  H   -0.020193
   125  H   -0.015594
   126  H   -0.040088
   127  H   -0.000627
   128  H   -0.004706
   129  H    0.022893
   130  H    0.014552
   131  H    0.015684
   132  H    0.013809
   133  H    0.037667
   134  H    0.020726
   135  H    0.019364
   136  H    0.008453
   137  H    0.025504
   138  H    0.039476
   139  H    0.037834
   140  H    0.036171
   141  H    0.033782
   142  H    0.014146
   143  H    0.013126
   144  H    0.025230
   145  H    0.011741
   146  H    0.006267
   147  H    0.006016
   148  H    0.003673
   149  H    0.010819
   150  H    0.017686
   151  H    0.030101
   152  H    0.045777
   153  H    0.008461
   154  H    0.048502
   155  H    0.035409
   156  H    0.043880
   157  H    0.049298
   158  H    0.053469
 Sum of Mulliken charges =  -0.00000

 Dipole moment (field-independent basis, Debye):
    X=              2.9000    Y=              2.7912    Z=             -7.8926  Tot=              8.8597
 Quadrupole moment (field-independent basis, Debye-Ang):
   XX=           -494.5074   YY=           -560.2693   ZZ=           -446.1037
   XY=             -6.6420   XZ=             26.4079   YZ=             26.8847

 Normal termination of Gaussian 16 at Sat Sep 11 14:05:12 2021.
