 Gaussian 16, Revision A.03,
 Gaussian 16:  ES64L-G16RevA.03 25-Dec-2016

 -----------------------------------
 #p cam-b3lyp/Def2SVP td=(nstates=5)
 -----------------------------------

 --------------------------------
 TDDFT excited states in gaussian
 --------------------------------
 Symbolic Z-matrix:
 Charge =  0 Multiplicity = 1

                         Standard orientation:
 ---------------------------------------------------------------------
 Center     Atomic      Atomic             Coordinates (Angstroms)
 Number     Number       Type             X           Y           Z
 ---------------------------------------------------------------------
      1         12           0       -5.321444   -0.319041    0.288032
      2          6           0       -5.190356    3.229276    0.740223
      3          6           0       -6.308136    0.276299   -2.923677
      4          6           0       -5.881938   -3.426939   -0.000827
      5          6           0       -5.437144   -0.608786    3.759101
      6          7           0       -5.667416    1.558210   -0.833073
      7          6           0       -5.523772    2.851773   -0.562455
      8          6           0       -5.686999    3.766447   -1.813096
      9          6           0       -6.573776    2.799031   -2.718485
     10          6           0       -6.132026    1.461936   -2.150190
     11          6           0       -8.073752    2.957664   -2.491746
     12          6           0       -4.315476    4.091566   -2.494970
     13          6           0       -4.347869    5.231722   -3.516903
     14          1           0       -3.194351    6.112694   -3.620019
     15          7           0       -5.520196   -1.440447   -1.326217
     16          6           0       -5.916166   -1.028699   -2.554613
     17          6           0       -5.904297   -2.233593   -3.411800
     18          6           0       -5.652523   -3.412112   -2.536702
     19          6           0       -5.701509   -2.802085   -1.232537
     20          6           0       -6.068972   -2.186386   -4.899888
     21          6           0       -5.417191   -4.860351   -2.828857
     22          8           0       -5.450910   -5.752968   -1.914160
     23          6           0       -5.231384   -5.222977   -4.245551
     24          7           0       -5.839207   -1.802380    1.662536
     25          6           0       -5.964870   -3.079378    1.285085
     26          6           0       -6.058249   -3.992697    2.471284
     27          6           0       -5.724771   -3.094097    3.748415
     28          6           0       -5.569221   -1.725763    3.040083
     29          6           0       -7.411321   -4.687974    2.675724
     30          6           0       -4.579678   -3.581250    4.671379
     31          6           0       -3.258157   -3.489227    3.941849
     32          7           0       -5.138866    1.028857    1.979446
     33          6           0       -5.242061    0.695953    3.337827
     34          6           0       -5.157956    1.955962    4.098992
     35          6           0       -5.027474    2.942350    3.123360
     36          6           0       -5.056291    2.339410    1.833427
     37          6           0       -5.262761    2.084502    5.512119
     38          6           0       -4.895163    4.367834    2.869697
     39          8           0       -4.722994    5.362054    3.576364
     40          6           0       -5.117730    4.622646    1.313625
     41          6           0       -4.009874    5.522154    0.837338
     42          8           0       -2.827399    5.123887    0.814934
     43          8           0       -4.539061    6.614206    0.264689
     44          6           0       -3.493493    7.534951   -0.256052
     45          1           0       -6.846893    0.339370   -3.871150
     46          1           0       -5.967913   -4.514431   -0.049891
     47          1           0       -5.381084   -0.629123    4.849008
     48          1           0       -6.222502    4.697833   -1.628216
     49          1           0       -6.306310    2.869723   -3.772613
     50          1           0       -8.281811    3.619230   -1.650935
     51          1           0       -8.444966    1.953318   -2.286848
     52          1           0       -8.571775    3.280378   -3.406408
     53          1           0       -4.033798    3.265327   -3.147693
     54          1           0       -3.551887    4.301141   -1.745078
     55          1           0       -5.266654    5.813301   -3.436215
     56          1           0       -4.390498    4.794933   -4.514700
     57          1           0       -6.402105   -1.204932   -5.235024
     58          1           0       -6.893735   -2.853305   -5.150277
     59          1           0       -5.167039   -2.504699   -5.422884
     60          1           0       -6.114213   -4.925656   -4.811910
     61          1           0       -4.986649   -6.284519   -4.254625
     62          1           0       -4.398801   -4.647392   -4.651084
     63          1           0       -5.329638   -4.799390    2.402021
     64          1           0       -6.581514   -2.997871    4.415804
     65          1           0       -7.344419   -5.775759    2.706570
     66          1           0       -8.082153   -4.359771    1.882277
     67          1           0       -7.957116   -4.373446    3.564880
     68          1           0       -4.726653   -4.627294    4.938095
     69          1           0       -4.500789   -3.010908    5.596980
     70          1           0       -3.230564   -4.416249    3.370271
     71          1           0       -2.433086   -3.444663    4.653524
     72          1           0       -3.254291   -2.665724    3.227486
     73          1           0       -4.484131    2.785235    5.813248
     74          1           0       -5.141969    1.121315    6.007380
     75          1           0       -6.275096    2.477544    5.604601
     76          1           0       -6.096994    5.088763    1.209230
     77          1           0       -3.666691    8.508985    0.201654
     78          1           0       -3.538520    7.471658   -1.343421
     79          1           0       -2.471064    7.334932    0.066392
     80         12           0        5.213972   -1.243874   -0.243568
     81          6           0        6.115574    2.210459    0.122208
     82          6           0        3.586263   -0.361104   -3.108159
     83          6           0        4.027511   -4.184396   -0.357764
     84          6           0        5.906297   -1.640041    3.148990
     85          7           0        4.956215    0.704352   -1.258578
     86          6           0        5.395737    1.937894   -1.059737
     87          6           0        5.113095    2.917852   -2.229929
     88          6           0        3.853483    2.161477   -2.878092
     89          6           0        4.161743    0.737240   -2.420721
     90          6           0        2.523677    2.580048   -2.273325
     91          6           0        6.311705    3.005761   -3.238701
     92          6           0        6.232820    4.167626   -4.231476
     93          1           0        7.473422    4.823744   -4.635059
     94          7           0        4.413069   -2.247707   -1.756648
     95          6           0        3.813861   -1.730692   -2.849780
     96          6           0        3.375437   -2.883633   -3.651451
     97          6           0        3.618249   -4.122462   -2.863381
     98          6           0        4.018520   -3.552288   -1.592640
     99          6           0        2.865208   -2.750593   -5.056935
    100          6           0        3.496430   -5.579132   -3.194255
    101          8           0        3.529048   -6.481307   -2.284401
    102          6           0        3.244328   -5.912382   -4.603817
    103          7           0        4.793478   -2.652690    1.226380
    104          6           0        4.332493   -3.873499    0.902248
    105          6           0        4.365825   -4.802772    2.092089
    106          6           0        5.174621   -4.018562    3.227182
    107          6           0        5.401735   -2.677548    2.495416
    108          6           0        3.004672   -5.230256    2.640632
    109          6           0        6.403529   -4.741995    3.842895
    110          6           0        7.494253   -4.880378    2.805316
    111          7           0        6.061609   -0.022159    1.323908
    112          6           0        6.237003   -0.375133    2.679908
    113          6           0        6.743449    0.823259    3.379745
    114          6           0        6.806248    1.804642    2.379025
    115          6           0        6.350622    1.262233    1.147072
    116          6           0        7.030093    0.915162    4.770968
    117          6           0        7.144320    3.179099    2.087002
    118          8           0        7.663085    4.099019    2.718165
    119          6           0        6.592674    3.538799    0.640383
    120          6           0        7.691904    4.232356   -0.116688
    121          8           0        8.733994    3.623690   -0.416995
    122          8           0        7.244640    5.425664   -0.548356
    123          6           0        8.295782    6.146833   -1.314418
    124          1           0        2.858085   -0.157573   -3.893786
    125          1           0        3.731632   -5.236005   -0.364210
    126          1           0        6.239296   -1.709666    4.186740
    127          1           0        4.829929    3.918506   -1.926136
    128          1           0        3.869730    2.225483   -3.962993
    129          1           0        2.655362    3.232699   -1.423114
    130          1           0        2.034904    1.662259   -1.973646
    131          1           0        1.884096    3.025438   -3.040724
    132          1           0        6.256261    2.159338   -3.935287
    133          1           0        7.247826    3.039957   -2.716070
    134          1           0        5.482927    4.911672   -3.936475
    135          1           0        5.867688    3.783406   -5.187017
    136          1           0        2.643740   -1.705755   -5.307268
    137          1           0        1.891267   -3.250659   -5.092223
    138          1           0        3.527421   -3.214392   -5.791127
    139          1           0        2.324336   -5.432694   -4.929353
    140          1           0        3.277628   -7.002313   -4.656884
    141          1           0        4.051709   -5.490646   -5.212825
    142          1           0        4.893494   -5.718011    1.853302
    143          1           0        4.541898   -3.797427    4.099306
    144          1           0        2.868651   -6.328005    2.663884
    145          1           0        2.233605   -4.764153    2.041687
    146          1           0        2.773842   -4.864529    3.639718
    147          1           0        6.133101   -5.756424    4.146124
    148          1           0        6.806354   -4.241204    4.716931
    149          1           0        7.197066   -5.776831    2.252923
    150          1           0        8.462711   -5.014093    3.283076
    151          1           0        7.477718   -4.039414    2.102360
    152          1           0        7.968354    1.446244    4.861120
    153          1           0        7.083570   -0.069013    5.231742
    154          1           0        6.159541    1.481536    5.112470
    155          1           0        5.719594    4.178979    0.772568
    156          1           0        8.425697    7.123147   -0.837328
    157          1           0        7.954921    6.141822   -2.366811
    158          1           0        9.305130    5.754584   -1.271730
 ---------------------------------------------------------------------

 SCF Done:  E(RCAM-B3LYP) =  -4069.81147828     A.U. after   19 cycles

 Excitation energies and oscillator strengths:

 Excited State   1:      Singlet-A      1.6564 eV  748.51 nm  f=0.0242  <S**2>=0.000
     309 -> 315       -0.11298
     310 -> 316        0.12569
     311 -> 313       -0.45742
     312 -> 314        0.51283
 This state for optimization and/or second-order correction.
 Total Energy, E(TD-HF/TD-DFT) =  -4069.75060600
 Copying the excited state density for this state as the 1-particle RhoCI density.

 Excited State   2:      Singlet-A      1.6962 eV  730.93 nm  f=0.7014  <S**2>=0.000
     309 -> 315        0.13451
     310 -> 316        0.11885
     311 -> 313        0.51088
     312 -> 314        0.45574

 Excited State   3:      Singlet-A      2.1823 eV  568.13 nm  f=0.0236  <S**2>=0.000
     309 -> 313       -0.26750
     310 -> 314        0.58612
     311 -> 315        0.11136
     312 -> 316       -0.24546

 Excited State   4:      Singlet-A      2.1946 eV  564.96 nm  f=0.1578  <S**2>=0.000
     309 -> 313        0.58225
     310 -> 314        0.26426
     311 -> 315       -0.25536
     312 -> 316       -0.11672

 Excited State   5:      Singlet-A      2.4718 eV  501.60 nm  f=0.0000  <S**2>=0.000
     312 -> 313        0.70705

 The electronic state is 1-A.
 Alpha  occ. eigenvalues --  -46.87922 -46.87499 -19.26432 -19.26197 -19.19171
 Alpha  occ. eigenvalues --  -19.19009 -19.18918 -19.18591 -19.18282 -19.17880
 Alpha  occ. eigenvalues --  -14.42583 -14.42330 -14.41568 -14.41202 -14.39528
 Alpha  occ. eigenvalues --  -14.39197 -14.38709 -14.38436 -10.39228 -10.38934
 Alpha  occ. eigenvalues --  -10.35553 -10.35273 -10.34504 -10.34054 -10.31831
 Alpha  occ. eigenvalues --  -10.31625 -10.31540 -10.31134 -10.31052 -10.30863
 Alpha  occ. eigenvalues --  -10.30697 -10.30622 -10.30322 -10.30239 -10.30201
 Alpha  occ. eigenvalues --  -10.30026 -10.29999 -10.29751 -10.29734 -10.29377
 Alpha  occ. eigenvalues --  -10.29289 -10.29254 -10.28925 -10.28788 -10.28550
 Alpha  occ. eigenvalues --  -10.28538 -10.28493 -10.28277 -10.28245 -10.27936
 Alpha  occ. eigenvalues --  -10.27913 -10.27860 -10.27846 -10.27708 -10.27645
 Alpha  occ. eigenvalues --  -10.27591 -10.27533 -10.27531 -10.27512 -10.27407
 Alpha  occ. eigenvalues --  -10.27390 -10.27325 -10.27319 -10.27286 -10.27241
 Alpha  occ. eigenvalues --  -10.26938 -10.26863 -10.26557 -10.26536 -10.26374
 Alpha  occ. eigenvalues --  -10.26340 -10.26264 -10.26136 -10.26029 -10.25934
 Alpha  occ. eigenvalues --  -10.25784 -10.25716 -10.25683 -10.25506 -10.25264
 Alpha  occ. eigenvalues --  -10.24952 -10.24900 -10.24764 -10.24711 -10.24627
 Alpha  occ. eigenvalues --  -10.24533  -3.16665  -3.16249  -1.91547  -1.91133
 Alpha  occ. eigenvalues --   -1.91131  -1.90975  -1.90720  -1.90557  -1.16781
 Alpha  occ. eigenvalues --   -1.16491  -1.08740  -1.08484  -1.07316  -1.06844
 Alpha  occ. eigenvalues --   -1.06793  -1.06791  -1.04715  -1.04328  -1.03881
 Alpha  occ. eigenvalues --   -1.03504  -1.03355  -1.02883  -1.02532  -1.01952
 Alpha  occ. eigenvalues --   -0.92099  -0.91819  -0.89625  -0.89353  -0.89351
 Alpha  occ. eigenvalues --   -0.88965  -0.88388  -0.88081  -0.87984  -0.87811
 Alpha  occ. eigenvalues --   -0.87632  -0.87529  -0.87404  -0.87004  -0.85141
 Alpha  occ. eigenvalues --   -0.84835  -0.84034  -0.83742  -0.83086  -0.82824
 Alpha  occ. eigenvalues --   -0.82793  -0.82498  -0.81721  -0.81443  -0.80728
 Alpha  occ. eigenvalues --   -0.80293  -0.78925  -0.78502  -0.77351  -0.77077
 Alpha  occ. eigenvalues --   -0.76994  -0.76742  -0.76063  -0.75664  -0.75002
 Alpha  occ. eigenvalues --   -0.74659  -0.72894  -0.72543  -0.71795  -0.71412
 Alpha  occ. eigenvalues --   -0.70001  -0.69629  -0.69022  -0.68668  -0.67766
 Alpha  occ. eigenvalues --   -0.67454  -0.67390  -0.67067  -0.65441  -0.65107
 Alpha  occ. eigenvalues --   -0.64980  -0.64753  -0.64615  -0.64498  -0.64377
 Alpha  occ. eigenvalues --   -0.64062  -0.62430  -0.62128  -0.60562  -0.60211
 Alpha  occ. eigenvalues --   -0.59954  -0.59622  -0.59109  -0.58837  -0.58626
 Alpha  occ. eigenvalues --   -0.58272  -0.57714  -0.57424  -0.57387  -0.57093
 Alpha  occ. eigenvalues --   -0.56435  -0.56125  -0.56058  -0.55740  -0.55646
 Alpha  occ. eigenvalues --   -0.55448  -0.55313  -0.55103  -0.54641  -0.54346
 Alpha  occ. eigenvalues --   -0.54061  -0.53736  -0.53421  -0.53367  -0.53087
 Alpha  occ. eigenvalues --   -0.53049  -0.52993  -0.52900  -0.52754  -0.52543
 Alpha  occ. eigenvalues --   -0.52531  -0.52279  -0.52020  -0.51776  -0.51719
 Alpha  occ. eigenvalues --   -0.51510  -0.51319  -0.51047  -0.50710  -0.50378
 Alpha  occ. eigenvalues --   -0.50142  -0.50046  -0.49828  -0.49732  -0.49655
 Alpha  occ. eigenvalues --   -0.49345  -0.49340  -0.49240  -0.49044  -0.48918
 Alpha  occ. eigenvalues --   -0.48724  -0.48568  -0.48560  -0.48395  -0.48238
 Alpha  occ. eigenvalues --   -0.48206  -0.47828  -0.47452  -0.47421  -0.46989
 Alpha  occ. eigenvalues --   -0.46922  -0.46716  -0.46560  -0.46479  -0.46393
 Alpha  occ. eigenvalues --   -0.46277  -0.46131  -0.45947  -0.45935  -0.45660
 Alpha  occ. eigenvalues --   -0.45303  -0.45064  -0.44703  -0.44643  -0.44358
 Alpha  occ. eigenvalues --   -0.44320  -0.44262  -0.44234  -0.44146  -0.43952
 Alpha  occ. eigenvalues --   -0.43948  -0.43800  -0.43623  -0.43521  -0.43403
 Alpha  occ. eigenvalues --   -0.43226  -0.43149  -0.42831  -0.42781  -0.42761
 Alpha  occ. eigenvalues --   -0.42742  -0.42420  -0.42130  -0.41828  -0.41824
 Alpha  occ. eigenvalues --   -0.41689  -0.41504  -0.41307  -0.41268  -0.41016
 Alpha  occ. eigenvalues --   -0.40952  -0.40817  -0.40678  -0.40594  -0.40549
 Alpha  occ. eigenvalues --   -0.40430  -0.40345  -0.40087  -0.39533  -0.39301
 Alpha  occ. eigenvalues --   -0.38582  -0.38208  -0.37932  -0.37512  -0.37433
 Alpha  occ. eigenvalues --   -0.37419  -0.37120  -0.37040  -0.36848  -0.36623
 Alpha  occ. eigenvalues --   -0.36320  -0.36068  -0.34410  -0.34093  -0.33917
 Alpha  occ. eigenvalues --   -0.33708  -0.33311  -0.33019  -0.31447  -0.31159
 Alpha  occ. eigenvalues --   -0.31148  -0.30812  -0.30142  -0.29782  -0.29571
 Alpha  occ. eigenvalues --   -0.29440  -0.29184  -0.29049  -0.24205  -0.23873
 Alpha  occ. eigenvalues --   -0.21252  -0.20960
 Alpha virt. eigenvalues --   -0.08897  -0.08637  -0.01870  -0.01529  -0.00182
 Alpha virt. eigenvalues --    0.00116   0.02087   0.02371   0.02971   0.03373
 Alpha virt. eigenvalues --    0.04567   0.04894   0.04953   0.05323   0.05980

 Mulliken charges:
               1
     1  Mg   0.838481
     2  C   -0.003308
     3  C   -0.095071
     4  C   -0.045310
     5  C   -0.063667
     6  N   -0.256732
     7  C   -0.052783
     8  C   -0.013841
     9  C   -0.086864
    10  C    0.045995
    11  C    0.104778
    12  C    0.053794
    13  C   -0.071396
    14  H    0.034738
    15  N   -0.433144
    16  C    0.168167
    17  C   -0.177825
    18  C   -0.003947
    19  C    0.148776
    20  C    0.110333
    21  C    0.012643
    22  O   -0.248558
    23  C    0.062675
    24  N   -0.341099
    25  C    0.041182
    26  C   -0.028331
    27  C   -0.024060
    28  C    0.074899
    29  C    0.076042
    30  C    0.035038
    31  C   -0.004583
    32  N   -0.310527
    33  C    0.080494
    34  C   -0.169390
    35  C    0.008546
    36  C    0.083033
    37  C    0.127243
    38  C    0.046313
    39  O   -0.187845
    40  C   -0.005442
    41  C    0.213101
    42  O   -0.257679
    43  O   -0.304632
    44  C    0.157599
    45  H   -0.017734
    46  H   -0.016256
    47  H   -0.041144
    48  H    0.001263
    49  H   -0.004672
    50  H    0.025723
    51  H    0.016752
    52  H    0.016695
    53  H    0.009778
    54  H    0.043587
    55  H    0.018783
    56  H    0.017411
    57  H    0.005547
    58  H    0.027242
    59  H    0.038067
    60  H    0.037309
    61  H    0.036490
    62  H    0.029924
    63  H    0.017187
    64  H    0.009670
    65  H    0.023639
    66  H    0.012510
    67  H    0.004885
    68  H    0.006678
    69  H    0.004712
    70  H    0.009612
    71  H    0.017569
    72  H    0.028972
    73  H    0.048004
    74  H    0.009288
    75  H    0.046257
    76  H    0.035374
    77  H    0.043661
    78  H    0.045862
    79  H    0.053517
    80  Mg   0.838382
    81  C   -0.016571
    82  C   -0.087817
    83  C   -0.045405
    84  C   -0.064715
    85  N   -0.254655
    86  C   -0.048745
    87  C   -0.015163
    88  C   -0.090935
    89  C    0.046365
    90  C    0.114777
    91  C    0.062616
    92  C   -0.077439
    93  H    0.034171
    94  N   -0.423456
    95  C    0.163008
    96  C   -0.175115
    97  C   -0.007874
    98  C    0.151974
    99  C    0.099850
   100  C    0.015570
   101  O   -0.252986
   102  C    0.061423
   103  N   -0.349918
   104  C    0.037452
   105  C   -0.019798
   106  C   -0.034809
   107  C    0.089063
   108  C    0.073730
   109  C    0.034808
   110  C   -0.007604
   111  N   -0.324264
   112  C    0.078875
   113  C   -0.162792
   114  C    0.002795
   115  C    0.096351
   116  C    0.131277
   117  C    0.042878
   118  O   -0.187642
   119  C    0.000650
   120  C    0.211042
   121  O   -0.251476
   122  O   -0.305219
   123  C    0.152222
   124  H   -0.020620
   125  H   -0.015606
   126  H   -0.040652
   127  H    0.000086
   128  H   -0.005756
   129  H    0.026116
   130  H    0.015190
   131  H    0.015099
   132  H    0.013444
   133  H    0.037493
   134  H    0.020893
   135  H    0.018883
   136  H    0.007917
   137  H    0.024522
   138  H    0.039158
   139  H    0.037303
   140  H    0.036227
   141  H    0.033512
   142  H    0.014110
   143  H    0.012279
   144  H    0.024851
   145  H    0.012445
   146  H    0.004970
   147  H    0.005897
   148  H    0.003510
   149  H    0.010802
   150  H    0.017638
   151  H    0.030253
   152  H    0.045736
   153  H    0.008082
   154  H    0.048128
   155  H    0.036978
   156  H    0.043847
   157  H    0.049141
   158  H    0.053242
 Sum of Mulliken charges =  -0.00000

 Dipole moment (field-independent basis, Debye):
    X=             -5.5784    Y=             -0.8993    Z=             -6.6754  Tot=              8.7458
 Quadrupole moment (field-independent basis, Debye-Ang):
   XX=           -532.4863   YY=           -539.5750   ZZ=           -456.0996
   XY=            -14.2590   XZ=              5.6240   YZ=            -53.1686

 Normal termination of Gaussian 16 at Fri Sep 10 14:00:25 2021.
