 Gaussian 16, Revision A.03,
 Gaussian 16:  ES64L-G16RevA.03 25-Dec-2016

 -----------------------------------
 #p cam-b3lyp/Def2SVP td=(nstates=5)
 -----------------------------------

 --------------------------------
 TDDFT excited states in gaussian
 --------------------------------
 Symbolic Z-matrix:
 Charge =  0 Multiplicity = 1

                         Standard orientation:
 ---------------------------------------------------------------------
 Center     Atomic      Atomic             Coordinates (Angstroms)
 Number     Number       Type             X           Y           Z
 ---------------------------------------------------------------------
      1         12           0       -7.848661    0.685277    0.330986
      2          6           0       -8.151166   -2.334314   -1.567112
      3          6           0       -8.584263   -1.160525    3.104967
      4          6           0       -8.034866    3.402043    1.956142
      5          6           0       -8.261978    2.430659   -2.657069
      6          7           0       -8.290050   -1.466496    0.606114
      7          6           0       -8.315566   -2.527972   -0.193753
      8          6           0       -8.458247   -3.876430    0.573501
      9          6           0       -9.143288   -3.335616    1.907756
     10          6           0       -8.613719   -1.912498    1.893067
     11          6           0      -10.666349   -3.293697    1.836828
     12          6           0       -7.071976   -4.541251    0.870143
     13          6           0       -7.131724   -6.003750    1.320566
     14          1           0       -6.077231   -6.911379    0.894417
     15          7           0       -7.768568    1.022854    2.275845
     16          6           0       -8.088489    0.151783    3.262846
     17          6           0       -7.862962    0.874417    4.533129
     18          6           0       -7.567968    2.296110    4.201677
     19          6           0       -7.807555    2.303037    2.781139
     20          6           0       -7.889328    0.208365    5.874557
     21          6           0       -7.148481    3.465691    5.034889
     22          8           0       -7.171078    4.662937    4.586932
     23          6           0       -6.789938    3.179384    6.435787
     24          7           0       -8.329182    2.640227   -0.221198
     25          6           0       -8.277517    3.640226    0.665547
     26          6           0       -8.382730    4.975214   -0.010232
     27          6           0       -8.272983    4.687433   -1.577041
     28          6           0       -8.201674    3.141201   -1.528548
     29          6           0       -9.664677    5.770067    0.274080
     30          6           0       -7.174522    5.452344   -2.357242
     31          6           0       -5.807621    4.980696   -1.914264
     32          7           0       -7.976946    0.176960   -1.775243
     33          6           0       -8.171924    1.061657   -2.845743
     34          6           0       -8.299392    0.242721   -4.065237
     35          6           0       -8.185539   -1.070851   -3.614226
     36          6           0       -8.025061   -1.073522   -2.199118
     37          6           0       -8.551783    0.734108   -5.376447
     38          6           0       -8.186796   -2.473862   -3.995562
     39          8           0       -8.192796   -3.081177   -5.067301
     40          6           0       -8.286732   -3.352891   -2.671497
     41          6           0       -7.243905   -4.433337   -2.763456
     42          8           0       -6.028161   -4.153143   -2.734762
     43          8           0       -7.832695   -5.631857   -2.631471
     44          6           0       -6.849591   -6.746712   -2.683980
     45          1           0       -9.033976   -1.588759    4.002917
     46          1           0       -7.995995    4.368291    2.463383
     47          1           0       -8.308096    2.909448   -3.636910
     48          1           0       -9.107822   -4.607172    0.091326
     49          1           0       -8.786006   -3.863785    2.791560
     50          1           0      -11.024840   -3.521056    0.832979
     51          1           0      -10.942999   -2.277610    2.118829
     52          1           0      -11.107359   -3.944845    2.592006
     53          1           0       -6.640503   -4.089512    1.763353
     54          1           0       -6.410897   -4.456587    0.006933
     55          1           0       -8.112229   -6.440273    1.128297
     56          1           0       -7.030959   -6.031342    2.405593
     57          1           0       -8.294638   -0.800816    5.812720
     58          1           0       -8.608355    0.752846    6.486316
     59          1           0       -6.912237    0.219951    6.357767
     60          1           0       -7.642064    2.722120    6.939116
     61          1           0       -6.430518    4.119657    6.852385
     62          1           0       -5.990680    2.437832    6.451216
     63          1           0       -7.566783    5.631129    0.290485
     64          1           0       -9.194760    4.935163   -2.103948
     65          1           0       -9.482129    6.761540    0.689246
     66          1           0      -10.288811    5.175756    0.940821
     67          1           0      -10.323868    5.896635   -0.584328
     68          1           0       -7.230627    6.519129   -2.143306
     69          1           0       -7.247181    5.326473   -3.437579
     70          1           0       -5.624215    5.572995   -1.018510
     71          1           0       -5.063974    5.194473   -2.682704
     72          1           0       -5.826064    3.932867   -1.613929
     73          1           0       -7.886940    0.183409   -6.041792
     74          1           0       -8.373816    1.807479   -5.438126
     75          1           0       -9.605293    0.478389   -5.488610
     76          1           0       -9.296784   -3.760322   -2.641222
     77          1           0       -7.171367   -7.421306   -3.477464
     78          1           0       -6.783628   -7.149554   -1.673153
     79          1           0       -5.846783   -6.489351   -3.026734
     80         12           0        8.013430    0.673618   -0.474595
     81          6           0        7.885043   -2.549745    1.097811
     82          6           0        7.292527    2.023674    2.573722
     83          6           0        7.674621    3.483086   -1.909695
     84          6           0        7.587986   -0.952714   -3.527421
     85          7           0        7.657756   -0.247190    1.504760
     86          6           0        7.695769   -1.477359    1.994240
     87          6           0        7.601251   -1.557114    3.541582
     88          6           0        6.855353   -0.160379    3.809252
     89          6           0        7.320904    0.606181    2.572997
     90          6           0        5.340298   -0.268439    3.761780
     91          6           0        9.012945   -1.594706    4.225501
     92          6           0        9.000267   -1.982499    5.705774
     93          1           0       10.109344   -2.776885    6.226707
     94          7           0        8.037236    2.510481    0.276358
     95          6           0        7.739079    2.876657    1.540598
     96          6           0        7.887181    4.339733    1.581227
     97          6           0        8.136783    4.824567    0.196552
     98          6           0        7.934119    3.600332   -0.551951
     99          6           0        7.867551    5.124350    2.860835
    100          6           0        8.485925    6.170453   -0.362815
    101          8           0        8.422592    6.414396   -1.619527
    102          6           0        8.813925    7.220686    0.612333
    103          7           0        7.468885    1.213161   -2.407136
    104          6           0        7.450785    2.503270   -2.785580
    105          6           0        7.299666    2.630501   -4.282703
    106          6           0        7.463608    1.147591   -4.858616
    107          6           0        7.598133    0.373211   -3.529097
    108          6           0        5.977153    3.222079   -4.769925
    109          6           0        8.545915    0.932850   -5.951856
    110          6           0        9.923230    1.127720   -5.359892
    111          7           0        7.961682   -1.378010   -1.150022
    112          6           0        7.745901   -1.836971   -2.467929
    113          6           0        7.683375   -3.311832   -2.410566
    114          6           0        7.845412   -3.609879   -1.049161
    115          6           0        7.977943   -2.404903   -0.307584
    116          6           0        7.450653   -4.178210   -3.515711
    117          6           0        7.923853   -4.669435   -0.069424
    118          8           0        7.962304   -5.898138   -0.119879
    119          6           0        7.826363   -4.025317    1.380410
    120          6           0        8.917682   -4.620425    2.227392
    121          8           0       10.113104   -4.402159    1.962934
    122          8           0        8.372068   -5.165622    3.329867
    123          6           0        9.416079   -5.759175    4.207105
    124          1           0        6.847612    2.533254    3.428862
    125          1           0        7.658659    4.421148   -2.469410
    126          1           0        7.555849   -1.537406   -4.449253
    127          1           0        7.001653   -2.377023    3.918407
    128          1           0        7.222635    0.316451    4.714290
    129          1           0        5.016073   -1.246248    3.437874
    130          1           0        5.013087    0.489615    3.062245
    131          1           0        4.912075    0.009215    4.729185
    132          1           0        9.400731   -0.570802    4.302824
    133          1           0        9.679461   -2.241095    3.688313
    134          1           0        8.040213   -2.417007    6.009834
    135          1           0        9.083672   -1.071771    6.303801
    136          1           0        7.501394    4.518313    3.698719
    137          1           0        7.112655    5.909291    2.743071
    138          1           0        8.829783    5.590087    3.084150
    139          1           0        7.972557    7.363190    1.286322
    140          1           0        9.122468    8.083914    0.019449
    141          1           0        9.654363    6.877986    1.226193
    142          1           0        8.079321    3.257057   -4.698227
    143          1           0        6.539399    0.791907   -5.337333
    144          1           0        6.107619    4.119544   -5.403665
    145          1           0        5.367242    3.451779   -3.906347
    146          1           0        5.341101    2.535442   -5.325948
    147          1           0        8.439267    1.679880   -6.742255
    148          1           0        8.496609   -0.043352   -6.422605
    149          1           0       10.054104    2.213514   -5.391632
    150          1           0       10.674479    0.621808   -5.962975
    151          1           0        9.945676    0.823642   -4.306945
    152          1           0        8.147084   -5.000450   -3.418778
    153          1           0        7.578118   -3.657761   -4.462628
    154          1           0        6.407453   -4.450222   -3.333998
    155          1           0        6.834206   -4.251071    1.773131
    156          1           0        9.139449   -6.805408    4.370063
    157          1           0        9.463844   -5.106043    5.098664
    158          1           0       10.413749   -5.865547    3.797488
 ---------------------------------------------------------------------

 SCF Done:  E(RCAM-B3LYP) =  -4069.81178075     A.U. after   19 cycles

 Excitation energies and oscillator strengths:

 Excited State   1:      Singlet-A      1.6729 eV  741.15 nm  f=0.2081  <S**2>=0.000
     310 -> 316        0.14793
     311 -> 313       -0.35532
     312 -> 314        0.58697
 This state for optimization and/or second-order correction.
 Total Energy, E(TD-HF/TD-DFT) =  -4069.75030449
 Copying the excited state density for this state as the 1-particle RhoCI density.

 Excited State   2:      Singlet-A      1.6818 eV  737.20 nm  f=0.5421  <S**2>=0.000
     309 -> 315        0.15046
     311 -> 313        0.58645
     312 -> 314        0.35512

 Excited State   3:      Singlet-A      2.1858 eV  567.22 nm  f=0.0907  <S**2>=0.000
     310 -> 314        0.63892
     312 -> 316       -0.27154

 Excited State   4:      Singlet-A      2.1921 eV  565.59 nm  f=0.1077  <S**2>=0.000
     309 -> 313        0.63715
     311 -> 315       -0.27647

 Excited State   5:      Singlet-A      2.7656 eV  448.30 nm  f=0.0000  <S**2>=0.000
     312 -> 313        0.70710

 The electronic state is 1-A.
 Alpha  occ. eigenvalues --  -46.87834 -46.87592 -19.26319 -19.26286 -19.19123
 Alpha  occ. eigenvalues --  -19.19028 -19.18872 -19.18653 -19.18198 -19.17991
 Alpha  occ. eigenvalues --  -14.42485 -14.42432 -14.41487 -14.41288 -14.39442
 Alpha  occ. eigenvalues --  -14.39285 -14.38623 -14.38531 -10.39089 -10.39051
 Alpha  occ. eigenvalues --  -10.35507 -10.35331 -10.34416 -10.34169 -10.31737
 Alpha  occ. eigenvalues --  -10.31668 -10.31436 -10.31246 -10.30964 -10.30943
 Alpha  occ. eigenvalues --  -10.30604 -10.30546 -10.30328 -10.30293 -10.30248
 Alpha  occ. eigenvalues --  -10.30067 -10.29957 -10.29819 -10.29670 -10.29367
 Alpha  occ. eigenvalues --  -10.29333 -10.29296 -10.28771 -10.28675 -10.28636
 Alpha  occ. eigenvalues --  -10.28540 -10.28402 -10.28340 -10.28141 -10.28093
 Alpha  occ. eigenvalues --  -10.27933 -10.27831 -10.27763 -10.27627 -10.27605
 Alpha  occ. eigenvalues --  -10.27539 -10.27533 -10.27488 -10.27437 -10.27431
 Alpha  occ. eigenvalues --  -10.27419 -10.27409 -10.27400 -10.27292 -10.27180
 Alpha  occ. eigenvalues --  -10.26996 -10.26719 -10.26660 -10.26486 -10.26361
 Alpha  occ. eigenvalues --  -10.26256 -10.26222 -10.26057 -10.26056 -10.25978
 Alpha  occ. eigenvalues --  -10.25875 -10.25860 -10.25762 -10.25473 -10.25300
 Alpha  occ. eigenvalues --  -10.24869 -10.24826 -10.24804 -10.24729 -10.24659
 Alpha  occ. eigenvalues --  -10.24620  -3.16577  -3.16342  -1.91459  -1.91224
 Alpha  occ. eigenvalues --   -1.91045  -1.90887  -1.90813  -1.90649  -1.16636
 Alpha  occ. eigenvalues --   -1.16611  -1.08653  -1.08600  -1.07275  -1.06908
 Alpha  occ. eigenvalues --   -1.06905  -1.06651  -1.04615  -1.04431  -1.03797
 Alpha  occ. eigenvalues --   -1.03595  -1.03272  -1.02968  -1.02448  -1.02042
 Alpha  occ. eigenvalues --   -0.92004  -0.91924  -0.89557  -0.89421  -0.89212
 Alpha  occ. eigenvalues --   -0.89102  -0.88324  -0.88144  -0.87905  -0.87720
 Alpha  occ. eigenvalues --   -0.87706  -0.87620  -0.87323  -0.87058  -0.85009
 Alpha  occ. eigenvalues --   -0.84947  -0.83972  -0.83801  -0.83021  -0.82868
 Alpha  occ. eigenvalues --   -0.82679  -0.82599  -0.81606  -0.81545  -0.80627
 Alpha  occ. eigenvalues --   -0.80386  -0.78840  -0.78570  -0.77252  -0.77085
 Alpha  occ. eigenvalues --   -0.76957  -0.76843  -0.75947  -0.75786  -0.74932
 Alpha  occ. eigenvalues --   -0.74729  -0.72810  -0.72630  -0.71704  -0.71515
 Alpha  occ. eigenvalues --   -0.69945  -0.69681  -0.68903  -0.68774  -0.67678
 Alpha  occ. eigenvalues --   -0.67539  -0.67249  -0.67152  -0.65312  -0.65220
 Alpha  occ. eigenvalues --   -0.64884  -0.64707  -0.64649  -0.64598  -0.64305
 Alpha  occ. eigenvalues --   -0.64131  -0.62315  -0.62228  -0.60487  -0.60273
 Alpha  occ. eigenvalues --   -0.59833  -0.59742  -0.59021  -0.58927  -0.58537
 Alpha  occ. eigenvalues --   -0.58362  -0.57608  -0.57500  -0.57344  -0.57169
 Alpha  occ. eigenvalues --   -0.56346  -0.56140  -0.55992  -0.55842  -0.55561
 Alpha  occ. eigenvalues --   -0.55396  -0.55369  -0.55180  -0.54548  -0.54426
 Alpha  occ. eigenvalues --   -0.53919  -0.53864  -0.53339  -0.53255  -0.53163
 Alpha  occ. eigenvalues --   -0.53087  -0.52942  -0.52849  -0.52799  -0.52613
 Alpha  occ. eigenvalues --   -0.52476  -0.52327  -0.51947  -0.51806  -0.51647
 Alpha  occ. eigenvalues --   -0.51609  -0.51225  -0.51139  -0.50629  -0.50415
 Alpha  occ. eigenvalues --   -0.50070  -0.49963  -0.49922  -0.49793  -0.49550
 Alpha  occ. eigenvalues --   -0.49431  -0.49248  -0.49145  -0.49122  -0.49049
 Alpha  occ. eigenvalues --   -0.48618  -0.48505  -0.48503  -0.48481  -0.48303
 Alpha  occ. eigenvalues --   -0.48279  -0.47729  -0.47536  -0.47334  -0.47054
 Alpha  occ. eigenvalues --   -0.46830  -0.46644  -0.46581  -0.46503  -0.46394
 Alpha  occ. eigenvalues --   -0.46203  -0.46193  -0.46016  -0.45845  -0.45762
 Alpha  occ. eigenvalues --   -0.45238  -0.45134  -0.44606  -0.44547  -0.44458
 Alpha  occ. eigenvalues --   -0.44419  -0.44182  -0.44116  -0.44070  -0.44053
 Alpha  occ. eigenvalues --   -0.44013  -0.43883  -0.43517  -0.43502  -0.43417
 Alpha  occ. eigenvalues --   -0.43327  -0.43059  -0.42883  -0.42839  -0.42725
 Alpha  occ. eigenvalues --   -0.42676  -0.42482  -0.42041  -0.41901  -0.41736
 Alpha  occ. eigenvalues --   -0.41607  -0.41560  -0.41405  -0.41173  -0.40927
 Alpha  occ. eigenvalues --   -0.40901  -0.40871  -0.40668  -0.40644  -0.40605
 Alpha  occ. eigenvalues --   -0.40422  -0.40255  -0.40187  -0.39479  -0.39349
 Alpha  occ. eigenvalues --   -0.38503  -0.38278  -0.37769  -0.37610  -0.37356
 Alpha  occ. eigenvalues --   -0.37290  -0.37196  -0.37143  -0.36730  -0.36726
 Alpha  occ. eigenvalues --   -0.36217  -0.36153  -0.34321  -0.34187  -0.33818
 Alpha  occ. eigenvalues --   -0.33784  -0.33221  -0.33108  -0.31401  -0.31211
 Alpha  occ. eigenvalues --   -0.31071  -0.30907  -0.30056  -0.29896  -0.29492
 Alpha  occ. eigenvalues --   -0.29358  -0.29261  -0.29142  -0.24116  -0.23968
 Alpha  occ. eigenvalues --   -0.21165  -0.21049
 Alpha virt. eigenvalues --   -0.08813  -0.08724  -0.01789  -0.01615  -0.00102
 Alpha virt. eigenvalues --    0.00033   0.02166   0.02274   0.03076   0.03287
 Alpha virt. eigenvalues --    0.04690   0.04789   0.05086   0.05207   0.06165

 Mulliken charges:
               1
     1  Mg   0.838580
     2  C   -0.002935
     3  C   -0.094100
     4  C   -0.045965
     5  C   -0.063973
     6  N   -0.256770
     7  C   -0.052375
     8  C   -0.014003
     9  C   -0.086978
    10  C    0.046271
    11  C    0.104802
    12  C    0.053476
    13  C   -0.072006
    14  H    0.036690
    15  N   -0.433107
    16  C    0.168312
    17  C   -0.177251
    18  C   -0.004186
    19  C    0.148661
    20  C    0.110190
    21  C    0.012075
    22  O   -0.249762
    23  C    0.062593
    24  N   -0.341139
    25  C    0.041225
    26  C   -0.028133
    27  C   -0.024025
    28  C    0.074890
    29  C    0.076162
    30  C    0.035133
    31  C   -0.004498
    32  N   -0.310491
    33  C    0.080458
    34  C   -0.169684
    35  C    0.008441
    36  C    0.082999
    37  C    0.127304
    38  C    0.046175
    39  O   -0.188201
    40  C   -0.005322
    41  C    0.212906
    42  O   -0.257064
    43  O   -0.304823
    44  C    0.157582
    45  H   -0.017583
    46  H   -0.016950
    47  H   -0.041426
    48  H    0.001078
    49  H   -0.004002
    50  H    0.025537
    51  H    0.016390
    52  H    0.016732
    53  H    0.011041
    54  H    0.044209
    55  H    0.017923
    56  H    0.017892
    57  H    0.005972
    58  H    0.026808
    59  H    0.039160
    60  H    0.037487
    61  H    0.035323
    62  H    0.031098
    63  H    0.016419
    64  H    0.009547
    65  H    0.023157
    66  H    0.012568
    67  H    0.004830
    68  H    0.006408
    69  H    0.004823
    70  H    0.008633
    71  H    0.018237
    72  H    0.028911
    73  H    0.047634
    74  H    0.009129
    75  H    0.046120
    76  H    0.035252
    77  H    0.043103
    78  H    0.046512
    79  H    0.053897
    80  Mg   0.837973
    81  C   -0.016871
    82  C   -0.087859
    83  C   -0.045422
    84  C   -0.064472
    85  N   -0.254551
    86  C   -0.049818
    87  C   -0.015056
    88  C   -0.090524
    89  C    0.045777
    90  C    0.114387
    91  C    0.062558
    92  C   -0.077734
    93  H    0.034665
    94  N   -0.423494
    95  C    0.162897
    96  C   -0.174637
    97  C   -0.007813
    98  C    0.152123
    99  C    0.099375
   100  C    0.015529
   101  O   -0.253205
   102  C    0.061222
   103  N   -0.350005
   104  C    0.037634
   105  C   -0.019907
   106  C   -0.034915
   107  C    0.088958
   108  C    0.073503
   109  C    0.034687
   110  C   -0.007649
   111  N   -0.324157
   112  C    0.078471
   113  C   -0.162858
   114  C    0.002254
   115  C    0.096279
   116  C    0.131457
   117  C    0.042492
   118  O   -0.188015
   119  C    0.000863
   120  C    0.211192
   121  O   -0.251057
   122  O   -0.305674
   123  C    0.152097
   124  H   -0.019821
   125  H   -0.015554
   126  H   -0.040139
   127  H   -0.000874
   128  H   -0.004584
   129  H    0.022515
   130  H    0.014819
   131  H    0.015797
   132  H    0.013927
   133  H    0.037666
   134  H    0.020550
   135  H    0.019483
   136  H    0.008609
   137  H    0.026187
   138  H    0.039606
   139  H    0.038272
   140  H    0.036284
   141  H    0.033775
   142  H    0.014251
   143  H    0.013035
   144  H    0.024962
   145  H    0.011820
   146  H    0.006275
   147  H    0.006312
   148  H    0.003806
   149  H    0.010836
   150  H    0.017830
   151  H    0.029988
   152  H    0.045803
   153  H    0.008650
   154  H    0.047607
   155  H    0.035010
   156  H    0.043705
   157  H    0.049341
   158  H    0.053553
 Sum of Mulliken charges =  -0.00000

 Dipole moment (field-independent basis, Debye):
    X=             -3.6844    Y=              2.0588    Z=              6.9086  Tot=              8.0958
 Quadrupole moment (field-independent basis, Debye-Ang):
   XX=           -518.2636   YY=           -527.0165   ZZ=           -471.9305
   XY=             33.2157   XZ=             -7.6972   YZ=            -25.5983

 Normal termination of Gaussian 16 at Sat Sep  4 14:50:42 2021.
