 Gaussian 16, Revision A.03,
 Gaussian 16:  ES64L-G16RevA.03 25-Dec-2016

 -----------------------------------
 #p cam-b3lyp/Def2SVP td=(nstates=5)
 -----------------------------------

 --------------------------------
 TDDFT excited states in gaussian
 --------------------------------
 Symbolic Z-matrix:
 Charge =  0 Multiplicity = 1

                         Standard orientation:
 ---------------------------------------------------------------------
 Center     Atomic      Atomic             Coordinates (Angstroms)
 Number     Number       Type             X           Y           Z
 ---------------------------------------------------------------------
      1         12           0        3.381390    1.244501    0.544134
      2          6           0        4.388165   -1.818906   -1.009621
      3          6           0        4.264889    2.827723   -2.346524
      4          6           0        2.930002    4.001806    2.044179
      5          6           0        3.656676   -0.391364    3.609069
      6          7           0        4.207764    0.490965   -1.366347
      7          6           0        4.491689   -0.712173   -1.855239
      8          6           0        4.837469   -0.695935   -3.374300
      9          6           0        5.312330    0.820172   -3.508182
     10          6           0        4.521619    1.424546   -2.361259
     11          6           0        6.800192    1.018785   -3.237401
     12          6           0        3.587592   -0.986169   -4.271686
     13          6           0        3.895910   -1.310374   -5.736331
     14          1           0        3.067252   -2.287063   -6.426804
     15          7           0        3.104176    3.063662   -0.174653
     16          6           0        3.516654    3.530689   -1.377580
     17          6           0        3.069590    4.938703   -1.443234
     18          6           0        2.530614    5.307854   -0.104830
     19          6           0        2.861690    4.132195    0.659102
     20          6           0        3.130899    5.764104   -2.691715
     21          6           0        1.837948    6.530968    0.407361
     22          8           0        1.661011    6.739726    1.656235
     23          6           0        1.445422    7.533746   -0.599318
     24          7           0        3.514418    1.808453    2.549601
     25          6           0        3.210715    3.051661    2.938421
     26          6           0        3.103901    3.146000    4.431616
     27          6           0        3.159661    1.645355    4.974486
     28          6           0        3.383447    0.915190    3.627249
     29          6           0        4.186656    3.981397    5.128584
     30          6           0        1.991159    1.181190    5.879788
     31          6           0        0.713067    1.114334    5.074115
     32          7           0        3.749688   -0.789291    1.206774
     33          6           0        3.844414   -1.240419    2.531231
     34          6           0        4.210477   -2.667672    2.476312
     35          6           0        4.320204   -2.945335    1.115170
     36          6           0        4.066131   -1.759831    0.367961
     37          6           0        4.453520   -3.509407    3.597404
     38          6           0        4.617137   -3.961809    0.118943
     39          8           0        4.813468   -5.177471    0.152285
     40          6           0        4.792564   -3.244499   -1.291915
     41          6           0        3.985494   -4.018143   -2.298603
     42          8           0        2.739536   -4.046323   -2.234094
     43          8           0        4.782969   -4.402307   -3.307064
     44          6           0        4.038254   -5.149727   -4.355357
     45          1           0        4.725522    3.456638   -3.110869
     46          1           0        2.671449    4.905392    2.600165
     47          1           0        3.677377   -0.987827    4.522992
     48          1           0        5.646928   -1.366491   -3.663359
     49          1           0        5.003108    1.261320   -4.455542
     50          1           0        7.263958    0.103403   -2.870088
     51          1           0        6.856470    1.803436   -2.482651
     52          1           0        7.304948    1.414418   -4.119145
     53          1           0        3.016911   -0.066623   -4.401373
     54          1           0        2.983624   -1.787450   -3.844488
     55          1           0        4.952865   -1.536053   -5.880632
     56          1           0        3.727818   -0.410467   -6.328033
     57          1           0        3.725745    5.278308   -3.464182
     58          1           0        3.688099    6.668559   -2.448408
     59          1           0        2.138848    6.030489   -3.056687
     60          1           0        2.332764    7.873487   -1.133873
     61          1           0        0.884295    8.296679   -0.060876
     62          1           0        0.804319    7.056941   -1.341337
     63          1           0        2.158438    3.598263    4.728239
     64          1           0        4.050774    1.460421    5.574811
     65          1           0        3.788947    4.796012    5.734336
     66          1           0        4.865862    4.357948    4.364267
     67          1           0        4.866810    3.411794    5.761323
     68          1           0        1.826484    1.897912    6.683615
     69          1           0        2.160884    0.205413    6.335094
     70          1           0        0.358068    2.144079    5.094889
     71          1           0       -0.003055    0.444782    5.551692
     72          1           0        0.911656    0.859069    4.033015
     73          1           0        3.954251   -4.454320    3.383307
     74          1           0        4.077418   -3.062187    4.517265
     75          1           0        5.541706   -3.566106    3.575198
     76          1           0        5.857528   -3.260640   -1.521508
     77          1           0        4.537472   -6.110670   -4.480272
     78          1           0        3.981405   -4.492481   -5.223229
     79          1           0        3.030727   -5.473887   -4.092395
     80         12           0       -4.343734   -0.347443   -0.296943
     81          6           0       -1.411777   -2.224185    0.575133
     82          6           0       -2.361416    2.427167   -0.378155
     83          6           0       -6.972444    1.399525   -0.621637
     84          6           0       -6.238753   -2.991744    0.952959
     85          7           0       -2.180950   -0.062950    0.068689
     86          6           0       -1.155411   -0.858603    0.332430
     87          6           0        0.231838   -0.166189    0.257189
     88          6           0       -0.239206    1.345653    0.524237
     89          6           0       -1.673771    1.249317    0.009054
     90          6           0       -0.284740    1.710258    1.998804
     91          6           0        0.900268   -0.318764   -1.154168
     92          6           0        2.381305    0.062421   -1.208895
     93          1           0        3.262951   -0.695692   -2.092321
     94          7           0       -4.577170    1.512933   -0.947399
     95          6           0       -3.661087    2.503679   -0.925262
     96          6           0       -4.329381    3.682433   -1.498059
     97          6           0       -5.765103    3.351824   -1.708057
     98          6           0       -5.833187    2.053846   -1.067174
     99          6           0       -3.592349    4.937872   -1.864250
    100          6           0       -6.893391    4.088330   -2.364362
    101          8           0       -8.112156    3.717690   -2.222693
    102          6           0       -6.538230    5.310171   -3.100868
    103          7           0       -6.314290   -0.641354    0.297063
    104          6           0       -7.271122    0.249741   -0.016577
    105          6           0       -8.646649   -0.302716    0.271697
    106          6           0       -8.424868   -1.847875    0.619363
    107          6           0       -6.882654   -1.902626    0.556245
    108          6           0       -9.408483    0.371138    1.412717
    109          6           0       -9.235737   -2.879655   -0.211656
    110          6           0       -8.761626   -2.873065   -1.647124
    111          7           0       -3.941204   -2.340524    0.433555
    112          6           0       -4.878351   -3.271541    0.932598
    113          6           0       -4.115517   -4.440771    1.415733
    114          6           0       -2.775368   -4.096475    1.183502
    115          6           0       -2.706607   -2.795595    0.615622
    116          6           0       -4.669871   -5.602181    2.023962
    117          6           0       -1.402637   -4.533368    1.299420
    118          8           0       -0.849607   -5.582149    1.627984
    119          6           0       -0.451641   -3.289169    1.027439
    120          6           0        0.617639   -3.723913    0.062998
    121          8           0        0.325255   -4.044085   -1.102593
    122          8           0        1.824999   -3.482911    0.605747
    123          6           0        2.918204   -3.887286   -0.317934
    124          1           0       -1.877791    3.389640   -0.208946
    125          1           0       -7.916909    1.914365   -0.812421
    126          1           0       -6.762004   -3.897654    1.266357
    127          1           0        0.936285   -0.476334    1.019647
    128          1           0        0.334150    2.049436   -0.073520
    129          1           0       -0.105795    0.853526    2.631367
    130          1           0       -1.275704    2.108680    2.172853
    131          1           0        0.410040    2.529142    2.206259
    132          1           0        0.485877    0.439915   -1.830517
    133          1           0        0.769064   -1.313957   -1.532305
    134          1           0        2.821897    0.149008   -0.208234
    135          1           0        2.465462    1.068566   -1.626772
    136          1           0       -2.580013    4.947758   -1.441786
    137          1           0       -4.103925    5.766713   -1.363086
    138          1           0       -3.587162    5.124614   -2.940249
    139          1           0       -6.049712    6.009315   -2.426315
    140          1           0       -7.463321    5.645749   -3.573597
    141          1           0       -5.804373    5.052578   -3.872687
    142          1           0       -9.284474   -0.226770   -0.600385
    143          1           0       -8.705166   -2.076081    1.658199
    144          1           0      -10.392494    0.771657    1.103892
    145          1           0       -8.787940    1.158696    1.819174
    146          1           0       -9.585133   -0.256849    2.284287
    147          1           0      -10.292545   -2.602403   -0.232566
    148          1           0       -9.175654   -3.890563    0.177513
    149          1           0       -9.310910   -2.033999   -2.084577
    150          1           0       -9.015364   -3.810103   -2.138662
    151          1           0       -7.693292   -2.635083   -1.707655
    152          1           0       -4.160583   -6.453222    1.591699
    153          1           0       -5.744879   -5.658973    1.866188
    154          1           0       -4.418068   -5.413109    3.070917
    155          1           0       -0.035983   -2.978652    1.986803
    156          1           0        3.557524   -4.586162    0.230264
    157          1           0        3.382399   -2.944109   -0.662466
    158          1           0        2.649007   -4.481288   -1.183470
 ---------------------------------------------------------------------

 SCF Done:  E(RCAM-B3LYP) =  -4069.10538537     A.U. after   22 cycles

 Excitation energies and oscillator strengths:

 Excited State   1:      Singlet-A      0.9582 eV 1293.93 nm  f=0.0623  <S**2>=0.000
     307 -> 313        0.11880
     311 -> 313        0.20200
     312 -> 313        0.64238
 This state for optimization and/or second-order correction.
 Total Energy, E(TD-HF/TD-DFT) =  -4069.07017234
 Copying the excited state density for this state as the 1-particle RhoCI density.

 Excited State   2:      Singlet-A      1.6590 eV  747.36 nm  f=0.2866  <S**2>=0.000
     310 -> 317        0.15880
     311 -> 314        0.61127
     312 -> 314       -0.27254

 Excited State   3:      Singlet-A      1.7631 eV  703.21 nm  f=0.0823  <S**2>=0.000
     308 -> 313       -0.26630
     309 -> 313        0.42532
     311 -> 313       -0.14007
     311 -> 314        0.10897
     311 -> 315        0.13355
     312 -> 315        0.40701

 Excited State   4:      Singlet-A      1.9478 eV  636.54 nm  f=0.0087  <S**2>=0.000
     311 -> 313        0.64998
     312 -> 313       -0.21051

 Excited State   5:      Singlet-A      2.1175 eV  585.53 nm  f=0.0213  <S**2>=0.000
     310 -> 314        0.12978
     311 -> 314        0.27937
     312 -> 314        0.62788

 The electronic state is 1-A.
 Alpha  occ. eigenvalues --  -46.87930 -46.86967 -19.30182 -19.24319 -19.23340
 Alpha  occ. eigenvalues --  -19.19587 -19.18205 -19.17590 -19.17281 -19.13141
 Alpha  occ. eigenvalues --  -14.41972 -14.41669 -14.41661 -14.40691 -14.39750
 Alpha  occ. eigenvalues --  -14.39007 -14.38679 -14.37925 -10.43529 -10.37688
 Alpha  occ. eigenvalues --  -10.37436 -10.36186 -10.34897 -10.33927 -10.33409
 Alpha  occ. eigenvalues --  -10.31678 -10.31531 -10.31301 -10.31019 -10.30510
 Alpha  occ. eigenvalues --  -10.30425 -10.30350 -10.30286 -10.30168 -10.30075
 Alpha  occ. eigenvalues --  -10.29982 -10.29727 -10.29633 -10.29568 -10.29543
 Alpha  occ. eigenvalues --  -10.29322 -10.29244 -10.29041 -10.28870 -10.28843
 Alpha  occ. eigenvalues --  -10.28746 -10.28745 -10.28461 -10.28302 -10.28119
 Alpha  occ. eigenvalues --  -10.27887 -10.27700 -10.27673 -10.27628 -10.27374
 Alpha  occ. eigenvalues --  -10.27324 -10.27092 -10.27049 -10.27042 -10.27041
 Alpha  occ. eigenvalues --  -10.26921 -10.26895 -10.26882 -10.26831 -10.26690
 Alpha  occ. eigenvalues --  -10.26670 -10.26229 -10.26178 -10.26052 -10.26015
 Alpha  occ. eigenvalues --  -10.25741 -10.25635 -10.25347 -10.25346 -10.25310
 Alpha  occ. eigenvalues --  -10.25230 -10.25162 -10.24961 -10.24875 -10.24546
 Alpha  occ. eigenvalues --  -10.24407 -10.24362 -10.24218 -10.24024 -10.23900
 Alpha  occ. eigenvalues --  -10.23737  -3.17292  -3.15719  -1.92208  -1.91850
 Alpha  occ. eigenvalues --   -1.91511  -1.90603  -1.90188  -1.90028  -1.22351
 Alpha  occ. eigenvalues --   -1.16133  -1.14376  -1.12557  -1.07986  -1.07923
 Alpha  occ. eigenvalues --   -1.07829  -1.06469  -1.05503  -1.04406  -1.03957
 Alpha  occ. eigenvalues --   -1.03696  -1.03079  -1.02936  -1.02390  -1.01438
 Alpha  occ. eigenvalues --   -0.97157  -0.91292  -0.91170  -0.90116  -0.89420
 Alpha  occ. eigenvalues --   -0.88896  -0.88555  -0.88133  -0.88089  -0.87873
 Alpha  occ. eigenvalues --   -0.87648  -0.87176  -0.86812  -0.86572  -0.86311
 Alpha  occ. eigenvalues --   -0.85773  -0.84452  -0.83863  -0.83819  -0.83522
 Alpha  occ. eigenvalues --   -0.83244  -0.82491  -0.82414  -0.81821  -0.80954
 Alpha  occ. eigenvalues --   -0.80205  -0.79308  -0.79148  -0.78297  -0.78059
 Alpha  occ. eigenvalues --   -0.77387  -0.76868  -0.76517  -0.75665  -0.75501
 Alpha  occ. eigenvalues --   -0.74475  -0.73569  -0.72765  -0.72098  -0.71258
 Alpha  occ. eigenvalues --   -0.70634  -0.70353  -0.70064  -0.69418  -0.69168
 Alpha  occ. eigenvalues --   -0.68678  -0.68270  -0.67529  -0.67216  -0.66841
 Alpha  occ. eigenvalues --   -0.66171  -0.65586  -0.64982  -0.64842  -0.64440
 Alpha  occ. eigenvalues --   -0.64078  -0.63997  -0.63632  -0.62380  -0.61887
 Alpha  occ. eigenvalues --   -0.61237  -0.60544  -0.60225  -0.59768  -0.59388
 Alpha  occ. eigenvalues --   -0.59233  -0.58568  -0.58322  -0.57811  -0.57574
 Alpha  occ. eigenvalues --   -0.57456  -0.56880  -0.56717  -0.56447  -0.56298
 Alpha  occ. eigenvalues --   -0.55952  -0.55591  -0.55543  -0.55117  -0.54825
 Alpha  occ. eigenvalues --   -0.54534  -0.54296  -0.54176  -0.53852  -0.53634
 Alpha  occ. eigenvalues --   -0.53308  -0.53024  -0.52962  -0.52849  -0.52695
 Alpha  occ. eigenvalues --   -0.52562  -0.52457  -0.52232  -0.51964  -0.51757
 Alpha  occ. eigenvalues --   -0.51433  -0.51395  -0.51202  -0.51110  -0.50944
 Alpha  occ. eigenvalues --   -0.50624  -0.50499  -0.50305  -0.50103  -0.50009
 Alpha  occ. eigenvalues --   -0.49488  -0.49481  -0.49292  -0.49176  -0.49045
 Alpha  occ. eigenvalues --   -0.48872  -0.48760  -0.48553  -0.48466  -0.48398
 Alpha  occ. eigenvalues --   -0.48295  -0.47917  -0.47846  -0.47601  -0.47515
 Alpha  occ. eigenvalues --   -0.47297  -0.47092  -0.47035  -0.46781  -0.46399
 Alpha  occ. eigenvalues --   -0.46191  -0.46137  -0.46046  -0.46020  -0.45798
 Alpha  occ. eigenvalues --   -0.45663  -0.45461  -0.45137  -0.45076  -0.45003
 Alpha  occ. eigenvalues --   -0.44816  -0.44705  -0.44607  -0.44375  -0.44196
 Alpha  occ. eigenvalues --   -0.44027  -0.43766  -0.43690  -0.43656  -0.43420
 Alpha  occ. eigenvalues --   -0.43350  -0.43083  -0.42919  -0.42456  -0.42435
 Alpha  occ. eigenvalues --   -0.42153  -0.42018  -0.41977  -0.41867  -0.41625
 Alpha  occ. eigenvalues --   -0.41554  -0.41445  -0.41331  -0.41162  -0.40937
 Alpha  occ. eigenvalues --   -0.40780  -0.40561  -0.40407  -0.40215  -0.40118
 Alpha  occ. eigenvalues --   -0.39864  -0.39640  -0.39269  -0.38968  -0.38734
 Alpha  occ. eigenvalues --   -0.38572  -0.38209  -0.37613  -0.37532  -0.36822
 Alpha  occ. eigenvalues --   -0.36621  -0.36231  -0.36066  -0.35785  -0.35523
 Alpha  occ. eigenvalues --   -0.34564  -0.33576  -0.33456  -0.32710  -0.32413
 Alpha  occ. eigenvalues --   -0.32099  -0.31907  -0.31602  -0.30763  -0.30402
 Alpha  occ. eigenvalues --   -0.30102  -0.30011  -0.29140  -0.29007  -0.28707
 Alpha  occ. eigenvalues --   -0.28555  -0.26123  -0.25168  -0.23480  -0.23305
 Alpha  occ. eigenvalues --   -0.20453  -0.20114
 Alpha virt. eigenvalues --   -0.09155  -0.08120  -0.03954  -0.01081  -0.01031
 Alpha virt. eigenvalues --   -0.00838   0.00585   0.01434   0.02898   0.03810
 Alpha virt. eigenvalues --    0.04213   0.05037   0.05670   0.06100   0.06497

 Mulliken charges:
               1
     1  Mg   0.513223
     2  C   -0.093694
     3  C   -0.093789
     4  C   -0.052596
     5  C   -0.067079
     6  N   -0.339003
     7  C    0.102634
     8  C   -0.061467
     9  C   -0.042342
    10  C    0.058844
    11  C    0.108693
    12  C    0.045610
    13  C   -0.053381
    14  H    0.040809
    15  N   -0.421081
    16  C    0.176843
    17  C   -0.179463
    18  C   -0.004331
    19  C    0.145800
    20  C    0.111248
    21  C    0.009714
    22  O   -0.245115
    23  C    0.062645
    24  N   -0.301979
    25  C    0.032516
    26  C   -0.024458
    27  C   -0.024290
    28  C    0.075026
    29  C    0.077872
    30  C    0.046810
    31  C   -0.027461
    32  N   -0.302567
    33  C    0.079179
    34  C   -0.200053
    35  C   -0.056169
    36  C    0.086899
    37  C    0.130176
    38  C    0.084260
    39  O   -0.273711
    40  C    0.093312
    41  C    0.231171
    42  O   -0.126045
    43  O   -0.272605
    44  C    0.148106
    45  H   -0.019628
    46  H   -0.017905
    47  H   -0.040291
    48  H   -0.003735
    49  H   -0.009613
    50  H    0.025341
    51  H    0.020721
    52  H    0.014833
    53  H    0.017805
    54  H    0.058248
    55  H    0.018834
    56  H    0.021797
    57  H    0.007702
    58  H    0.028954
    59  H    0.039695
    60  H    0.039404
    61  H    0.037628
    62  H    0.029806
    63  H    0.014495
    64  H    0.009911
    65  H    0.023308
    66  H    0.012298
    67  H    0.006078
    68  H    0.004961
    69  H    0.004315
    70  H    0.011159
    71  H    0.019242
    72  H    0.036805
    73  H    0.046455
    74  H    0.004318
    75  H    0.042556
    76  H    0.022540
    77  H    0.058764
    78  H    0.058250
    79  H    0.068563
    80  Mg   0.834644
    81  C   -0.016281
    82  C   -0.091610
    83  C   -0.047150
    84  C   -0.067595
    85  N   -0.257683
    86  C   -0.024642
    87  C   -0.068520
    88  C   -0.139189
    89  C    0.060819
    90  C    0.102587
    91  C    0.227127
    92  C   -0.176886
    93  H    0.086645
    94  N   -0.423359
    95  C    0.162447
    96  C   -0.175526
    97  C   -0.009622
    98  C    0.151882
    99  C    0.100015
   100  C    0.014234
   101  O   -0.254942
   102  C    0.061851
   103  N   -0.350490
   104  C    0.036935
   105  C   -0.019274
   106  C   -0.034613
   107  C    0.089484
   108  C    0.074276
   109  C    0.035204
   110  C   -0.007329
   111  N   -0.323791
   112  C    0.078916
   113  C   -0.165157
   114  C    0.003799
   115  C    0.092983
   116  C    0.131820
   117  C    0.038235
   118  O   -0.186671
   119  C    0.008285
   120  C    0.242666
   121  O   -0.258562
   122  O   -0.298070
   123  C    0.118845
   124  H   -0.017241
   125  H   -0.017676
   126  H   -0.042523
   127  H    0.028513
   128  H    0.043137
   129  H    0.036611
   130  H    0.007247
   131  H    0.034093
   132  H   -0.020819
   133  H    0.012762
   134  H    0.033931
   135  H    0.088644
   136  H    0.006509
   137  H    0.025191
   138  H    0.035325
   139  H    0.037563
   140  H    0.034529
   141  H    0.032013
   142  H    0.012945
   143  H    0.011265
   144  H    0.023600
   145  H    0.011586
   146  H    0.004393
   147  H    0.004922
   148  H    0.002832
   149  H    0.010228
   150  H    0.016391
   151  H    0.030813
   152  H    0.045286
   153  H    0.007116
   154  H    0.045663
   155  H    0.031647
   156  H    0.050128
   157  H    0.019149
   158  H    0.045158
 Sum of Mulliken charges =  -0.00000

 Dipole moment (field-independent basis, Debye):
    X=              4.1309    Y=              5.7518    Z=             -4.4042  Tot=              8.3393
 Quadrupole moment (field-independent basis, Debye-Ang):
   XX=           -506.1255   YY=           -539.9793   ZZ=           -467.7329
   XY=             34.5299   XZ=            -34.7623   YZ=             -2.7235

 Normal termination of Gaussian 16 at Thu Sep  9 02:28:19 2021.
