 Gaussian 16, Revision A.03,
 Gaussian 16:  ES64L-G16RevA.03 25-Dec-2016

 -----------------------------------
 #p cam-b3lyp/Def2SVP td=(nstates=5)
 -----------------------------------

 --------------------------------
 TDDFT excited states in gaussian
 --------------------------------
 Symbolic Z-matrix:
 Charge =  0 Multiplicity = 1

                         Standard orientation:
 ---------------------------------------------------------------------
 Center     Atomic      Atomic             Coordinates (Angstroms)
 Number     Number       Type             X           Y           Z
 ---------------------------------------------------------------------
      1         12           0       -5.406091   -0.145699   -0.029104
      2          6           0       -5.197418    3.424948   -0.167494
      3          6           0       -6.172600   -0.081089   -3.353462
      4          6           0       -6.040153   -3.246626    0.167972
      5          6           0       -5.746360    0.155506    3.426204
      6          7           0       -5.625299    1.522171   -1.468133
      7          6           0       -5.460188    2.839863   -1.408168
      8          6           0       -5.517793    3.533791   -2.801911
      9          6           0       -6.374979    2.444756   -3.590094
     10          6           0       -6.009645    1.214310   -2.778640
     11          6           0       -7.880751    2.667801   -3.493125
     12          6           0       -4.097360    3.713294   -3.435851
     13          6           0       -4.031948    4.665470   -4.633531
     14          1           0       -2.848431    5.494397   -4.805326
     15          7           0       -5.537349   -1.518956   -1.443242
     16          6           0       -5.843560   -1.312509   -2.746661
     17          6           0       -5.814346   -2.644556   -3.388126
     18          6           0       -5.652903   -3.663439   -2.313925
     19          6           0       -5.764764   -2.841673   -1.135976
     20          6           0       -5.884536   -2.845507   -4.870840
     21          6           0       -5.443226   -5.144404   -2.344105
     22          8           0       -5.560515   -5.869424   -1.297604
     23          6           0       -5.180468   -5.743901   -3.664939
     24          7           0       -6.052562   -1.366256    1.536128
     25          6           0       -6.192586   -2.685957    1.369497
     26          6           0       -6.386920   -3.384522    2.682577
     27          6           0       -6.106922   -2.290182    3.811194
     28          6           0       -5.866727   -1.063890    2.896436
     29          6           0       -7.770275   -4.009583    2.909819
     30          6           0       -5.036609   -2.636627    4.876476
     31          6           0       -3.670059   -2.693923    4.231220
     32          7           0       -5.289005    1.464077    1.422087
     33          6           0       -5.486506    1.366715    2.807074
     34          6           0       -5.412346    2.735084    3.351257
     35          6           0       -5.191928    3.540416    2.235595
     36          6           0       -5.158358    2.729511    1.065297
     37          6           0       -5.601071    3.101741    4.713013
     38          6           0       -5.001525    4.900045    1.757040
     39          8           0       -4.844063    5.995617    2.297799
     40          6           0       -5.119029    4.893346    0.168967
     41          6           0       -3.957269    5.678566   -0.376058
     42          8           0       -2.788129    5.259802   -0.253124
     43          8           0       -4.416884    6.668443   -1.156724
     44          6           0       -3.313860    7.468290   -1.753162
     45          1           0       -6.649174   -0.168248   -4.331839
     46          1           0       -6.155372   -4.325014    0.295414
     47          1           0       -5.758923    0.317948    4.505513
     48          1           0       -6.035691    4.493021   -2.810978
     49          1           0       -6.040386    2.331815   -4.621120
     50          1           0       -8.120905    3.465353   -2.790161
     51          1           0       -8.293860    1.719550   -3.148664
     52          1           0       -8.310971    2.841279   -4.479833
     53          1           0       -3.800398    2.783727   -3.921423
     54          1           0       -3.376036    4.031605   -2.682395
     55          1           0       -4.936179    5.269695   -4.712194
     56          1           0       -4.025386    4.067771   -5.545075
     57          1           0       -6.166664   -1.928357   -5.386383
     58          1           0       -6.711668   -3.529263   -5.060680
     59          1           0       -4.961700   -3.264443   -5.272334
     60          1           0       -6.017028   -5.529474   -4.330326
     61          1           0       -4.967483   -6.796268   -3.480523
     62          1           0       -4.307413   -5.260770   -4.104606
     63          1           0       -5.679849   -4.205064    2.797405
     64          1           0       -7.000308   -2.066664    4.394783
     65          1           0       -7.737969   -5.077710    3.126073
     66          1           0       -8.380277   -3.806995    2.029962
     67          1           0       -8.360743   -3.539485    3.695804
     68          1           0       -5.231112   -3.619826    5.303599
     69          1           0       -4.998510   -1.920157    5.697128
     70          1           0       -3.634643   -3.704317    3.825411
     71          1           0       -2.889951   -2.545839    4.978691
     72          1           0       -3.597096   -2.002711    3.391345
     73          1           0       -4.822110    3.828243    4.944062
     74          1           0       -5.540203    2.233597    5.368927
     75          1           0       -6.604998    3.523921    4.671190
     76          1           0       -6.075519    5.353760   -0.076527
     77          1           0       -3.486036    8.508608   -1.476888
     78          1           0       -3.292948    7.223646   -2.815290
     79          1           0       -2.319934    7.306025   -1.334686
     80         12           0        5.113070   -1.348531    0.306223
     81          6           0        6.421135    1.993310    0.318316
     82          6           0        5.452446   -1.309278   -3.087581
     83          6           0        3.551076   -4.108912    0.217528
     84          6           0        3.832945   -0.710373    3.484233
     85          7           0        5.853673    0.199797   -1.088932
     86          6           0        6.382342    1.407820   -0.964310
     87          6           0        6.971780    1.990476   -2.276807
     88          6           0        6.103997    1.141330   -3.327884
     89          6           0        5.809627   -0.085519   -2.467149
     90          6           0        4.782795    1.799869   -3.688588
     91          6           0        8.505438    1.694536   -2.426338
     92          6           0        9.210483    2.493578   -3.524604
     93          1           0       10.587941    2.922317   -3.298207
     94          7           0        5.020014   -2.726261   -1.119173
     95          6           0        5.206944   -2.541529   -2.442886
     96          6           0        5.010445   -3.860132   -3.064834
     97          6           0        4.530429   -4.804800   -2.019882
     98          6           0        4.324167   -3.891629   -0.913695
     99          6           0        5.349547   -4.141646   -4.499823
    100          6           0        4.284061   -6.283141   -2.020431
    101          8           0        3.640627   -6.858883   -1.073144
    102          6           0        4.736604   -7.022749   -3.207716
    103          7           0        3.693534   -2.206232    1.559866
    104          6           0        3.215117   -3.439845    1.320617
    105          6           0        2.420689   -3.954487    2.497225
    106          6           0        2.668987   -2.902891    3.676234
    107          6           0        3.529980   -1.869810    2.916733
    108          6           0        0.918181   -4.114597    2.266501
    109          6           0        3.205292   -3.466525    5.020626
    110          6           0        4.615458   -3.980170    4.839037
    111          7           0        5.263968    0.250262    1.751609
    112          6           0        4.626156    0.326234    3.009196
    113          6           0        4.941729    1.652626    3.577992
    114          6           0        5.728499    2.270054    2.593983
    115          6           0        5.874955    1.398334    1.481259
    116          6           0        4.474556    2.155575    4.824941
    117          6           0        6.459584    3.465148    2.239057
    118          8           0        6.760267    4.505264    2.823417
    119          6           0        6.835364    3.388288    0.696565
    120          6           0        8.288212    3.750741    0.553821
    121          8           0        9.171951    3.022180    1.038418
    122          8           0        8.404041    4.774094   -0.312018
    123          6           0        9.827886    5.162611   -0.495191
    124          1           0        5.304470   -1.319506   -4.167802
    125          1           0        3.080595   -5.092551    0.285297
    126          1           0        3.552700   -0.472941    4.512715
    127          1           0        6.798359    3.050067   -2.421562
    128          1           0        6.695879    0.864597   -4.196473
    129          1           0        4.591599    2.675725   -3.086538
    130          1           0        4.023006    1.048891   -3.515991
    131          1           0        4.751280    2.019912   -4.759533
    132          1           0        8.637336    0.678208   -2.819283
    133          1           0        9.013815    1.837278   -1.492627
    134          1           0        8.600290    3.332766   -3.880105
    135          1           0        9.322360    1.852708   -4.402554
    136          1           0        5.525033   -3.215435   -5.060840
    137          1           0        4.454671   -4.573224   -4.961123
    138          1           0        6.177039   -4.846272   -4.606675
    139          1           0        4.251150   -6.617538   -4.092361
    140          1           0        4.553796   -8.075453   -2.983497
    141          1           0        5.812115   -6.856173   -3.334760
    142          1           0        2.780794   -4.926399    2.811592
    143          1           0        1.741095   -2.387403    3.964565
    144          1           0        0.554162   -5.141656    2.458151
    145          1           0        0.694982   -3.815345    1.251035
    146          1           0        0.287596   -3.444767    2.848643
    147          1           0        2.602813   -4.320203    5.340618
    148          1           0        3.192393   -2.742409    5.828396
    149          1           0        4.461841   -4.985858    4.436428
    150          1           0        5.137239   -4.012515    5.793365
    151          1           0        5.151147   -3.399238    4.079302
    152          1           0        5.318201    2.635579    5.302811
    153          1           0        4.064129    1.361546    5.445289
    154          1           0        3.701766    2.847261    4.479064
    155          1           0        6.185521    4.085219    0.165944
    156          1           0        9.900014    6.229993   -0.264588
    157          1           0       10.092958    4.850248   -1.522773
    158          1           0       10.553358    4.747683    0.194708
 ---------------------------------------------------------------------

 SCF Done:  E(RCAM-B3LYP) =  -4069.81150866     A.U. after   19 cycles

 Excitation energies and oscillator strengths:

 Excited State   1:      Singlet-A      1.6569 eV  748.29 nm  f=0.0032  <S**2>=0.000
     309 -> 315       -0.11236
     310 -> 316        0.12642
     311 -> 313       -0.45490
     312 -> 314        0.51501
 This state for optimization and/or second-order correction.
 Total Energy, E(TD-HF/TD-DFT) =  -4069.75061844
 Copying the excited state density for this state as the 1-particle RhoCI density.

 Excited State   2:      Singlet-A      1.6971 eV  730.57 nm  f=0.7167  <S**2>=0.000
     309 -> 315        0.13496
     310 -> 316        0.11846
     311 -> 313        0.51312
     312 -> 314        0.45327

 Excited State   3:      Singlet-A      2.1830 eV  567.95 nm  f=0.0351  <S**2>=0.000
     309 -> 313       -0.25633
     310 -> 314        0.59079
     311 -> 315        0.10674
     312 -> 316       -0.24819

 Excited State   4:      Singlet-A      2.1949 eV  564.87 nm  f=0.1490  <S**2>=0.000
     309 -> 313        0.58725
     310 -> 314        0.25313
     311 -> 315       -0.25727
     312 -> 316       -0.11250

 Excited State   5:      Singlet-A      2.4934 eV  497.24 nm  f=0.0000  <S**2>=0.000
     312 -> 313        0.70701

 The electronic state is 1-A.
 Alpha  occ. eigenvalues --  -46.87848 -46.87491 -19.26307 -19.26204 -19.19044
 Alpha  occ. eigenvalues --  -19.19010 -19.18825 -19.18578 -19.18196 -19.17862
 Alpha  occ. eigenvalues --  -14.42501 -14.42331 -14.41506 -14.41189 -14.39449
 Alpha  occ. eigenvalues --  -14.39187 -14.38636 -14.38422 -10.39105 -10.38936
 Alpha  occ. eigenvalues --  -10.35458 -10.35259 -10.34417 -10.34039 -10.31697
 Alpha  occ. eigenvalues --  -10.31629 -10.31459 -10.31138 -10.30956 -10.30871
 Alpha  occ. eigenvalues --  -10.30621 -10.30553 -10.30264 -10.30221 -10.30185
 Alpha  occ. eigenvalues --  -10.29984 -10.29976 -10.29712 -10.29674 -10.29300
 Alpha  occ. eigenvalues --  -10.29275 -10.29232 -10.28807 -10.28622 -10.28577
 Alpha  occ. eigenvalues --  -10.28556 -10.28407 -10.28237 -10.28174 -10.27996
 Alpha  occ. eigenvalues --  -10.27833 -10.27828 -10.27780 -10.27625 -10.27586
 Alpha  occ. eigenvalues --  -10.27530 -10.27517 -10.27511 -10.27450 -10.27370
 Alpha  occ. eigenvalues --  -10.27361 -10.27315 -10.27306 -10.27203 -10.27190
 Alpha  occ. eigenvalues --  -10.26866 -10.26777 -10.26573 -10.26405 -10.26323
 Alpha  occ. eigenvalues --  -10.26319 -10.26285 -10.26079 -10.26015 -10.25884
 Alpha  occ. eigenvalues --  -10.25872 -10.25765 -10.25611 -10.25487 -10.25194
 Alpha  occ. eigenvalues --  -10.24884 -10.24872 -10.24835 -10.24691 -10.24612
 Alpha  occ. eigenvalues --  -10.24519  -3.16591  -3.16240  -1.91472  -1.91122
 Alpha  occ. eigenvalues --   -1.91059  -1.90901  -1.90711  -1.90548  -1.16656
 Alpha  occ. eigenvalues --   -1.16496  -1.08653  -1.08468  -1.07224  -1.06832
 Alpha  occ. eigenvalues --   -1.06793  -1.06666  -1.04631  -1.04330  -1.03813
 Alpha  occ. eigenvalues --   -1.03496  -1.03282  -1.02867  -1.02461  -1.01939
 Alpha  occ. eigenvalues --   -0.92016  -0.91813  -0.89597  -0.89335  -0.89246
 Alpha  occ. eigenvalues --   -0.89005  -0.88359  -0.88058  -0.87914  -0.87728
 Alpha  occ. eigenvalues --   -0.87600  -0.87522  -0.87309  -0.86984  -0.85038
 Alpha  occ. eigenvalues --   -0.84853  -0.84020  -0.83716  -0.83004  -0.82804
 Alpha  occ. eigenvalues --   -0.82696  -0.82510  -0.81626  -0.81438  -0.80639
 Alpha  occ. eigenvalues --   -0.80287  -0.78839  -0.78481  -0.77283  -0.76994
 Alpha  occ. eigenvalues --   -0.76992  -0.76747  -0.75971  -0.75685  -0.74961
 Alpha  occ. eigenvalues --   -0.74633  -0.72826  -0.72527  -0.71722  -0.71413
 Alpha  occ. eigenvalues --   -0.70012  -0.69610  -0.68926  -0.68680  -0.67684
 Alpha  occ. eigenvalues --   -0.67440  -0.67271  -0.67068  -0.65343  -0.65121
 Alpha  occ. eigenvalues --   -0.64905  -0.64677  -0.64608  -0.64500  -0.64340
 Alpha  occ. eigenvalues --   -0.64045  -0.62337  -0.62124  -0.60486  -0.60190
 Alpha  occ. eigenvalues --   -0.59857  -0.59641  -0.59039  -0.58826  -0.58552
 Alpha  occ. eigenvalues --   -0.58261  -0.57620  -0.57380  -0.57360  -0.57076
 Alpha  occ. eigenvalues --   -0.56353  -0.56042  -0.56015  -0.55741  -0.55557
 Alpha  occ. eigenvalues --   -0.55403  -0.55305  -0.55084  -0.54582  -0.54333
 Alpha  occ. eigenvalues --   -0.53951  -0.53769  -0.53346  -0.53263  -0.53073
 Alpha  occ. eigenvalues --   -0.52993  -0.52965  -0.52795  -0.52753  -0.52546
 Alpha  occ. eigenvalues --   -0.52545  -0.52263  -0.51957  -0.51668  -0.51663
 Alpha  occ. eigenvalues --   -0.51520  -0.51250  -0.51037  -0.50607  -0.50358
 Alpha  occ. eigenvalues --   -0.50113  -0.49957  -0.49837  -0.49710  -0.49555
 Alpha  occ. eigenvalues --   -0.49346  -0.49254  -0.49146  -0.49047  -0.48941
 Alpha  occ. eigenvalues --   -0.48637  -0.48513  -0.48471  -0.48397  -0.48205
 Alpha  occ. eigenvalues --   -0.48195  -0.47747  -0.47451  -0.47342  -0.46969
 Alpha  occ. eigenvalues --   -0.46861  -0.46609  -0.46552  -0.46414  -0.46412
 Alpha  occ. eigenvalues --   -0.46213  -0.46110  -0.45907  -0.45864  -0.45646
 Alpha  occ. eigenvalues --   -0.45267  -0.45038  -0.44620  -0.44562  -0.44360
 Alpha  occ. eigenvalues --   -0.44319  -0.44213  -0.44139  -0.44054  -0.43974
 Alpha  occ. eigenvalues --   -0.43929  -0.43790  -0.43538  -0.43443  -0.43399
 Alpha  occ. eigenvalues --   -0.43226  -0.43079  -0.42779  -0.42768  -0.42731
 Alpha  occ. eigenvalues --   -0.42708  -0.42402  -0.42089  -0.41817  -0.41751
 Alpha  occ. eigenvalues --   -0.41594  -0.41499  -0.41315  -0.41191  -0.40941
 Alpha  occ. eigenvalues --   -0.40850  -0.40826  -0.40643  -0.40591  -0.40561
 Alpha  occ. eigenvalues --   -0.40336  -0.40296  -0.40102  -0.39559  -0.39281
 Alpha  occ. eigenvalues --   -0.38542  -0.38189  -0.37812  -0.37519  -0.37388
 Alpha  occ. eigenvalues --   -0.37317  -0.37107  -0.37046  -0.36754  -0.36619
 Alpha  occ. eigenvalues --   -0.36244  -0.36058  -0.34336  -0.34084  -0.33798
 Alpha  occ. eigenvalues --   -0.33707  -0.33234  -0.33007  -0.31357  -0.31135
 Alpha  occ. eigenvalues --   -0.31082  -0.30807  -0.30056  -0.29766  -0.29487
 Alpha  occ. eigenvalues --   -0.29363  -0.29168  -0.29026  -0.24131  -0.23864
 Alpha  occ. eigenvalues --   -0.21178  -0.20949
 Alpha virt. eigenvalues --   -0.08818  -0.08623  -0.01799  -0.01519  -0.00089
 Alpha virt. eigenvalues --    0.00122   0.02162   0.02391   0.03022   0.03387
 Alpha virt. eigenvalues --    0.04659   0.04888   0.05071   0.05322   0.06110

 Mulliken charges:
               1
     1  Mg   0.838579
     2  C   -0.002848
     3  C   -0.094338
     4  C   -0.045703
     5  C   -0.064271
     6  N   -0.256736
     7  C   -0.052577
     8  C   -0.013962
     9  C   -0.086983
    10  C    0.046314
    11  C    0.104796
    12  C    0.053577
    13  C   -0.071565
    14  H    0.035621
    15  N   -0.433212
    16  C    0.168502
    17  C   -0.177183
    18  C   -0.003704
    19  C    0.148794
    20  C    0.110255
    21  C    0.012971
    22  O   -0.249061
    23  C    0.062323
    24  N   -0.340995
    25  C    0.041017
    26  C   -0.028340
    27  C   -0.023995
    28  C    0.074470
    29  C    0.076076
    30  C    0.035566
    31  C   -0.006226
    32  N   -0.310464
    33  C    0.080171
    34  C   -0.169892
    35  C    0.008524
    36  C    0.082895
    37  C    0.127311
    38  C    0.046263
    39  O   -0.187929
    40  C   -0.005430
    41  C    0.213013
    42  O   -0.257005
    43  O   -0.304841
    44  C    0.157514
    45  H   -0.017629
    46  H   -0.016552
    47  H   -0.041704
    48  H    0.001098
    49  H   -0.004301
    50  H    0.025624
    51  H    0.016538
    52  H    0.016644
    53  H    0.010766
    54  H    0.044193
    55  H    0.018162
    56  H    0.017551
    57  H    0.005608
    58  H    0.026989
    59  H    0.039326
    60  H    0.036968
    61  H    0.036493
    62  H    0.031573
    63  H    0.016598
    64  H    0.009762
    65  H    0.023481
    66  H    0.012764
    67  H    0.004824
    68  H    0.006632
    69  H    0.004696
    70  H    0.009713
    71  H    0.016375
    72  H    0.029383
    73  H    0.047779
    74  H    0.008760
    75  H    0.046213
    76  H    0.035243
    77  H    0.043331
    78  H    0.046001
    79  H    0.054060
    80  Mg   0.838277
    81  C   -0.016629
    82  C   -0.088128
    83  C   -0.045711
    84  C   -0.063813
    85  N   -0.254493
    86  C   -0.049261
    87  C   -0.015166
    88  C   -0.090642
    89  C    0.045922
    90  C    0.114473
    91  C    0.062649
    92  C   -0.077608
    93  H    0.034497
    94  N   -0.423341
    95  C    0.162795
    96  C   -0.175450
    97  C   -0.008123
    98  C    0.151859
    99  C    0.099778
   100  C    0.015112
   101  O   -0.253094
   102  C    0.061390
   103  N   -0.349893
   104  C    0.037444
   105  C   -0.019993
   106  C   -0.034753
   107  C    0.089126
   108  C    0.073007
   109  C    0.034668
   110  C   -0.007532
   111  N   -0.324426
   112  C    0.078917
   113  C   -0.161956
   114  C    0.002936
   115  C    0.096449
   116  C    0.131107
   117  C    0.043217
   118  O   -0.187373
   119  C    0.000616
   120  C    0.211108
   121  O   -0.251359
   122  O   -0.305446
   123  C    0.152152
   124  H   -0.020684
   125  H   -0.015477
   126  H   -0.040310
   127  H   -0.000527
   128  H   -0.005045
   129  H    0.023745
   130  H    0.014568
   131  H    0.014980
   132  H    0.013714
   133  H    0.037658
   134  H    0.020663
   135  H    0.019185
   136  H    0.008192
   137  H    0.024869
   138  H    0.039314
   139  H    0.037445
   140  H    0.036107
   141  H    0.033711
   142  H    0.014027
   143  H    0.012604
   144  H    0.025511
   145  H    0.011903
   146  H    0.006500
   147  H    0.005652
   148  H    0.003382
   149  H    0.010838
   150  H    0.017544
   151  H    0.030261
   152  H    0.045572
   153  H    0.007918
   154  H    0.050077
   155  H    0.036184
   156  H    0.043844
   157  H    0.049142
   158  H    0.053371
 Sum of Mulliken charges =  -0.00000

 Dipole moment (field-independent basis, Debye):
    X=             -3.2574    Y=             -2.1911    Z=             -7.9167  Tot=              8.8366
 Quadrupole moment (field-independent basis, Debye-Ang):
   XX=           -504.2639   YY=           -557.0181   ZZ=           -446.4522
   XY=             -7.1915   XZ=            -24.2177   YZ=            -33.1235

 Normal termination of Gaussian 16 at Fri Sep 10 17:40:34 2021.
