 Gaussian 16, Revision A.03,
 Gaussian 16:  ES64L-G16RevA.03 25-Dec-2016

 -----------------------------------
 #p cam-b3lyp/Def2SVP td=(nstates=5)
 -----------------------------------

 --------------------------------
 TDDFT excited states in gaussian
 --------------------------------
 Symbolic Z-matrix:
 Charge =  0 Multiplicity = 1

                         Standard orientation:
 ---------------------------------------------------------------------
 Center     Atomic      Atomic             Coordinates (Angstroms)
 Number     Number       Type             X           Y           Z
 ---------------------------------------------------------------------
      1         12           0        6.296529   -1.012924    0.290309
      2          6           0        6.732267    2.088270   -1.443168
      3          6           0        7.148697    0.638229    3.152225
      4          6           0        6.361518   -3.821192    1.762053
      5          6           0        6.594865   -2.608866   -2.793460
      6          7           0        6.847395    1.095929    0.677518
      7          6           0        6.918643    2.197410   -0.063314
      8          6           0        7.135521    3.492729    0.774832
      9          6           0        7.804802    2.845857    2.069288
     10          6           0        7.204659    1.453625    1.983024
     11          6           0        9.323155    2.732730    1.978138
     12          6           0        5.786969    4.207818    1.123806
     13          6           0        5.923835    5.638464    1.652839
     14          1           0        4.912183    6.619230    1.289512
     15          7           0        6.217383   -1.453050    2.214594
     16          6           0        6.589415   -0.654699    3.243922
     17          6           0        6.339634   -1.434375    4.475342
     18          6           0        5.970948   -2.819276    4.070111
     19          6           0        6.196941   -2.759550    2.648585
     20          6           0        6.411472   -0.845556    5.850799
     21          6           0        5.501139   -4.010945    4.842988
     22          8           0        5.459790   -5.181270    4.329954
     23          6           0        5.170127   -3.785097    6.261602
     24          7           0        6.673696   -2.955734   -0.373672
     25          6           0        6.580196   -3.999415    0.457576
     26          6           0        6.612398   -5.298600   -0.291437
     27          6           0        6.502904   -4.919639   -1.838742
     28          6           0        6.509406   -3.376815   -1.704874
     29          6           0        7.855554   -6.170302   -0.066248
     30          6           0        5.360526   -5.585083   -2.646564
     31          6           0        4.022998   -5.071676   -2.162283
     32          7           0        6.430868   -0.395996   -1.786323
     33          6           0        6.571628   -1.228757   -2.905862
     34          6           0        6.728753   -0.351006   -4.080142
     35          6           0        6.684804    0.939665   -3.556614
     36          6           0        6.537557    0.872086   -2.141678
     37          6           0        6.944316   -0.781080   -5.419173
     38          6           0        6.752707    2.359820   -3.860596
     39          8           0        6.779289    3.024371   -4.897494
     40          6           0        6.908505    3.158354   -2.491693
     41          6           0        5.920186    4.292427   -2.512036
     42          8           0        4.692269    4.071477   -2.484319
     43          8           0        6.569318    5.451272   -2.321651
     44          6           0        5.642723    6.614529   -2.301431
     45          1           0        7.627410    0.993467    4.066873
     46          1           0        6.279026   -4.810881    2.216088
     47          1           0        6.608069   -3.034491   -3.798508
     48          1           0        7.816387    4.216007    0.325704
     49          1           0        7.482428    3.341403    2.984838
     50          1           0        9.683403    2.997206    0.984058
     51          1           0        9.551235    1.690192    2.200822
     52          1           0        9.803017    3.318585    2.762538
     53          1           0        5.341612    3.729296    1.996007
     54          1           0        5.114649    4.203729    0.265147
     55          1           0        6.923138    6.035969    1.473144
     56          1           0        5.834462    5.611022    2.738868
     57          1           0        6.866132    0.144242    5.839479
     58          1           0        7.107930   -1.457854    6.423290
     59          1           0        5.439465   -0.835534    6.344190
     60          1           0        6.048591   -3.398990    6.779068
     61          1           0        4.767973   -4.728042    6.630353
     62          1           0        4.409104   -3.006952    6.327049
     63          1           0        5.767462   -5.929014   -0.017419
     64          1           0        7.406311   -5.183118   -2.389295
     65          1           0        7.627472   -7.172964    0.296178
     66          1           0        8.514658   -5.645289    0.624574
     67          1           0        8.499750   -6.281669   -0.938043
     68          1           0        5.365193   -6.663524   -2.492000
     69          1           0        5.429542   -5.403471   -3.719180
     70          1           0        3.818386   -5.702767   -1.298171
     71          1           0        3.262627   -5.205680   -2.932407
     72          1           0        4.096520   -4.044230   -1.805302
     73          1           0        6.301794   -0.162298   -6.045466
     74          1           0        6.712373   -1.839301   -5.537380
     75          1           0        8.008225   -0.571913   -5.529645
     76          1           0        7.937891    3.513095   -2.451134
     77          1           0        5.990571    7.315204   -3.060569
     78          1           0        5.606185    6.963685   -1.269364
     79          1           0        4.625225    6.426349   -2.645852
     80         12           0       -6.907872   -0.303750   -0.233997
     81          6           0       -4.319174    2.086887    0.446123
     82          6           0       -9.065764    1.802860    1.359837
     83          6           0       -9.110099   -2.580543   -0.418014
     84          6           0       -4.399078   -2.670819   -0.732621
     85          7           0       -6.611624    1.662318    0.735051
     86          6           0       -5.596501    2.501069    0.877790
     87          6           0       -5.986407    3.891924    1.446156
     88          6           0       -7.337047    3.471120    2.206125
     89          6           0       -7.722322    2.255898    1.365004
     90          6           0       -7.104579    3.008750    3.634934
     91          6           0       -6.267222    4.942517    0.315043
     92          6           0       -6.350497    6.394192    0.791949
     93          1           0       -5.840176    7.445049   -0.084268
     94          7           0       -8.882555   -0.196949   -0.067268
     95          6           0       -9.593689    0.737826    0.597392
     96          6           0      -11.006011    0.359254    0.435620
     97          6           0      -11.062107   -0.965850   -0.239408
     98          6           0       -9.656011   -1.316401   -0.249258
     99          6           0      -12.140219    1.259837    0.830543
    100          6           0      -12.195194   -1.788015   -0.774532
    101          8           0      -12.037903   -3.015840   -1.106988
    102          6           0      -13.514944   -1.141104   -0.810082
    103          7           0       -6.787997   -2.377383   -0.323721
    104          6           0       -7.895452   -3.128949   -0.452550
    105          6           0       -7.547249   -4.563006   -0.772913
    106          6           0       -5.976300   -4.567067   -1.072374
    107          6           0       -5.657801   -3.085735   -0.773073
    108          6           0       -7.859123   -5.583687    0.321310
    109          6           0       -5.520868   -5.160604   -2.433621
    110          6           0       -5.991620   -4.276156   -3.565674
    111          7           0       -4.750301   -0.283409   -0.345976
    112          6           0       -3.895570   -1.391248   -0.536233
    113          6           0       -2.508504   -0.895068   -0.425397
    114          6           0       -2.653943    0.473626   -0.153336
    115          6           0       -4.034316    0.802989   -0.078462
    116          6           0       -1.330805   -1.688330   -0.524708
    117          6           0       -1.953638    1.712601    0.098076
    118          8           0       -0.774952    2.064552    0.074033
    119          6           0       -3.000557    2.787368    0.622702
    120          6           0       -2.777650    4.064081   -0.140749
    121          8           0       -2.995059    4.115108   -1.364158
    122          8           0       -2.555506    5.065269    0.730254
    123          6           0       -2.339709    6.354581    0.021091
    124          1           0       -9.776815    2.280082    2.034774
    125          1           0       -9.828194   -3.384214   -0.596686
    126          1           0       -3.560017   -3.327346   -0.972662
    127          1           0       -5.277677    4.309460    2.151241
    128          1           0       -8.094137    4.246721    2.124708
    129          1           0       -6.052856    2.926971    3.865863
    130          1           0       -7.585402    2.042455    3.713333
    131          1           0       -7.631085    3.664957    4.333879
    132          1           0       -7.292194    4.806685   -0.053359
    133          1           0       -5.540342    4.861064   -0.469593
    134          1           0       -5.957870    6.517221    1.808647
    135          1           0       -7.403969    6.671941    0.876038
    136          1           0      -11.793138    2.095475    1.450740
    137          1           0      -12.791737    0.681221    1.494307
    138          1           0      -12.723782    1.602807   -0.026492
    139          1           0      -13.792050   -0.830479    0.194503
    140          1           0      -14.176586   -1.854022   -1.305902
    141          1           0      -13.441251   -0.228805   -1.412505
    142          1           0       -8.074355   -4.900774   -1.656756
    143          1           0       -5.422051   -5.163329   -0.332707
    144          1           0       -8.527223   -6.397473   -0.018498
    145          1           0       -8.294554   -5.060352    1.162179
    146          1           0       -6.989078   -6.059388    0.770674
    147          1           0       -5.980263   -6.139272   -2.592735
    148          1           0       -4.446748   -5.292895   -2.509439
    149          1           0       -7.022437   -4.606607   -3.724737
    150          1           0       -5.384387   -4.435734   -4.454408
    151          1           0       -6.026450   -3.225271   -3.255723
    152          1           0       -0.633056   -1.134268   -1.138436
    153          1           0       -1.545143   -2.666781   -0.949524
    154          1           0       -1.048693   -1.751474    0.529657
    155          1           0       -2.830719    2.915090    1.692471
    156          1           0       -1.375427    6.747195    0.358292
    157          1           0       -3.235669    6.967014    0.235383
    158          1           0       -2.189573    6.317595   -1.051552
 ---------------------------------------------------------------------

 SCF Done:  E(RCAM-B3LYP) =  -4069.81073423     A.U. after   19 cycles

 Excitation energies and oscillator strengths:

 Excited State   1:      Singlet-A      1.6740 eV  740.64 nm  f=0.3742  <S**2>=0.000
     309 -> 315        0.15539
     311 -> 313        0.61549
     312 -> 314       -0.30312
 This state for optimization and/or second-order correction.
 Total Energy, E(TD-HF/TD-DFT) =  -4069.74921495
 Copying the excited state density for this state as the 1-particle RhoCI density.

 Excited State   2:      Singlet-A      1.6810 eV  737.55 nm  f=0.4146  <S**2>=0.000
     310 -> 316        0.15693
     311 -> 313        0.30306
     312 -> 314        0.61505

 Excited State   3:      Singlet-A      2.1842 eV  567.64 nm  f=0.0093  <S**2>=0.000
     309 -> 313        0.53842
     310 -> 314       -0.35228
     311 -> 315       -0.22761
     312 -> 316        0.14839

 Excited State   4:      Singlet-A      2.1918 eV  565.67 nm  f=0.1762  <S**2>=0.000
     309 -> 313        0.35030
     310 -> 314        0.53590
     311 -> 315       -0.15175
     312 -> 316       -0.23306

 Excited State   5:      Singlet-A      2.5985 eV  477.14 nm  f=0.0000  <S**2>=0.000
     312 -> 313        0.70638

 The electronic state is 1-A.
 Alpha  occ. eigenvalues --  -46.87542 -46.87442 -19.26178 -19.25852 -19.18961
 Alpha  occ. eigenvalues --  -19.18608 -19.18550 -19.18524 -19.17850 -19.17816
 Alpha  occ. eigenvalues --  -14.42386 -14.42099 -14.41242 -14.41126 -14.39233
 Alpha  occ. eigenvalues --  -14.39062 -14.38472 -14.38231 -10.38903 -10.38602
 Alpha  occ. eigenvalues --  -10.35288 -10.35187 -10.34032 -10.34030 -10.31600
 Alpha  occ. eigenvalues --  -10.31289 -10.31187 -10.31050 -10.30915 -10.30556
 Alpha  occ. eigenvalues --  -10.30270 -10.30229 -10.30222 -10.30178 -10.30037
 Alpha  occ. eigenvalues --  -10.29915 -10.29771 -10.29609 -10.29324 -10.29306
 Alpha  occ. eigenvalues --  -10.29272 -10.28936 -10.28625 -10.28571 -10.28368
 Alpha  occ. eigenvalues --  -10.28280 -10.28147 -10.28051 -10.28016 -10.27866
 Alpha  occ. eigenvalues --  -10.27768 -10.27557 -10.27464 -10.27417 -10.27394
 Alpha  occ. eigenvalues --  -10.27369 -10.27363 -10.27342 -10.27274 -10.27268
 Alpha  occ. eigenvalues --  -10.27264 -10.27214 -10.27199 -10.27053 -10.26897
 Alpha  occ. eigenvalues --  -10.26778 -10.26592 -10.26327 -10.26232 -10.26185
 Alpha  occ. eigenvalues --  -10.26040 -10.25999 -10.25961 -10.25932 -10.25817
 Alpha  occ. eigenvalues --  -10.25709 -10.25684 -10.25545 -10.25308 -10.25227
 Alpha  occ. eigenvalues --  -10.24734 -10.24627 -10.24570 -10.24524 -10.24494
 Alpha  occ. eigenvalues --  -10.24471  -3.16291  -3.16182  -1.91174  -1.91063
 Alpha  occ. eigenvalues --   -1.90762  -1.90651  -1.90599  -1.90493  -1.16466
 Alpha  occ. eigenvalues --   -1.16191  -1.08452  -1.08265  -1.06956  -1.06862
 Alpha  occ. eigenvalues --   -1.06748  -1.06160  -1.04380  -1.04230  -1.03545
 Alpha  occ. eigenvalues --   -1.03434  -1.02918  -1.02899  -1.02077  -1.01989
 Alpha  occ. eigenvalues --   -0.91854  -0.91619  -0.89379  -0.89243  -0.89055
 Alpha  occ. eigenvalues --   -0.88824  -0.88112  -0.88016  -0.87653  -0.87570
 Alpha  occ. eigenvalues --   -0.87545  -0.87333  -0.87008  -0.86975  -0.84895
 Alpha  occ. eigenvalues --   -0.84630  -0.83765  -0.83681  -0.82828  -0.82705
 Alpha  occ. eigenvalues --   -0.82545  -0.82316  -0.81457  -0.81227  -0.80316
 Alpha  occ. eigenvalues --   -0.80257  -0.78515  -0.78487  -0.77036  -0.76916
 Alpha  occ. eigenvalues --   -0.76785  -0.76596  -0.75721  -0.75582  -0.74692
 Alpha  occ. eigenvalues --   -0.74621  -0.72575  -0.72455  -0.71468  -0.71355
 Alpha  occ. eigenvalues --   -0.69672  -0.69653  -0.68719  -0.68537  -0.67477
 Alpha  occ. eigenvalues --   -0.67318  -0.67095  -0.66857  -0.65159  -0.64925
 Alpha  occ. eigenvalues --   -0.64649  -0.64531  -0.64520  -0.64290  -0.64089
 Alpha  occ. eigenvalues --   -0.63981  -0.62134  -0.61929  -0.60226  -0.60147
 Alpha  occ. eigenvalues --   -0.59690  -0.59451  -0.58869  -0.58661  -0.58297
 Alpha  occ. eigenvalues --   -0.58175  -0.57396  -0.57214  -0.57113  -0.56990
 Alpha  occ. eigenvalues --   -0.56078  -0.55990  -0.55748  -0.55596  -0.55329
 Alpha  occ. eigenvalues --   -0.55216  -0.55122  -0.55042  -0.54355  -0.54190
 Alpha  occ. eigenvalues --   -0.53811  -0.53528  -0.53109  -0.53022  -0.52997
 Alpha  occ. eigenvalues --   -0.52888  -0.52771  -0.52568  -0.52568  -0.52452
 Alpha  occ. eigenvalues --   -0.52290  -0.52192  -0.51730  -0.51593  -0.51550
 Alpha  occ. eigenvalues --   -0.51262  -0.51061  -0.50868  -0.50376  -0.50305
 Alpha  occ. eigenvalues --   -0.49878  -0.49782  -0.49759  -0.49617  -0.49378
 Alpha  occ. eigenvalues --   -0.49185  -0.49078  -0.48977  -0.48880  -0.48760
 Alpha  occ. eigenvalues --   -0.48424  -0.48259  -0.48256  -0.48207  -0.48178
 Alpha  occ. eigenvalues --   -0.48133  -0.47478  -0.47383  -0.47005  -0.46991
 Alpha  occ. eigenvalues --   -0.46594  -0.46489  -0.46450  -0.46195  -0.46148
 Alpha  occ. eigenvalues --   -0.46047  -0.45956  -0.45835  -0.45679  -0.45479
 Alpha  occ. eigenvalues --   -0.45099  -0.44933  -0.44396  -0.44353  -0.44239
 Alpha  occ. eigenvalues --   -0.44218  -0.44010  -0.43961  -0.43862  -0.43811
 Alpha  occ. eigenvalues --   -0.43758  -0.43686  -0.43420  -0.43266  -0.43148
 Alpha  occ. eigenvalues --   -0.43063  -0.42796  -0.42748  -0.42705  -0.42445
 Alpha  occ. eigenvalues --   -0.42427  -0.42273  -0.41853  -0.41713  -0.41525
 Alpha  occ. eigenvalues --   -0.41373  -0.41354  -0.41190  -0.40876  -0.40823
 Alpha  occ. eigenvalues --   -0.40621  -0.40599  -0.40560  -0.40536  -0.40384
 Alpha  occ. eigenvalues --   -0.40283  -0.40132  -0.39833  -0.39321  -0.39215
 Alpha  occ. eigenvalues --   -0.38247  -0.38191  -0.37551  -0.37376  -0.37155
 Alpha  occ. eigenvalues --   -0.37086  -0.37027  -0.36894  -0.36608  -0.36329
 Alpha  occ. eigenvalues --   -0.36087  -0.35822  -0.34129  -0.33945  -0.33675
 Alpha  occ. eigenvalues --   -0.33302  -0.33050  -0.32837  -0.31168  -0.31079
 Alpha  occ. eigenvalues --   -0.30854  -0.30699  -0.29753  -0.29671  -0.29204
 Alpha  occ. eigenvalues --   -0.29126  -0.29069  -0.28980  -0.23916  -0.23737
 Alpha  occ. eigenvalues --   -0.20997  -0.20798
 Alpha virt. eigenvalues --   -0.08666  -0.08445  -0.01569  -0.01426   0.00089
 Alpha virt. eigenvalues --    0.00257   0.02361   0.02536   0.03355   0.03613
 Alpha virt. eigenvalues --    0.04834   0.05064   0.05353   0.05553   0.06278

 Mulliken charges:
               1
     1  Mg   0.842177
     2  C   -0.000614
     3  C   -0.093662
     4  C   -0.046574
     5  C   -0.064712
     6  N   -0.256644
     7  C   -0.051153
     8  C   -0.014796
     9  C   -0.087258
    10  C    0.047229
    11  C    0.105050
    12  C    0.053511
    13  C   -0.070988
    14  H    0.035415
    15  N   -0.432835
    16  C    0.169034
    17  C   -0.177234
    18  C   -0.004428
    19  C    0.148815
    20  C    0.110421
    21  C    0.011854
    22  O   -0.250761
    23  C    0.062574
    24  N   -0.341178
    25  C    0.041095
    26  C   -0.027901
    27  C   -0.023893
    28  C    0.075001
    29  C    0.076438
    30  C    0.035400
    31  C   -0.004569
    32  N   -0.310719
    33  C    0.081150
    34  C   -0.169600
    35  C    0.008360
    36  C    0.084649
    37  C    0.127158
    38  C    0.047304
    39  O   -0.188531
    40  C   -0.006009
    41  C    0.211666
    42  O   -0.252300
    43  O   -0.305760
    44  C    0.157911
    45  H   -0.018378
    46  H   -0.017902
    47  H   -0.042282
    48  H    0.000182
    49  H   -0.004295
    50  H    0.025104
    51  H    0.015940
    52  H    0.015814
    53  H    0.012981
    54  H    0.048052
    55  H    0.016422
    56  H    0.017142
    57  H    0.005670
    58  H    0.025870
    59  H    0.039297
    60  H    0.037034
    61  H    0.034573
    62  H    0.031630
    63  H    0.015608
    64  H    0.009006
    65  H    0.022381
    66  H    0.012530
    67  H    0.004247
    68  H    0.005419
    69  H    0.004585
    70  H    0.007754
    71  H    0.016665
    72  H    0.030651
    73  H    0.048050
    74  H    0.008477
    75  H    0.045361
    76  H    0.034191
    77  H    0.041580
    78  H    0.045561
    79  H    0.054935
    80  Mg   0.837760
    81  C   -0.016643
    82  C   -0.087891
    83  C   -0.045603
    84  C   -0.065018
    85  N   -0.254439
    86  C   -0.050001
    87  C   -0.014929
    88  C   -0.090457
    89  C    0.045562
    90  C    0.114528
    91  C    0.062588
    92  C   -0.077673
    93  H    0.034981
    94  N   -0.423390
    95  C    0.162705
    96  C   -0.174911
    97  C   -0.008031
    98  C    0.151965
    99  C    0.099494
   100  C    0.015416
   101  O   -0.253471
   102  C    0.061257
   103  N   -0.350087
   104  C    0.037330
   105  C   -0.019724
   106  C   -0.034868
   107  C    0.089086
   108  C    0.073744
   109  C    0.034783
   110  C   -0.007637
   111  N   -0.324319
   112  C    0.078676
   113  C   -0.162503
   114  C    0.002937
   115  C    0.096426
   116  C    0.130727
   117  C    0.042704
   118  O   -0.184380
   119  C    0.000329
   120  C    0.212590
   121  O   -0.249839
   122  O   -0.306445
   123  C    0.152097
   124  H   -0.020121
   125  H   -0.015848
   126  H   -0.040315
   127  H   -0.001095
   128  H   -0.004551
   129  H    0.021968
   130  H    0.014340
   131  H    0.015774
   132  H    0.013921
   133  H    0.038250
   134  H    0.020226
   135  H    0.019326
   136  H    0.008469
   137  H    0.025743
   138  H    0.039561
   139  H    0.038051
   140  H    0.036128
   141  H    0.033863
   142  H    0.014264
   143  H    0.012397
   144  H    0.024894
   145  H    0.011465
   146  H    0.005559
   147  H    0.005979
   148  H    0.003615
   149  H    0.010777
   150  H    0.017930
   151  H    0.030431
   152  H    0.048310
   153  H    0.008405
   154  H    0.046324
   155  H    0.033857
   156  H    0.043118
   157  H    0.048512
   158  H    0.055097
 Sum of Mulliken charges =  -0.00000

 Dipole moment (field-independent basis, Debye):
    X=             -1.4879    Y=              1.8821    Z=              6.5208  Tot=              6.9482
 Quadrupole moment (field-independent basis, Debye-Ang):
   XX=           -465.9858   YY=           -479.9678   ZZ=           -508.8020
   XY=            -30.7551   XZ=              6.1881   YZ=             45.9593

 Normal termination of Gaussian 16 at Sat Sep 11 11:23:41 2021.
