 Gaussian 16, Revision A.03,
 Gaussian 16:  ES64L-G16RevA.03 25-Dec-2016

 -----------------------------------
 #p cam-b3lyp/Def2SVP td=(nstates=5)
 -----------------------------------

 --------------------------------
 TDDFT excited states in gaussian
 --------------------------------
 Symbolic Z-matrix:
 Charge =  0 Multiplicity = 1

                         Standard orientation:
 ---------------------------------------------------------------------
 Center     Atomic      Atomic             Coordinates (Angstroms)
 Number     Number       Type             X           Y           Z
 ---------------------------------------------------------------------
      1         12           0        6.465165    0.916114    0.361107
      2          6           0        7.166219   -2.391651   -0.813384
      3          6           0        7.217951    2.028895   -2.775466
      4          6           0        6.294568    3.875489    1.487879
      5          6           0        6.875896   -0.305648    3.599048
      6          7           0        7.096889   -0.144284   -1.476589
      7          6           0        7.270536   -1.419249   -1.810478
      8          6           0        7.499634   -1.632525   -3.336716
      9          6           0        8.052267   -0.185109   -3.712989
     10          6           0        7.388841    0.622187   -2.611144
     11          6           0        9.565640   -0.055571   -3.573616
     12          6           0        6.169815   -1.953839   -4.098339
     13          6           0        6.345521   -2.493647   -5.520692
     14          1           0        5.409893   -3.494743   -6.010340
     15          7           0        6.242619    2.636262   -0.584627
     16          6           0        6.589075    2.906632   -1.866092
     17          6           0        6.222894    4.320480   -2.097669
     18          6           0        5.810646    4.903675   -0.790753
     19          6           0        6.128547    3.821914    0.105970
     20          6           0        6.237681    4.963302   -3.450559
     21          6           0        5.233148    6.229928   -0.409071
     22          8           0        5.164854    6.617340    0.807408
     23          6           0        4.825257    7.112276   -1.517281
     24          7           0        6.784306    1.735316    2.254436
     25          6           0        6.585716    3.037735    2.485199
     26          6           0        6.599067    3.340206    3.954304
     27          6           0        6.606719    1.926484    4.696656
     28          6           0        6.683098    1.007171    3.452751
     29          6           0        7.779686    4.184876    4.452985
     30          6           0        5.485229    1.671240    5.734697
     31          6           0        4.147628    1.585065    5.034344
     32          7           0        6.761304   -1.030089    1.275243
     33          6           0        6.929897   -1.303556    2.640331
     34          6           0        7.205104   -2.747086    2.760950
     35          6           0        7.193829   -3.213108    1.447732
     36          6           0        6.954432   -2.124708    0.560959
     37          6           0        7.482538   -3.444414    3.969750
     38          6           0        7.352780   -4.373047    0.585680
     39          8           0        7.478387   -5.583724    0.775353
     40          6           0        7.462314   -3.866935   -0.920201
     41          6           0        6.536104   -4.711580   -1.752077
     42          8           0        5.299250   -4.644155   -1.600372
     43          8           0        7.229943   -5.282979   -2.748386
     44          6           0        6.364179   -6.111660   -3.629234
     45          1           0        7.655470    2.515203   -3.649551
     46          1           0        6.133471    4.861686    1.928222
     47          1           0        6.930807   -0.773104    4.583894
     48          1           0        8.243303   -2.390594   -3.583109
     49          1           0        7.698394    0.144362   -4.689690
     50          1           0       10.000803   -0.942898   -3.114045
     51          1           0        9.725998    0.818063   -2.941523
     52          1           0       10.024224    0.181232   -4.534033
     53          1           0        5.646637   -1.022853   -4.316536
     54          1           0        5.553626   -2.646119   -3.523547
     55          1           0        7.373058   -2.809637   -5.702980
     56          1           0        6.186583   -1.672483   -6.219711
     57          1           0        6.741820    4.337422   -4.185857
     58          1           0        6.864674    5.851427   -3.374247
     59          1           0        5.238268    5.246186   -3.781440
     60          1           0        5.687820    7.314180   -2.152709
     61          1           0        4.353298    7.978102   -1.054194
     62          1           0        4.102115    6.585262   -2.140395
     63          1           0        5.707619    3.892988    4.247866
     64          1           0        7.528491    1.762925    5.255457
     65          1           0        7.478593    5.099527    4.964318
     66          1           0        8.419732    4.406569    3.599473
     67          1           0        8.471073    3.660151    5.111822
     68          1           0        5.425378    2.499717    6.439672
     69          1           0        5.630860    0.756539    6.309471
     70          1           0        3.857168    2.630322    4.934829
     71          1           0        3.431500    1.037584    5.648051
     72          1           0        4.250573    1.178263    4.028163
     73          1           0        6.913027   -4.372604    3.924044
     74          1           0        7.205077   -2.851939    4.841296
     75          1           0        8.560540   -3.579054    3.882346
     76          1           0        8.503777   -3.987903   -1.216585
     77          1           0        6.794320   -7.113007   -3.651945
     78          1           0        6.280425   -5.575392   -4.574648
     79          1           0        5.362179   -6.326520   -3.256180
     80         12           0       -6.631846   -0.997466    0.236152
     81          6           0       -6.878486    2.215223   -1.344012
     82          6           0       -6.016225    0.652738    3.157183
     83          6           0       -5.964304   -3.800929    1.563713
     84          6           0       -6.130184   -2.362199   -2.931111
     85          7           0       -6.491596    1.156841    0.717344
     86          6           0       -6.664520    2.286808    0.048297
     87          6           0       -6.684745    3.561767    0.933516
     88          6           0       -5.847012    3.000172    2.183188
     89          6           0       -6.160875    1.512420    2.039093
     90          6           0       -4.346342    3.188259    2.035086
     91          6           0       -8.138886    3.973619    1.355256
     92          6           0       -8.261109    5.374825    1.958098
     93          1           0       -9.465263    6.151303    1.675988
     94          7           0       -6.556795   -1.528246    2.146958
     95          6           0       -6.318209   -0.725957    3.205587
     96          6           0       -6.348047   -1.600611    4.388064
     97          6           0       -6.460048   -3.010740    3.925768
     98          6           0       -6.307103   -2.832274    2.495785
     99          6           0       -6.353063   -1.070414    5.792444
    100          6           0       -6.657645   -4.306899    4.651792
    101          8           0       -6.487216   -5.436745    4.071074
    102          6           0       -6.965248   -4.214417    6.086473
    103          7           0       -5.911711   -2.787945   -0.537104
    104          6           0       -5.761360   -3.869215    0.247859
    105          6           0       -5.496534   -5.107738   -0.574529
    106          6           0       -5.741335   -4.674687   -2.094439
    107          6           0       -6.031193   -3.172067   -1.885891
    108          6           0       -4.099210   -5.711728   -0.436455
    109          6           0       -6.758951   -5.517376   -2.911141
    110          6           0       -8.153419   -5.315761   -2.363222
    111          7           0       -6.702032   -0.273568   -1.798331
    112          6           0       -6.433542   -1.007410   -2.974546
    113          6           0       -6.496578   -0.057540   -4.104241
    114          6           0       -6.776866    1.177158   -3.499721
    115          6           0       -6.861179    1.012372   -2.090743
    116          6           0       -6.259533   -0.374222   -5.471588
    117          6           0       -7.010068    2.584382   -3.732193
    118          8           0       -7.145759    3.288935   -4.731661
    119          6           0       -6.961052    3.342175   -2.335867
    120          6           0       -8.153851    4.255482   -2.260920
    121          8           0       -9.305993    3.788725   -2.224551
    122          8           0       -7.732903    5.511687   -2.026131
    123          6           0       -8.880635    6.452820   -1.932451
    124          1           0       -5.591489    1.061545    4.074445
    125          1           0       -5.832416   -4.810528    1.959668
    126          1           0       -6.082166   -2.727440   -3.959209
    127          1           0       -6.182223    4.420499    0.504750
    128          1           0       -6.235922    3.382596    3.123334
    129          1           0       -4.081832    3.563248    1.057559
    130          1           0       -3.910080    2.211142    2.196249
    131          1           0       -3.965081    3.824801    2.838699
    132          1           0       -8.445653    3.370005    2.219144
    133          1           0       -8.817283    3.874741    0.530256
    134          1           0       -7.363509    5.979619    1.780675
    135          1           0       -8.310789    5.281559    3.045689
    136          1           0       -6.097114   -0.004067    5.820735
    137          1           0       -5.529856   -1.561495    6.322568
    138          1           0       -7.286956   -1.279846    6.318398
    139          1           0       -6.163945   -3.682711    6.594086
    140          1           0       -7.159828   -5.238720    6.410255
    141          1           0       -7.871673   -3.611661    6.211791
    142          1           0       -6.191266   -5.898097   -0.318060
    143          1           0       -4.818428   -4.737056   -2.689578
    144          1           0       -4.111080   -6.770228   -0.114726
    145          1           0       -3.534030   -5.108454    0.261522
    146          1           0       -3.484606   -5.663670   -1.333757
    147          1           0       -6.536562   -6.582447   -2.809564
    148          1           0       -6.757413   -5.287749   -3.971453
    149          1           0       -8.192098   -6.015744   -1.523223
    150          1           0       -8.899929   -5.560914   -3.115995
    151          1           0       -8.273964   -4.305175   -1.955988
    152          1           0       -7.026226    0.129364   -6.045243
    153          1           0       -6.277631   -1.449019   -5.639688
    154          1           0       -5.257392    0.044178   -5.597802
    155          1           0       -6.020533    3.892917   -2.294856
    156          1           0       -8.702933    7.247224   -2.663909
    157          1           0       -8.936470    6.750936   -0.868607
    158          1           0       -9.852761    6.090490   -2.245723
 ---------------------------------------------------------------------

 SCF Done:  E(RCAM-B3LYP) =  -4069.81185857     A.U. after   19 cycles

 Excitation energies and oscillator strengths:

 Excited State   1:      Singlet-A      1.6687 eV  743.01 nm  f=0.1136  <S**2>=0.000
     309 -> 315        0.10252
     310 -> 316        0.13844
     311 -> 313        0.40807
     312 -> 314        0.55198
 This state for optimization and/or second-order correction.
 Total Energy, E(TD-HF/TD-DFT) =  -4069.75053591
 Copying the excited state density for this state as the 1-particle RhoCI density.

 Excited State   2:      Singlet-A      1.6857 eV  735.50 nm  f=0.6248  <S**2>=0.000
     309 -> 315        0.14229
     310 -> 316       -0.10472
     311 -> 313        0.55103
     312 -> 314       -0.40742

 Excited State   3:      Singlet-A      2.1851 eV  567.42 nm  f=0.0645  <S**2>=0.000
     309 -> 313        0.16732
     310 -> 314        0.62090
     312 -> 316       -0.26276

 Excited State   4:      Singlet-A      2.1934 eV  565.27 nm  f=0.1286  <S**2>=0.000
     309 -> 313        0.61850
     310 -> 314       -0.16601
     311 -> 315       -0.26913

 Excited State   5:      Singlet-A      2.6510 eV  467.69 nm  f=0.0000  <S**2>=0.000
     312 -> 313        0.70710

 The electronic state is 1-A.
 Alpha  occ. eigenvalues --  -46.87854 -46.87555 -19.26327 -19.26302 -19.19106
 Alpha  occ. eigenvalues --  -19.19066 -19.18874 -19.18606 -19.18216 -19.17981
 Alpha  occ. eigenvalues --  -14.42504 -14.42393 -14.41512 -14.41247 -14.39459
 Alpha  occ. eigenvalues --  -14.39247 -14.38643 -14.38500 -10.39126 -10.39034
 Alpha  occ. eigenvalues --  -10.35505 -10.35283 -10.34436 -10.34159 -10.31720
 Alpha  occ. eigenvalues --  -10.31720 -10.31455 -10.31215 -10.30958 -10.30921
 Alpha  occ. eigenvalues --  -10.30623 -10.30568 -10.30296 -10.30272 -10.30268
 Alpha  occ. eigenvalues --  -10.30020 -10.29988 -10.29779 -10.29685 -10.29329
 Alpha  occ. eigenvalues --  -10.29309 -10.29307 -10.28788 -10.28631 -10.28589
 Alpha  occ. eigenvalues --  -10.28566 -10.28417 -10.28306 -10.28154 -10.28045
 Alpha  occ. eigenvalues --  -10.27907 -10.27845 -10.27778 -10.27637 -10.27591
 Alpha  occ. eigenvalues --  -10.27567 -10.27538 -10.27509 -10.27457 -10.27384
 Alpha  occ. eigenvalues --  -10.27377 -10.27375 -10.27369 -10.27217 -10.27205
 Alpha  occ. eigenvalues --  -10.26980 -10.26739 -10.26617 -10.26452 -10.26313
 Alpha  occ. eigenvalues --  -10.26303 -10.26268 -10.26082 -10.26019 -10.25915
 Alpha  occ. eigenvalues --  -10.25895 -10.25828 -10.25790 -10.25518 -10.25169
 Alpha  occ. eigenvalues --  -10.24884 -10.24850 -10.24833 -10.24781 -10.24625
 Alpha  occ. eigenvalues --  -10.24575  -3.16597  -3.16304  -1.91479  -1.91187
 Alpha  occ. eigenvalues --   -1.91065  -1.90907  -1.90775  -1.90612  -1.16676
 Alpha  occ. eigenvalues --   -1.16594  -1.08673  -1.08592  -1.07276  -1.06891
 Alpha  occ. eigenvalues --   -1.06856  -1.06688  -1.04634  -1.04394  -1.03821
 Alpha  occ. eigenvalues --   -1.03557  -1.03291  -1.02930  -1.02469  -1.02006
 Alpha  occ. eigenvalues --   -0.92024  -0.91895  -0.89599  -0.89382  -0.89229
 Alpha  occ. eigenvalues --   -0.89057  -0.88366  -0.88090  -0.87922  -0.87725
 Alpha  occ. eigenvalues --   -0.87709  -0.87581  -0.87321  -0.87022  -0.85028
 Alpha  occ. eigenvalues --   -0.84905  -0.84023  -0.83748  -0.83024  -0.82822
 Alpha  occ. eigenvalues --   -0.82698  -0.82557  -0.81636  -0.81521  -0.80649
 Alpha  occ. eigenvalues --   -0.80354  -0.78846  -0.78540  -0.77279  -0.77048
 Alpha  occ. eigenvalues --   -0.76987  -0.76801  -0.75970  -0.75751  -0.74969
 Alpha  occ. eigenvalues --   -0.74666  -0.72831  -0.72600  -0.71728  -0.71466
 Alpha  occ. eigenvalues --   -0.70004  -0.69633  -0.68921  -0.68734  -0.67696
 Alpha  occ. eigenvalues --   -0.67503  -0.67262  -0.67111  -0.65334  -0.65182
 Alpha  occ. eigenvalues --   -0.64911  -0.64679  -0.64673  -0.64561  -0.64344
 Alpha  occ. eigenvalues --   -0.64086  -0.62351  -0.62201  -0.60498  -0.60232
 Alpha  occ. eigenvalues --   -0.59849  -0.59703  -0.59046  -0.58889  -0.58561
 Alpha  occ. eigenvalues --   -0.58328  -0.57634  -0.57482  -0.57372  -0.57129
 Alpha  occ. eigenvalues --   -0.56361  -0.56115  -0.56025  -0.55813  -0.55572
 Alpha  occ. eigenvalues --   -0.55412  -0.55365  -0.55139  -0.54591  -0.54386
 Alpha  occ. eigenvalues --   -0.53937  -0.53820  -0.53356  -0.53268  -0.53129
 Alpha  occ. eigenvalues --   -0.53052  -0.52971  -0.52815  -0.52802  -0.52571
 Alpha  occ. eigenvalues --   -0.52538  -0.52289  -0.51968  -0.51812  -0.51659
 Alpha  occ. eigenvalues --   -0.51571  -0.51255  -0.51113  -0.50617  -0.50372
 Alpha  occ. eigenvalues --   -0.50111  -0.49968  -0.49878  -0.49736  -0.49562
 Alpha  occ. eigenvalues --   -0.49392  -0.49264  -0.49140  -0.49115  -0.49015
 Alpha  occ. eigenvalues --   -0.48644  -0.48529  -0.48497  -0.48473  -0.48256
 Alpha  occ. eigenvalues --   -0.48232  -0.47749  -0.47496  -0.47350  -0.47009
 Alpha  occ. eigenvalues --   -0.46859  -0.46606  -0.46599  -0.46458  -0.46419
 Alpha  occ. eigenvalues --   -0.46223  -0.46169  -0.45978  -0.45873  -0.45741
 Alpha  occ. eigenvalues --   -0.45276  -0.45066  -0.44630  -0.44562  -0.44427
 Alpha  occ. eigenvalues --   -0.44381  -0.44213  -0.44135  -0.44068  -0.44035
 Alpha  occ. eigenvalues --   -0.43973  -0.43850  -0.43547  -0.43474  -0.43442
 Alpha  occ. eigenvalues --   -0.43284  -0.43084  -0.42860  -0.42804  -0.42770
 Alpha  occ. eigenvalues --   -0.42723  -0.42435  -0.42083  -0.41862  -0.41759
 Alpha  occ. eigenvalues --   -0.41582  -0.41575  -0.41362  -0.41195  -0.40928
 Alpha  occ. eigenvalues --   -0.40879  -0.40878  -0.40645  -0.40623  -0.40598
 Alpha  occ. eigenvalues --   -0.40371  -0.40273  -0.40141  -0.39546  -0.39304
 Alpha  occ. eigenvalues --   -0.38545  -0.38220  -0.37792  -0.37567  -0.37391
 Alpha  occ. eigenvalues --   -0.37309  -0.37153  -0.37105  -0.36769  -0.36700
 Alpha  occ. eigenvalues --   -0.36253  -0.36109  -0.34343  -0.34152  -0.33819
 Alpha  occ. eigenvalues --   -0.33798  -0.33243  -0.33073  -0.31404  -0.31164
 Alpha  occ. eigenvalues --   -0.31092  -0.30869  -0.30075  -0.29887  -0.29502
 Alpha  occ. eigenvalues --   -0.29374  -0.29229  -0.29120  -0.24137  -0.23932
 Alpha  occ. eigenvalues --   -0.21184  -0.21013
 Alpha virt. eigenvalues --   -0.08828  -0.08692  -0.01810  -0.01574  -0.00109
 Alpha virt. eigenvalues --    0.00071   0.02146   0.02295   0.03052   0.03321
 Alpha virt. eigenvalues --    0.04667   0.04831   0.05052   0.05225   0.06137

 Mulliken charges:
               1
     1  Mg   0.838565
     2  C   -0.002911
     3  C   -0.093799
     4  C   -0.046099
     5  C   -0.064069
     6  N   -0.256778
     7  C   -0.052425
     8  C   -0.014036
     9  C   -0.087044
    10  C    0.046295
    11  C    0.104760
    12  C    0.053413
    13  C   -0.071870
    14  H    0.036045
    15  N   -0.433164
    16  C    0.168377
    17  C   -0.176887
    18  C   -0.004041
    19  C    0.148657
    20  C    0.110055
    21  C    0.012104
    22  O   -0.250079
    23  C    0.062476
    24  N   -0.341067
    25  C    0.041243
    26  C   -0.028138
    27  C   -0.023872
    28  C    0.074630
    29  C    0.076163
    30  C    0.035236
    31  C   -0.004394
    32  N   -0.310471
    33  C    0.080315
    34  C   -0.169744
    35  C    0.008441
    36  C    0.082932
    37  C    0.127321
    38  C    0.046151
    39  O   -0.188279
    40  C   -0.005351
    41  C    0.212967
    42  O   -0.257219
    43  O   -0.304730
    44  C    0.157713
    45  H   -0.017312
    46  H   -0.017090
    47  H   -0.041660
    48  H    0.001028
    49  H   -0.003759
    50  H    0.025498
    51  H    0.016429
    52  H    0.016884
    53  H    0.011370
    54  H    0.043968
    55  H    0.017955
    56  H    0.018247
    57  H    0.006130
    58  H    0.026948
    59  H    0.040081
    60  H    0.037616
    61  H    0.035497
    62  H    0.031857
    63  H    0.016007
    64  H    0.009567
    65  H    0.022999
    66  H    0.012810
    67  H    0.004821
    68  H    0.006028
    69  H    0.004813
    70  H    0.008142
    71  H    0.017342
    72  H    0.029375
    73  H    0.047693
    74  H    0.008909
    75  H    0.046093
    76  H    0.035282
    77  H    0.043056
    78  H    0.046477
    79  H    0.053504
    80  Mg   0.838007
    81  C   -0.017016
    82  C   -0.087836
    83  C   -0.045089
    84  C   -0.064568
    85  N   -0.254621
    86  C   -0.049897
    87  C   -0.015085
    88  C   -0.090519
    89  C    0.045890
    90  C    0.114351
    91  C    0.062539
    92  C   -0.077776
    93  H    0.034501
    94  N   -0.423588
    95  C    0.163160
    96  C   -0.174478
    97  C   -0.007502
    98  C    0.152222
    99  C    0.099327
   100  C    0.015709
   101  O   -0.252711
   102  C    0.061188
   103  N   -0.349985
   104  C    0.037954
   105  C   -0.020162
   106  C   -0.034641
   107  C    0.088909
   108  C    0.073102
   109  C    0.034710
   110  C   -0.007616
   111  N   -0.323993
   112  C    0.078334
   113  C   -0.163349
   114  C    0.001947
   115  C    0.096209
   116  C    0.131557
   117  C    0.042019
   118  O   -0.188730
   119  C    0.001037
   120  C    0.211167
   121  O   -0.251068
   122  O   -0.305690
   123  C    0.152126
   124  H   -0.019655
   125  H   -0.015032
   126  H   -0.040688
   127  H   -0.000845
   128  H   -0.004486
   129  H    0.022321
   130  H    0.014883
   131  H    0.016510
   132  H    0.013881
   133  H    0.037518
   134  H    0.020816
   135  H    0.019579
   136  H    0.008650
   137  H    0.026312
   138  H    0.039629
   139  H    0.038312
   140  H    0.036452
   141  H    0.033628
   142  H    0.014189
   143  H    0.012847
   144  H    0.025424
   145  H    0.013059
   146  H    0.006860
   147  H    0.006443
   148  H    0.003238
   149  H    0.010993
   150  H    0.017529
   151  H    0.029940
   152  H    0.045583
   153  H    0.008445
   154  H    0.046417
   155  H    0.034628
   156  H    0.043537
   157  H    0.049575
   158  H    0.053466
 Sum of Mulliken charges =  -0.00000

 Dipole moment (field-independent basis, Debye):
    X=              3.6026    Y=              3.5386    Z=              0.8957  Tot=              5.1286
 Quadrupole moment (field-independent basis, Debye-Ang):
   XX=           -521.4783   YY=           -534.5729   ZZ=           -463.1057
   XY=             17.8155   XZ=            -56.3364   YZ=             31.5627

 Normal termination of Gaussian 16 at Sat Sep 11 09:06:16 2021.
