 Gaussian 16, Revision A.03,
 Gaussian 16:  ES64L-G16RevA.03 25-Dec-2016

 -----------------------------------
 #p cam-b3lyp/Def2SVP td=(nstates=5)
 -----------------------------------

 --------------------------------
 TDDFT excited states in gaussian
 --------------------------------
 Symbolic Z-matrix:
 Charge =  0 Multiplicity = 1

                         Standard orientation:
 ---------------------------------------------------------------------
 Center     Atomic      Atomic             Coordinates (Angstroms)
 Number     Number       Type             X           Y           Z
 ---------------------------------------------------------------------
      1         12           0        4.221553   -1.359889    0.206641
      2          6           0        5.148789    1.386578   -1.893207
      3          6           0        5.783294    0.264945    2.768661
      4          6           0        3.813012   -3.967168    1.964997
      5          6           0        3.754849   -3.230423   -2.696624
      6          7           0        5.292031    0.575496    0.301544
      7          6           0        5.525275    1.560983   -0.559608
      8          6           0        6.140146    2.829162    0.104493
      9          6           0        6.795772    2.148197    1.388409
     10          6           0        5.881996    0.942214    1.517023
     11          6           0        8.222647    1.660946    1.157939
     12          6           0        5.049233    3.878011    0.506435
     13          6           0        5.580065    5.270835    0.858020
     14          1           0        4.787549    6.435146    0.492441
     15          7           0        4.281614   -1.606292    2.165858
     16          6           0        4.954148   -0.840299    3.058179
     17          6           0        4.684539   -1.430615    4.386908
     18          6           0        3.956126   -2.712425    4.176026
     19          6           0        4.011542   -2.827713    2.741099
     20          6           0        5.061699   -0.765151    5.674797
     21          6           0        3.321426   -3.685172    5.118921
     22          8           0        2.945330   -4.848439    4.744840
     23          6           0        3.230851   -3.268575    6.530050
     24          7           0        4.050517   -3.384169   -0.273641
     25          6           0        3.820494   -4.300882    0.672780
     26          6           0        3.456041   -5.626167    0.072170
     27          6           0        3.246583   -5.361587   -1.488560
     28          6           0        3.628737   -3.861336   -1.526961
     29          6           0        4.480103   -6.753022    0.265833
     30          6           0        1.889456   -5.792877   -2.098982
     31          6           0        0.779011   -4.930372   -1.542121
     32          7           0        4.236987   -0.968747   -1.928263
     33          6           0        4.039855   -1.900560   -2.957601
     34          6           0        4.250024   -1.188139   -4.231318
     35          6           0        4.573172    0.113088   -3.851545
     36          6           0        4.591064    0.201033   -2.430194
     37          6           0        4.191565   -1.767305   -5.529618
     38          6           0        4.931628    1.443529   -4.315543
     39          8           0        4.983291    1.993184   -5.416772
     40          6           0        5.437793    2.290604   -3.065708
     41          6           0        4.746061    3.625792   -3.111399
     42          8           0        3.513660    3.714138   -2.936046
     43          8           0        5.665668    4.602952   -3.116256
     44          6           0        5.045304    5.954646   -3.131267
     45          1           0        6.441309    0.567253    3.585709
     46          1           0        3.559351   -4.865675    2.531370
     47          1           0        3.543703   -3.728235   -3.644809
     48          1           0        6.909543    3.324691   -0.487877
     49          1           0        6.713878    2.781568    2.271504
     50          1           0        8.508301    1.746188    0.109580
     51          1           0        8.227521    0.616432    1.470124
     52          1           0        8.919301    2.175005    1.820656
     53          1           0        4.616513    3.596604    1.466448
     54          1           0        4.293195    3.966867   -0.274485
     55          1           0        6.614203    5.396251    0.535934
     56          1           0        5.622295    5.356172    1.943899
     57          1           0        5.729323    0.079383    5.508707
     58          1           0        5.661962   -1.479202    6.238289
     59          1           0        4.187731   -0.477446    6.259381
     60          1           0        4.232327   -3.066889    6.910731
     61          1           0        2.669156   -4.051009    7.039114
     62          1           0        2.686127   -2.325631    6.585557
     63          1           0        2.528274   -6.006464    0.497667
     64          1           0        3.988265   -5.882198   -2.094816
     65          1           0        4.071618   -7.636144    0.757708
     66          1           0        5.323860   -6.349234    0.824689
     67          1           0        4.967302   -7.090060   -0.648748
     68          1           0        1.662019   -6.823231   -1.827709
     69          1           0        1.865156   -5.723170   -3.186548
     70          1           0        0.541970   -5.418594   -0.597514
     71          1           0       -0.081218   -4.938224   -2.212312
     72          1           0        1.133496   -3.925948   -1.309828
     73          1           0        3.638157   -1.064608   -6.152454
     74          1           0        3.706751   -2.743022   -5.506475
     75          1           0        5.252754   -1.833890   -5.768992
     76          1           0        6.518331    2.385624   -3.168322
     77          1           0        5.449739    6.483866   -3.994165
     78          1           0        5.219491    6.386503   -2.145588
     79          1           0        3.977295    5.992469   -3.348674
     80         12           0       -4.376244    1.265271    0.701418
     81          6           0       -5.144520   -1.564729   -1.367384
     82          6           0       -3.156074    2.789788   -2.095296
     83          6           0       -3.279529    3.586537    2.565919
     84          6           0       -4.585379   -0.864328    3.452203
     85          7           0       -4.225617    0.597092   -1.401707
     86          6           0       -4.606559   -0.473883   -2.081589
     87          6           0       -4.473543   -0.338606   -3.622225
     88          6           0       -3.335296    0.793331   -3.666850
     89          6           0       -3.604627    1.463968   -2.321343
     90          6           0       -1.924400    0.229213   -3.645425
     91          6           0       -5.801770    0.155556   -4.295752
     92          6           0       -5.841281    0.015115   -5.819053
     93          1           0       -7.112895   -0.319096   -6.454477
     94          7           0       -3.820507    3.117248    0.254336
     95          6           0       -3.372841    3.567408   -0.936568
     96          6           0       -3.077347    4.995296   -0.741662
     97          6           0       -3.230860    5.313001    0.704089
     98          6           0       -3.433760    3.984314    1.245863
     99          6           0       -2.770282    5.925354   -1.879256
    100          6           0       -3.187773    6.598396    1.473559
    101          8           0       -3.108921    6.615093    2.752756
    102          6           0       -3.146400    7.835918    0.680884
    103          7           0       -3.779606    1.311402    2.692458
    104          6           0       -3.395043    2.461895    3.272439
    105          6           0       -3.277497    2.305280    4.769777
    106          6           0       -3.899556    0.869871    5.101757
    107          6           0       -4.200897    0.386503    3.666164
    108          6           0       -1.861160    2.389700    5.338328
    109          6           0       -5.042763    0.824162    6.152320
    110          6           0       -6.273029    1.512633    5.606580
    111          7           0       -4.965964   -0.785596    1.039413
    112          6           0       -4.953310   -1.485745    2.265669
    113          6           0       -5.329715   -2.883912    1.972616
    114          6           0       -5.514309   -2.905735    0.581949
    115          6           0       -5.250529   -1.617316    0.043546
    116          6           0       -5.412899   -3.939804    2.923553
    117          6           0       -5.861992   -3.728334   -0.554338
    118          8           0       -6.266159   -4.881097   -0.701014
    119          6           0       -5.515103   -2.927652   -1.882854
    120          6           0       -6.696509   -3.029319   -2.808315
    121          8           0       -7.783191   -2.505613   -2.505914
    122          8           0       -6.290760   -3.536287   -3.986763
    123          6           0       -7.425277   -3.646050   -4.942090
    124          1           0       -2.543402    3.267734   -2.860208
    125          1           0       -3.009488    4.378340    3.268478
    126          1           0       -4.768227   -1.566552    4.268363
    127          1           0       -4.129205   -1.232325   -4.128657
    128          1           0       -3.504895    1.492108   -4.481896
    129          1           0       -1.919824   -0.838523   -3.483962
    130          1           0       -1.417022    0.736531   -2.835334
    131          1           0       -1.391775    0.511183   -4.558189
    132          1           0       -5.863889    1.247731   -4.206083
    133          1           0       -6.652797   -0.335533   -3.865398
    134          1           0       -5.041688   -0.635330   -6.193901
    135          1           0       -5.624314    0.989669   -6.263128
    136          1           0       -2.565169    5.374206   -2.805307
    137          1           0       -1.821941    6.419266   -1.641409
    138          1           0       -3.539981    6.687213   -2.019960
    139          1           0       -2.272530    7.821309    0.033894
    140          1           0       -3.209547    8.649642    1.405957
    141          1           0       -4.023504    7.860499    0.024603
    142          1           0       -3.852734    3.065124    5.284429
    143          1           0       -3.144393    0.183617    5.512393
    144          1           0       -1.746028    3.175861    6.108240
    145          1           0       -1.173964    2.555947    4.519382
    146          1           0       -1.482563    1.466546    5.773824
    147          1           0       -4.752947    1.373340    7.051521
    148          1           0       -5.306235   -0.182133    6.460443
    149          1           0       -6.076399    2.569062    5.812436
    150          1           0       -7.165959    1.169045    6.124918
    151          1           0       -6.339541    1.395605    4.518680
    152          1           0       -6.317455   -4.489606    2.699981
    153          1           0       -5.420479   -3.557734    3.942253
    154          1           0       -4.490941   -4.481153    2.695041
    155          1           0       -4.619005   -3.377568   -2.311983
    156          1           0       -7.465474   -4.688773   -5.271916
    157          1           0       -7.238277   -2.879370   -5.717318
    158          1           0       -8.426112   -3.509696   -4.549428
 ---------------------------------------------------------------------

 SCF Done:  E(RCAM-B3LYP) =  -4069.81258344     A.U. after   19 cycles

 Excitation energies and oscillator strengths:

 Excited State   1:      Singlet-A      1.6641 eV  745.03 nm  f=0.2358  <S**2>=0.000
     309 -> 315        0.11141
     310 -> 316        0.12872
     311 -> 313        0.44502
     312 -> 314        0.52248
 This state for optimization and/or second-order correction.
 Total Energy, E(TD-HF/TD-DFT) =  -4069.75142728
 Copying the excited state density for this state as the 1-particle RhoCI density.

 Excited State   2:      Singlet-A      1.6842 eV  736.14 nm  f=0.4372  <S**2>=0.000
     309 -> 315        0.13428
     310 -> 316       -0.11371
     311 -> 313        0.52155
     312 -> 314       -0.44448

 Excited State   3:      Singlet-A      2.1857 eV  567.26 nm  f=0.0893  <S**2>=0.000
     309 -> 313        0.12002
     310 -> 314        0.63132
     312 -> 316       -0.26666

 Excited State   4:      Singlet-A      2.1923 eV  565.53 nm  f=0.1061  <S**2>=0.000
     309 -> 313        0.62966
     310 -> 314       -0.11876
     311 -> 315       -0.27267

 Excited State   5:      Singlet-A      2.3367 eV  530.59 nm  f=0.0000  <S**2>=0.000
     312 -> 313        0.70707

 The electronic state is 1-A.
 Alpha  occ. eigenvalues --  -46.87923 -46.87431 -19.26552 -19.26197 -19.19308
 Alpha  occ. eigenvalues --  -19.18995 -19.18935 -19.18541 -19.18369 -19.17854
 Alpha  occ. eigenvalues --  -14.42575 -14.42243 -14.41565 -14.41146 -14.39529
 Alpha  occ. eigenvalues --  -14.39118 -14.38730 -14.38375 -10.39353 -10.38923
 Alpha  occ. eigenvalues --  -10.35567 -10.35219 -10.34590 -10.34033 -10.31963
 Alpha  occ. eigenvalues --  -10.31620 -10.31545 -10.31035 -10.31027 -10.30760
 Alpha  occ. eigenvalues --  -10.30716 -10.30644 -10.30305 -10.30193 -10.30113
 Alpha  occ. eigenvalues --  -10.30041 -10.29930 -10.29775 -10.29718 -10.29379
 Alpha  occ. eigenvalues --  -10.29193 -10.29181 -10.28872 -10.28645 -10.28508
 Alpha  occ. eigenvalues --  -10.28422 -10.28410 -10.28233 -10.28165 -10.27942
 Alpha  occ. eigenvalues --  -10.27851 -10.27764 -10.27762 -10.27722 -10.27595
 Alpha  occ. eigenvalues --  -10.27559 -10.27545 -10.27509 -10.27404 -10.27361
 Alpha  occ. eigenvalues --  -10.27355 -10.27287 -10.27255 -10.27240 -10.27126
 Alpha  occ. eigenvalues --  -10.26862 -10.26822 -10.26532 -10.26434 -10.26343
 Alpha  occ. eigenvalues --  -10.26254 -10.26203 -10.26140 -10.26048 -10.26037
 Alpha  occ. eigenvalues --  -10.25718 -10.25638 -10.25494 -10.25481 -10.25401
 Alpha  occ. eigenvalues --  -10.24992 -10.24907 -10.24694 -10.24642 -10.24636
 Alpha  occ. eigenvalues --  -10.24489  -3.16666  -3.16181  -1.91547  -1.91134
 Alpha  occ. eigenvalues --   -1.91063  -1.90976  -1.90652  -1.90489  -1.16902
 Alpha  occ. eigenvalues --   -1.16487  -1.08838  -1.08469  -1.07334  -1.06924
 Alpha  occ. eigenvalues --   -1.06797  -1.06780  -1.04710  -1.04240  -1.03880
 Alpha  occ. eigenvalues --   -1.03434  -1.03367  -1.02824  -1.02541  -1.01888
 Alpha  occ. eigenvalues --   -0.92128  -0.91764  -0.89615  -0.89321  -0.89308
 Alpha  occ. eigenvalues --   -0.88828  -0.88371  -0.88076  -0.88032  -0.87795
 Alpha  occ. eigenvalues --   -0.87567  -0.87429  -0.87402  -0.86881  -0.85106
 Alpha  occ. eigenvalues --   -0.84727  -0.84023  -0.83752  -0.83078  -0.82781
 Alpha  occ. eigenvalues --   -0.82743  -0.82402  -0.81772  -0.81399  -0.80749
 Alpha  occ. eigenvalues --   -0.80230  -0.78933  -0.78391  -0.77335  -0.77071
 Alpha  occ. eigenvalues --   -0.76913  -0.76671  -0.76073  -0.75565  -0.74997
 Alpha  occ. eigenvalues --   -0.74656  -0.72908  -0.72467  -0.71796  -0.71353
 Alpha  occ. eigenvalues --   -0.69967  -0.69626  -0.69001  -0.68566  -0.67781
 Alpha  occ. eigenvalues --   -0.67391  -0.67342  -0.66961  -0.65420  -0.65015
 Alpha  occ. eigenvalues --   -0.65005  -0.64752  -0.64554  -0.64432  -0.64366
 Alpha  occ. eigenvalues --   -0.64034  -0.62493  -0.62096  -0.60560  -0.60132
 Alpha  occ. eigenvalues --   -0.59933  -0.59509  -0.59120  -0.58777  -0.58646
 Alpha  occ. eigenvalues --   -0.58217  -0.57786  -0.57436  -0.57360  -0.57056
 Alpha  occ. eigenvalues --   -0.56462  -0.56179  -0.55969  -0.55687  -0.55661
 Alpha  occ. eigenvalues --   -0.55471  -0.55238  -0.55099  -0.54675  -0.54341
 Alpha  occ. eigenvalues --   -0.54020  -0.53611  -0.53431  -0.53364  -0.53083
 Alpha  occ. eigenvalues --   -0.53023  -0.52918  -0.52881  -0.52673  -0.52499
 Alpha  occ. eigenvalues --   -0.52415  -0.52273  -0.52095  -0.51755  -0.51670
 Alpha  occ. eigenvalues --   -0.51400  -0.51339  -0.50994  -0.50688  -0.50247
 Alpha  occ. eigenvalues --   -0.50113  -0.50036  -0.49773  -0.49656  -0.49652
 Alpha  occ. eigenvalues --   -0.49373  -0.49244  -0.49234  -0.48957  -0.48824
 Alpha  occ. eigenvalues --   -0.48761  -0.48595  -0.48562  -0.48321  -0.48231
 Alpha  occ. eigenvalues --   -0.48128  -0.47820  -0.47425  -0.47360  -0.46916
 Alpha  occ. eigenvalues --   -0.46897  -0.46686  -0.46497  -0.46488  -0.46303
 Alpha  occ. eigenvalues --   -0.46279  -0.46054  -0.46002  -0.45912  -0.45618
 Alpha  occ. eigenvalues --   -0.45292  -0.45071  -0.44750  -0.44619  -0.44315
 Alpha  occ. eigenvalues --   -0.44277  -0.44214  -0.44203  -0.44166  -0.43900
 Alpha  occ. eigenvalues --   -0.43861  -0.43715  -0.43682  -0.43497  -0.43366
 Alpha  occ. eigenvalues --   -0.43164  -0.43154  -0.42928  -0.42755  -0.42741
 Alpha  occ. eigenvalues --   -0.42698  -0.42383  -0.42115  -0.41844  -0.41781
 Alpha  occ. eigenvalues --   -0.41651  -0.41459  -0.41263  -0.41217  -0.40977
 Alpha  occ. eigenvalues --   -0.40936  -0.40744  -0.40658  -0.40517  -0.40470
 Alpha  occ. eigenvalues --   -0.40346  -0.40293  -0.39978  -0.39489  -0.39298
 Alpha  occ. eigenvalues --   -0.38551  -0.38194  -0.37872  -0.37417  -0.37405
 Alpha  occ. eigenvalues --   -0.37399  -0.37076  -0.36938  -0.36932  -0.36613
 Alpha  occ. eigenvalues --   -0.36338  -0.36034  -0.34421  -0.34035  -0.34029
 Alpha  occ. eigenvalues --   -0.33685  -0.33328  -0.32946  -0.31463  -0.31168
 Alpha  occ. eigenvalues --   -0.31101  -0.30747  -0.30231  -0.29762  -0.29590
 Alpha  occ. eigenvalues --   -0.29476  -0.29098  -0.28986  -0.24212  -0.23803
 Alpha  occ. eigenvalues --   -0.21258  -0.20882
 Alpha virt. eigenvalues --   -0.08911  -0.08558  -0.01871  -0.01466  -0.00193
 Alpha virt. eigenvalues --    0.00204   0.02035   0.02399   0.02842   0.03495
 Alpha virt. eigenvalues --    0.04597   0.04843   0.04997   0.05339   0.06051

 Mulliken charges:
               1
     1  Mg   0.839041
     2  C   -0.003472
     3  C   -0.093837
     4  C   -0.045529
     5  C   -0.064132
     6  N   -0.256950
     7  C   -0.052291
     8  C   -0.014195
     9  C   -0.087137
    10  C    0.046689
    11  C    0.104719
    12  C    0.053374
    13  C   -0.071839
    14  H    0.035664
    15  N   -0.433267
    16  C    0.168834
    17  C   -0.176969
    18  C   -0.003767
    19  C    0.149123
    20  C    0.110124
    21  C    0.012319
    22  O   -0.248857
    23  C    0.062538
    24  N   -0.341260
    25  C    0.041591
    26  C   -0.028448
    27  C   -0.024056
    28  C    0.074999
    29  C    0.076017
    30  C    0.034982
    31  C   -0.004732
    32  N   -0.310091
    33  C    0.079844
    34  C   -0.171105
    35  C    0.007634
    36  C    0.082230
    37  C    0.127710
    38  C    0.044656
    39  O   -0.189773
    40  C   -0.004876
    41  C    0.213026
    42  O   -0.259576
    43  O   -0.304032
    44  C    0.158356
    45  H   -0.017212
    46  H   -0.016188
    47  H   -0.041557
    48  H    0.000756
    49  H   -0.003500
    50  H    0.025437
    51  H    0.016587
    52  H    0.017047
    53  H    0.012343
    54  H    0.043009
    55  H    0.017793
    56  H    0.019023
    57  H    0.006347
    58  H    0.027229
    59  H    0.039596
    60  H    0.037733
    61  H    0.035875
    62  H    0.030752
    63  H    0.017508
    64  H    0.009592
    65  H    0.023983
    66  H    0.012351
    67  H    0.004995
    68  H    0.007930
    69  H    0.004171
    70  H    0.010661
    71  H    0.018418
    72  H    0.027590
    73  H    0.045572
    74  H    0.009210
    75  H    0.046476
    76  H    0.035574
    77  H    0.043094
    78  H    0.047321
    79  H    0.051184
    80  Mg   0.837499
    81  C   -0.016744
    82  C   -0.086011
    83  C   -0.045999
    84  C   -0.064948
    85  N   -0.254698
    86  C   -0.049779
    87  C   -0.015116
    88  C   -0.090161
    89  C    0.044406
    90  C    0.113196
    91  C    0.062480
    92  C   -0.077556
    93  H    0.033618
    94  N   -0.423854
    95  C    0.162143
    96  C   -0.171663
    97  C   -0.008685
    98  C    0.153044
    99  C    0.098871
   100  C    0.015344
   101  O   -0.254584
   102  C    0.061303
   103  N   -0.350067
   104  C    0.037508
   105  C   -0.019570
   106  C   -0.034669
   107  C    0.088566
   108  C    0.074465
   109  C    0.034973
   110  C   -0.007521
   111  N   -0.323972
   112  C    0.077892
   113  C   -0.163339
   114  C    0.001981
   115  C    0.095941
   116  C    0.131584
   117  C    0.041891
   118  O   -0.189106
   119  C    0.001116
   120  C    0.211336
   121  O   -0.251097
   122  O   -0.305875
   123  C    0.152162
   124  H   -0.013284
   125  H   -0.016887
   126  H   -0.041059
   127  H   -0.001595
   128  H   -0.003635
   129  H    0.019630
   130  H    0.019238
   131  H    0.020954
   132  H    0.013894
   133  H    0.036909
   134  H    0.020788
   135  H    0.020259
   136  H    0.011698
   137  H    0.028070
   138  H    0.038513
   139  H    0.038563
   140  H    0.035175
   141  H    0.033968
   142  H    0.013917
   143  H    0.011494
   144  H    0.023688
   145  H    0.011565
   146  H    0.003322
   147  H    0.005007
   148  H    0.003590
   149  H    0.010488
   150  H    0.017572
   151  H    0.030786
   152  H    0.045244
   153  H    0.008021
   154  H    0.047451
   155  H    0.034022
   156  H    0.043154
   157  H    0.049815
   158  H    0.053383
 Sum of Mulliken charges =  -0.00000

 Dipole moment (field-independent basis, Debye):
    X=              5.4079    Y=              2.9360    Z=              1.4268  Tot=              6.3168
 Quadrupole moment (field-independent basis, Debye-Ang):
   XX=           -521.3835   YY=           -514.9429   ZZ=           -483.5620
   XY=            -10.4377   XZ=             32.8871   YZ=              8.3294

 Normal termination of Gaussian 16 at Thu Sep  9 13:12:32 2021.
