 Gaussian 16, Revision A.03,
 Gaussian 16:  ES64L-G16RevA.03 25-Dec-2016

 -----------------------------------
 #p cam-b3lyp/Def2SVP td=(nstates=5)
 -----------------------------------

 --------------------------------
 TDDFT excited states in gaussian
 --------------------------------
 Symbolic Z-matrix:
 Charge =  0 Multiplicity = 1

                         Standard orientation:
 ---------------------------------------------------------------------
 Center     Atomic      Atomic             Coordinates (Angstroms)
 Number     Number       Type             X           Y           Z
 ---------------------------------------------------------------------
      1         12           0       -4.873800    0.883575   -0.257565
      2          6           0       -5.378809   -2.218418    1.455567
      3          6           0       -5.725961    2.456029    2.648339
      4          6           0       -4.876925    3.617270   -1.864900
      5          6           0       -5.175014   -0.886608   -3.244433
      6          7           0       -5.456509    0.108096    1.732342
      7          6           0       -5.553592   -1.101347    2.275475
      8          6           0       -5.784221   -1.070091    3.815997
      9          6           0       -6.429844    0.382034    3.944462
     10          6           0       -5.807078    1.033719    2.722418
     11          6           0       -7.946878    0.390496    3.786224
     12          6           0       -4.444643   -1.174639    4.619945
     13          6           0       -4.600569   -1.478663    6.112798
     14          1           0       -3.609247   -2.322471    6.762889
     15          7           0       -4.768521    2.748375    0.386086
     16          6           0       -5.144001    3.207065    1.604243
     17          6           0       -4.869101    4.660002    1.595152
     18          6           0       -4.480972    5.040992    0.208683
     19          6           0       -4.721744    3.806453   -0.493683
     20          6           0       -4.937533    5.518051    2.821048
     21          6           0       -3.983565    6.318416   -0.390406
     22          8           0       -3.927391    6.500190   -1.654675
     23          6           0       -3.642658    7.397864    0.553848
     24          7           0       -5.224447    1.352343   -2.261296
     25          6           0       -5.105217    2.607642   -2.707384
     26          6           0       -5.122691    2.658384   -4.206403
     27          6           0       -5.034666    1.142700   -4.701082
     28          6           0       -5.065992    0.441695   -3.320545
     29          6           0       -6.348661    3.331296   -4.839015
     30          6           0       -3.889086    0.788637   -5.682257
     31          6           0       -2.555802    0.905664   -4.978159
     32          7           0       -5.038735   -1.202989   -0.832101
     33          6           0       -5.176244   -1.711279   -2.131873
     34          6           0       -5.359610   -3.169091   -2.008471
     35          6           0       -5.332439   -3.406977   -0.635694
     36          6           0       -5.170329   -2.172532    0.055795
     37          6           0       -5.580859   -4.075106   -3.083004
     38          6           0       -5.427329   -4.413883    0.408813
     39          8           0       -5.475234   -5.644710    0.424990
     40          6           0       -5.583321   -3.670706    1.808521
     41          6           0       -4.614591   -4.303880    2.769751
     42          8           0       -3.382898   -4.184777    2.608158
     43          8           0       -5.281372   -4.743072    3.848201
     44          6           0       -4.374455   -5.356158    4.855068
     45          1           0       -6.201712    3.053198    3.428717
     46          1           0       -4.773279    4.523988   -2.464530
     47          1           0       -5.190773   -1.514898   -4.136877
     48          1           0       -6.481567   -1.821662    4.186501
     49          1           0       -6.107028    0.892097    4.851847
     50          1           0       -8.321193   -0.586960    3.482269
     51          1           0       -8.155097    1.134046    3.016632
     52          1           0       -8.428948    0.755314    4.693579
     53          1           0       -3.982794   -0.189083    4.678572
     54          1           0       -3.780725   -1.913045    4.169064
     55          1           0       -5.608159   -1.823967    6.346114
     56          1           0       -4.500198   -0.543663    6.664070
     57          1           0       -5.408977    4.993541    3.651213
     58          1           0       -5.617929    6.339430    2.597205
     59          1           0       -3.961088    5.914936    3.099200
     60          1           0       -4.522466    7.648396    1.146910
     61          1           0       -3.221032    8.201995   -0.048194
     62          1           0       -2.894321    7.029403    1.256113
     63          1           0       -4.264578    3.209424   -4.589057
     64          1           0       -5.938788    0.829955   -5.223985
     65          1           0       -6.100123    4.164586   -5.496709
     66          1           0       -7.009817    3.651879   -4.034409
     67          1           0       -6.999317    2.661027   -5.400087
     68          1           0       -3.873989    1.489472   -6.516253
     69          1           0       -3.971585   -0.216743   -6.095361
     70          1           0       -2.332147    1.969063   -5.055564
     71          1           0       -1.800789    0.309518   -5.491752
     72          1           0       -2.643240    0.667408   -3.917935
     73          1           0       -4.955022   -4.944661   -2.882579
     74          1           0       -5.332189   -3.620601   -4.041749
     75          1           0       -6.649179   -4.261066   -2.973618
     76          1           0       -6.618123   -3.805913    2.121609
     77          1           0       -4.741477   -6.364718    5.045684
     78          1           0       -4.333810   -4.664947    5.697078
     79          1           0       -3.357311   -5.566690    4.522753
     80         12           0        5.663272    0.055532    0.103212
     81          6           0        3.023110   -1.957942   -1.258583
     82          6           0        3.673321    2.770918   -0.445763
     83          6           0        8.130494    1.895341    0.874800
     84          6           0        7.824521   -2.608037   -0.513309
     85          7           0        3.630981    0.252931   -0.747130
     86          6           0        2.700336   -0.587531   -1.173592
     87          6           0        1.321193    0.067774   -1.453031
     88          6           0        1.818362    1.572196   -1.714597
     89          6           0        3.104821    1.551042   -0.891636
     90          6           0        2.183506    1.841780   -3.164880
     91          6           0        0.359609   -0.012473   -0.215724
     92          6           0       -1.102106    0.328341   -0.514075
     93          1           0       -2.146451   -0.396277    0.204771
     94          7           0        5.721110    1.960079    0.658125
     95          6           0        4.818766    2.920336    0.366627
     96          6           0        5.327372    4.152563    0.988785
     97          6           0        6.685681    3.878010    1.531296
     98          6           0        6.911893    2.543816    1.012802
     99          6           0        4.510120    5.407156    1.096086
    100          6           0        7.630615    4.687855    2.366436
    101          8           0        8.855626    4.344330    2.521882
    102          6           0        7.104388    5.943976    2.920261
    103          7           0        7.720302   -0.218932   -0.021825
    104          6           0        8.571585    0.717956    0.431482
    105          6           0        9.984417    0.188137    0.491307
    106          6           0        9.866622   -1.382064    0.211706
    107          6           0        8.349513   -1.477320   -0.061619
    108          6           0       10.970025    0.808552   -0.498664
    109          6           0       10.488187   -2.333953    1.270110
    110          6           0        9.708555   -2.248246    2.562476
    111          7           0        5.460097   -1.991483   -0.557470
    112          6           0        6.497318   -2.925268   -0.772671
    113          6           0        5.876568   -4.144936   -1.329007
    114          6           0        4.513537   -3.825347   -1.421132
    115          6           0        4.302757   -2.492991   -0.974028
    116          6           0        6.567847   -5.326700   -1.718475
    117          6           0        3.206625   -4.308446   -1.804902
    118          8           0        2.754630   -5.391888   -2.173138
    119          6           0        2.201691   -3.077360   -1.835464
    120          6           0        0.951927   -3.479621   -1.101453
    121          8           0        0.983966   -3.715077    0.119259
    122          8           0       -0.108910   -3.309357   -1.911396
    123          6           0       -1.373423   -3.684647   -1.224404
    124          1           0        3.225607    3.705995   -0.783494
    125          1           0        9.002141    2.448628    1.232003
    126          1           0        8.416736   -3.516769   -0.640445
    127          1           0        0.807064   -0.311353   -2.328079
    128          1           0        1.117285    2.296256   -1.307675
    129          1           0        2.160793    0.941093   -3.760175
    130          1           0        3.182747    2.256674   -3.144416
    131          1           0        1.540331    2.625031   -3.576201
    132          1           0        0.603615    0.800073    0.480676
    133          1           0        0.417944   -0.976893    0.250224
    134          1           0       -1.311840    0.337181   -1.590584
    135          1           0       -1.290606    1.356546   -0.195841
    136          1           0        3.616128    5.360329    0.462067
    137          1           0        5.108117    6.216326    0.663074
    138          1           0        4.264672    5.662914    2.129051
    139          1           0        6.767252    6.583543    2.108005
    140          1           0        7.897346    6.336134    3.560032
    141          1           0        6.221801    5.715695    3.528157
    142          1           0       10.412622    0.338817    1.474686
    143          1           0       10.372728   -1.668783   -0.721836
    144          1           0       11.855758    1.256588   -0.009961
    145          1           0       10.443673    1.549835   -1.085158
    146          1           0       11.343699    0.130877   -1.264376
    147          1           0       11.510263   -2.025399    1.503166
    148          1           0       10.529760   -3.369238    0.948479
    149          1           0       10.135762   -1.367059    3.050416
    150          1           0        9.860506   -3.143761    3.161636
    151          1           0        8.650022   -2.037933    2.370318
    152          1           0        5.987611   -6.162401   -1.350461
    153          1           0        7.582102   -5.341968   -1.325012
    154          1           0        6.551005   -5.213160   -2.805714
    155          1           0        2.004000   -2.841762   -2.881883
    156          1           0       -1.865944   -4.435780   -1.849631
    157          1           0       -1.915456   -2.735014   -1.056601
    158          1           0       -1.293849   -4.213342   -0.281742
 ---------------------------------------------------------------------

 SCF Done:  E(RCAM-B3LYP) =  -4069.81600800     A.U. after   19 cycles

 Excitation energies and oscillator strengths:

 Excited State   1:      Singlet-A      1.6493 eV  751.76 nm  f=0.0061  <S**2>=0.000
     309 -> 315        0.12371
     310 -> 316       -0.11171
     311 -> 313        0.50881
     312 -> 314       -0.46244
 This state for optimization and/or second-order correction.
 Total Energy, E(TD-HF/TD-DFT) =  -4069.75539883
 Copying the excited state density for this state as the 1-particle RhoCI density.

 Excited State   2:      Singlet-A      1.6974 eV  730.44 nm  f=0.7010  <S**2>=0.000
     309 -> 315        0.12048
     310 -> 316        0.13232
     311 -> 313        0.46016
     312 -> 314        0.50663

 Excited State   3:      Singlet-A      2.1818 eV  568.27 nm  f=0.0934  <S**2>=0.000
     309 -> 313        0.43364
     310 -> 314        0.47547
     311 -> 315       -0.18249
     312 -> 316       -0.19971

 Excited State   4:      Singlet-A      2.1844 eV  567.58 nm  f=0.1101  <S**2>=0.000
     309 -> 313        0.47449
     310 -> 314       -0.43272
     311 -> 315       -0.20219
     312 -> 316        0.18434

 Excited State   5:      Singlet-A      2.3908 eV  518.59 nm  f=0.0000  <S**2>=0.000
     312 -> 313        0.70614

 The electronic state is 1-A.
 Alpha  occ. eigenvalues --  -46.88059 -46.87457 -19.26366 -19.25376 -19.19199
 Alpha  occ. eigenvalues --  -19.19180 -19.18561 -19.18441 -19.18326 -19.17715
 Alpha  occ. eigenvalues --  -14.42702 -14.42307 -14.41714 -14.41153 -14.39673
 Alpha  occ. eigenvalues --  -14.39151 -14.38867 -14.38382 -10.39226 -10.38301
 Alpha  occ. eigenvalues --  -10.35813 -10.35244 -10.34658 -10.33874 -10.31668
 Alpha  occ. eigenvalues --  -10.31638 -10.31159 -10.31083 -10.30867 -10.30826
 Alpha  occ. eigenvalues --  -10.30819 -10.30492 -10.30300 -10.30225 -10.30190
 Alpha  occ. eigenvalues --  -10.30136 -10.29969 -10.29957 -10.29690 -10.29543
 Alpha  occ. eigenvalues --  -10.29250 -10.29197 -10.28991 -10.28914 -10.28663
 Alpha  occ. eigenvalues --  -10.28577 -10.28561 -10.28303 -10.28169 -10.28110
 Alpha  occ. eigenvalues --  -10.27993 -10.27936 -10.27909 -10.27800 -10.27779
 Alpha  occ. eigenvalues --  -10.27778 -10.27757 -10.27683 -10.27471 -10.27378
 Alpha  occ. eigenvalues --  -10.27365 -10.27329 -10.27268 -10.27245 -10.27219
 Alpha  occ. eigenvalues --  -10.26801 -10.26788 -10.26661 -10.26610 -10.26527
 Alpha  occ. eigenvalues --  -10.26406 -10.26316 -10.26299 -10.26105 -10.26002
 Alpha  occ. eigenvalues --  -10.25806 -10.25738 -10.25701 -10.25642 -10.25260
 Alpha  occ. eigenvalues --  -10.25171 -10.25167 -10.25093 -10.24636 -10.24597
 Alpha  occ. eigenvalues --  -10.24484  -3.16720  -3.16207  -1.91599  -1.91194
 Alpha  occ. eigenvalues --   -1.91089  -1.91037  -1.90678  -1.90515  -1.16726
 Alpha  occ. eigenvalues --   -1.15710  -1.08895  -1.08283  -1.07586  -1.06818
 Alpha  occ. eigenvalues --   -1.06789  -1.06111  -1.04843  -1.04291  -1.04037
 Alpha  occ. eigenvalues --   -1.03529  -1.03462  -1.02835  -1.02703  -1.01901
 Alpha  occ. eigenvalues --   -0.92240  -0.91700  -0.89824  -0.89375  -0.89293
 Alpha  occ. eigenvalues --   -0.88993  -0.88586  -0.88163  -0.88042  -0.87924
 Alpha  occ. eigenvalues --   -0.87595  -0.87587  -0.87504  -0.86952  -0.85191
 Alpha  occ. eigenvalues --   -0.84858  -0.84243  -0.83666  -0.83305  -0.82874
 Alpha  occ. eigenvalues --   -0.82776  -0.82443  -0.81770  -0.81090  -0.80831
 Alpha  occ. eigenvalues --   -0.79993  -0.79100  -0.78443  -0.77487  -0.77127
 Alpha  occ. eigenvalues --   -0.77020  -0.76602  -0.76120  -0.75436  -0.75166
 Alpha  occ. eigenvalues --   -0.74500  -0.73059  -0.72495  -0.71923  -0.71325
 Alpha  occ. eigenvalues --   -0.70245  -0.69588  -0.69106  -0.68687  -0.67920
 Alpha  occ. eigenvalues --   -0.67423  -0.67374  -0.67143  -0.65496  -0.65101
 Alpha  occ. eigenvalues --   -0.65065  -0.64846  -0.64565  -0.64546  -0.64245
 Alpha  occ. eigenvalues --   -0.63940  -0.62463  -0.61592  -0.60751  -0.60158
 Alpha  occ. eigenvalues --   -0.60026  -0.59608  -0.59255  -0.58768  -0.58748
 Alpha  occ. eigenvalues --   -0.58137  -0.57810  -0.57578  -0.57155  -0.56891
 Alpha  occ. eigenvalues --   -0.56585  -0.56116  -0.55979  -0.55795  -0.55597
 Alpha  occ. eigenvalues --   -0.55436  -0.55095  -0.54853  -0.54742  -0.54084
 Alpha  occ. eigenvalues --   -0.54007  -0.53748  -0.53586  -0.53464  -0.53149
 Alpha  occ. eigenvalues --   -0.53026  -0.52970  -0.52932  -0.52764  -0.52507
 Alpha  occ. eigenvalues --   -0.52483  -0.52256  -0.52081  -0.51825  -0.51635
 Alpha  occ. eigenvalues --   -0.51469  -0.51445  -0.50900  -0.50862  -0.50343
 Alpha  occ. eigenvalues --   -0.50334  -0.50212  -0.49819  -0.49753  -0.49699
 Alpha  occ. eigenvalues --   -0.49474  -0.49320  -0.49294  -0.48956  -0.48884
 Alpha  occ. eigenvalues --   -0.48819  -0.48770  -0.48702  -0.48224  -0.48152
 Alpha  occ. eigenvalues --   -0.48044  -0.47950  -0.47557  -0.47349  -0.47067
 Alpha  occ. eigenvalues --   -0.46862  -0.46781  -0.46633  -0.46517  -0.46470
 Alpha  occ. eigenvalues --   -0.46367  -0.46049  -0.46028  -0.45734  -0.45489
 Alpha  occ. eigenvalues --   -0.45388  -0.44992  -0.44824  -0.44808  -0.44474
 Alpha  occ. eigenvalues --   -0.44367  -0.44284  -0.44269  -0.44155  -0.43934
 Alpha  occ. eigenvalues --   -0.43875  -0.43694  -0.43649  -0.43608  -0.43289
 Alpha  occ. eigenvalues --   -0.43246  -0.43012  -0.42902  -0.42775  -0.42651
 Alpha  occ. eigenvalues --   -0.42389  -0.42293  -0.41992  -0.41923  -0.41792
 Alpha  occ. eigenvalues --   -0.41749  -0.41410  -0.41371  -0.41313  -0.41154
 Alpha  occ. eigenvalues --   -0.41121  -0.40845  -0.40756  -0.40608  -0.40577
 Alpha  occ. eigenvalues --   -0.40377  -0.40298  -0.40150  -0.39782  -0.39276
 Alpha  occ. eigenvalues --   -0.38741  -0.38238  -0.37943  -0.37677  -0.37581
 Alpha  occ. eigenvalues --   -0.37411  -0.37089  -0.37027  -0.36893  -0.36396
 Alpha  occ. eigenvalues --   -0.36257  -0.35646  -0.34518  -0.34037  -0.33952
 Alpha  occ. eigenvalues --   -0.33465  -0.33203  -0.32849  -0.31704  -0.31315
 Alpha  occ. eigenvalues --   -0.31117  -0.30736  -0.30288  -0.29759  -0.29634
 Alpha  occ. eigenvalues --   -0.29599  -0.29133  -0.28978  -0.24345  -0.23812
 Alpha  occ. eigenvalues --   -0.21430  -0.20918
 Alpha virt. eigenvalues --   -0.09082  -0.08580  -0.02044  -0.01491  -0.00376
 Alpha virt. eigenvalues --    0.00162   0.01861   0.02425   0.02969   0.03457
 Alpha virt. eigenvalues --    0.04460   0.04937   0.05223   0.05866   0.06033

 Mulliken charges:
               1
     1  Mg   0.788187
     2  C   -0.000155
     3  C   -0.092807
     4  C   -0.045486
     5  C   -0.059988
     6  N   -0.252442
     7  C   -0.053969
     8  C   -0.013571
     9  C   -0.087392
    10  C    0.048006
    11  C    0.104746
    12  C    0.052878
    13  C   -0.072673
    14  H    0.038851
    15  N   -0.431696
    16  C    0.169358
    17  C   -0.177548
    18  C   -0.004883
    19  C    0.146146
    20  C    0.110235
    21  C    0.010409
    22  O   -0.250082
    23  C    0.063056
    24  N   -0.334572
    25  C    0.040468
    26  C   -0.028368
    27  C   -0.024467
    28  C    0.070568
    29  C    0.076189
    30  C    0.035689
    31  C   -0.012503
    32  N   -0.304432
    33  C    0.078122
    34  C   -0.174583
    35  C    0.005701
    36  C    0.072037
    37  C    0.128891
    38  C    0.041345
    39  O   -0.185804
    40  C   -0.005330
    41  C    0.213874
    42  O   -0.255486
    43  O   -0.304887
    44  C    0.156140
    45  H   -0.017280
    46  H   -0.017932
    47  H   -0.041990
    48  H    0.001417
    49  H   -0.003477
    50  H    0.025911
    51  H    0.016319
    52  H    0.017299
    53  H    0.011303
    54  H    0.045883
    55  H    0.017791
    56  H    0.017768
    57  H    0.006860
    58  H    0.027399
    59  H    0.038956
    60  H    0.038578
    61  H    0.035347
    62  H    0.029958
    63  H    0.015066
    64  H    0.010394
    65  H    0.023284
    66  H    0.013160
    67  H    0.005566
    68  H    0.007284
    69  H    0.006665
    70  H    0.006840
    71  H    0.020111
    72  H    0.034484
    73  H    0.046004
    74  H    0.010648
    75  H    0.047196
    76  H    0.036298
    77  H    0.043756
    78  H    0.046578
    79  H    0.057514
    80  Mg   0.837489
    81  C   -0.015148
    82  C   -0.088211
    83  C   -0.046013
    84  C   -0.065575
    85  N   -0.254128
    86  C   -0.048805
    87  C   -0.020611
    88  C   -0.091113
    89  C    0.044894
    90  C    0.114093
    91  C    0.087647
    92  C   -0.151610
    93  H    0.087561
    94  N   -0.423349
    95  C    0.162311
    96  C   -0.174996
    97  C   -0.008439
    98  C    0.151986
    99  C    0.099354
   100  C    0.015131
   101  O   -0.253759
   102  C    0.061462
   103  N   -0.350228
   104  C    0.037349
   105  C   -0.019644
   106  C   -0.034827
   107  C    0.089256
   108  C    0.073858
   109  C    0.034840
   110  C   -0.007593
   111  N   -0.324288
   112  C    0.078936
   113  C   -0.163354
   114  C    0.002831
   115  C    0.096066
   116  C    0.131419
   117  C    0.042721
   118  O   -0.185903
   119  C    0.001812
   120  C    0.210188
   121  O   -0.247947
   122  O   -0.310852
   123  C    0.144564
   124  H   -0.019218
   125  H   -0.016233
   126  H   -0.040795
   127  H    0.001566
   128  H   -0.002991
   129  H    0.021841
   130  H    0.013999
   131  H    0.017964
   132  H    0.010749
   133  H    0.042870
   134  H    0.036774
   135  H    0.040407
   136  H    0.008836
   137  H    0.025818
   138  H    0.038090
   139  H    0.038070
   140  H    0.035714
   141  H    0.033099
   142  H    0.013964
   143  H    0.012143
   144  H    0.024639
   145  H    0.011560
   146  H    0.005317
   147  H    0.005817
   148  H    0.003578
   149  H    0.010592
   150  H    0.017672
   151  H    0.030489
   152  H    0.046684
   153  H    0.008009
   154  H    0.046589
   155  H    0.033203
   156  H    0.040650
   157  H    0.057436
   158  H    0.066997
 Sum of Mulliken charges =  -0.00000

 Dipole moment (field-independent basis, Debye):
    X=             -3.1550    Y=              7.0009    Z=              1.7478  Tot=              7.8754
 Quadrupole moment (field-independent basis, Debye-Ang):
   XX=           -487.1549   YY=           -545.8861   ZZ=           -474.1968
   XY=            -28.4012   XZ=            -23.9163   YZ=              7.1314

 Normal termination of Gaussian 16 at Fri Sep 10 18:05:15 2021.
