 Gaussian 16, Revision A.03,
 Gaussian 16:  ES64L-G16RevA.03 25-Dec-2016

 -----------------------------------
 #p cam-b3lyp/Def2SVP td=(nstates=5)
 -----------------------------------

 --------------------------------
 TDDFT excited states in gaussian
 --------------------------------
 Symbolic Z-matrix:
 Charge =  0 Multiplicity = 1

                         Standard orientation:
 ---------------------------------------------------------------------
 Center     Atomic      Atomic             Coordinates (Angstroms)
 Number     Number       Type             X           Y           Z
 ---------------------------------------------------------------------
      1         12           0        6.474685   -0.923803    0.310344
      2          6           0        7.021060    1.912097   -1.804215
      3          6           0        7.662558    0.961390    2.894540
      4          6           0        6.429565   -3.542453    2.098431
      5          6           0        6.418514   -2.878407   -2.574449
      6          7           0        7.215324    1.160098    0.407586
      7          6           0        7.317081    2.160364   -0.462060
      8          6           0        7.695701    3.518786    0.200293
      9          6           0        8.406609    2.967523    1.516621
     10          6           0        7.695098    1.631279    1.635485
     11          6           0        9.900597    2.714651    1.341820
     12          6           0        6.436521    4.382099    0.547983
     13          6           0        6.723233    5.846348    0.893130
     14          1           0        5.766930    6.863001    0.481733
     15          7           0        6.504269   -1.134732    2.274392
     16          6           0        7.012592   -0.259920    3.175279
     17          6           0        6.794748   -0.870739    4.504236
     18          6           0        6.290295   -2.255753    4.291265
     19          6           0        6.414320   -2.377050    2.861131
     20          6           0        7.013937   -0.138317    5.792360
     21          6           0        5.787635   -3.307385    5.229100
     22          8           0        5.617350   -4.520361    4.862675
     23          6           0        5.581230   -2.894714    6.629150
     24          7           0        6.649132   -2.954499   -0.140741
     25          6           0        6.536453   -3.885398    0.813048
     26          6           0        6.411773   -5.258973    0.223400
     27          6           0        6.217805   -5.049672   -1.347690
     28          6           0        6.354373   -3.507925   -1.399008
     29          6           0        7.596502   -6.203222    0.470022
     30          6           0        4.970364   -5.701597   -1.995226
     31          6           0        3.716458   -5.023541   -1.490194
     32          7           0        6.502462   -0.559866   -1.829241
     33          6           0        6.494596   -1.523053   -2.848496
     34          6           0        6.632193   -0.800717   -4.126528
     35          6           0        6.727826    0.539906   -3.758519
     36          6           0        6.680990    0.645913   -2.339061
     37          6           0        6.713804   -1.396597   -5.415985
     38          6           0        6.883445    1.905366   -4.233028
     39          8           0        6.884826    2.443454   -5.341158
     40          6           0        7.201959    2.837411   -2.981761
     41          6           0        6.306204    4.042647   -3.073072
     42          8           0        5.070245    3.932678   -2.940116
     43          8           0        7.055952    5.155455   -3.064170
     44          6           0        6.226842    6.388865   -3.122744
     45          1           0        8.233930    1.375431    3.727634
     46          1           0        6.304090   -4.463574    2.671345
     47          1           0        6.324029   -3.414660   -3.520471
     48          1           0        8.395691    4.125300   -0.374666
     49          1           0        8.192532    3.589439    2.385593
     50          1           0       10.205715    2.832884    0.302183
     51          1           0       10.062639    1.688311    1.671763
     52          1           0       10.481427    3.342117    2.018356
     53          1           0        6.021083    4.045512    1.497815
     54          1           0        5.704167    4.338628   -0.258921
     55          1           0        7.734400    6.133528    0.603338
     56          1           0        6.712697    5.949859    1.978199
     57          1           0        7.542229    0.801043    5.634068
     58          1           0        7.701073   -0.739453    6.387496
     59          1           0        6.084895    0.011067    6.342722
     60          1           0        6.523016   -2.529474    7.039257
     61          1           0        5.135269   -3.751734    7.132625
     62          1           0        4.890082   -2.051620    6.650519
     63          1           0        5.542924   -5.779288    0.624398
     64          1           0        7.054665   -5.450512   -1.920112
     65          1           0        7.318483   -7.135038    0.963104
     66          1           0        8.343862   -5.661991    1.049516
     67          1           0        8.163703   -6.467583   -0.422061
     68          1           0        4.902443   -6.751977   -1.714094
     69          1           0        4.973665   -5.649234   -3.084032
     70          1           0        3.527886   -5.532767   -0.545757
     71          1           0        2.893002   -5.178008   -2.188243
     72          1           0        3.896039   -3.972432   -1.263465
     73          1           0        6.076811   -0.799774   -6.068680
     74          1           0        6.392013   -2.437505   -5.392256
     75          1           0        7.779657   -1.293559   -5.618954
     76          1           0        8.256018    3.104617   -3.050180
     77          1           0        6.571018    6.966536   -3.980691
     78          1           0        6.294174    6.854491   -2.139351
     79          1           0        5.175067    6.251093   -3.375975
     80         12           0       -6.640426    0.848819    0.556660
     81          6           0       -6.881894   -2.214617   -1.297029
     82          6           0       -5.609590    2.341206   -2.332063
     83          6           0       -5.986717    3.450654    2.250930
     84          6           0       -6.574366   -1.076025    3.461194
     85          7           0       -6.326407    0.060211   -1.485829
     86          6           0       -6.509535   -1.106276   -2.085925
     87          6           0       -6.358798   -1.065742   -3.630338
     88          6           0       -5.419123    0.231356   -3.746261
     89          6           0       -5.830175    0.946632   -2.460935
     90          6           0       -3.936328   -0.090122   -3.660713
     91          6           0       -7.731071   -0.847904   -4.359323
     92          6           0       -7.706100   -1.105623   -5.867536
     93          1           0       -8.888773   -1.690460   -6.493397
     94          7           0       -6.381581    2.728568   -0.024806
     95          6           0       -5.981170    3.156489   -1.240474
     96          6           0       -5.927320    4.623995   -1.152793
     97          6           0       -6.169418    5.018605    0.261560
     98          6           0       -6.167953    3.718576    0.901888
     99          6           0       -5.745111    5.504815   -2.354614
    100          6           0       -6.356843    6.347144    0.929435
    101          8           0       -6.316283    6.471482    2.204468
    102          6           0       -6.496008    7.512322    0.043735
    103          7           0       -6.113162    1.140026    2.546515
    104          6           0       -5.936712    2.377915    3.040908
    105          6           0       -5.835684    2.354340    4.547431
    106          6           0       -6.224619    0.864889    4.980850
    107          6           0       -6.404458    0.233359    3.582919
    108          6           0       -4.467819    2.712285    5.128115
    109          6           0       -7.373062    0.710095    6.015146
    110          6           0       -8.683794    1.144628    5.399877
    111          7           0       -6.897472   -1.240241    1.044335
    112          6           0       -6.804151   -1.835801    2.321307
    113          6           0       -6.939994   -3.294651    2.132300
    114          6           0       -7.080990   -3.449693    0.745017
    115          6           0       -7.015953   -2.179014    0.112050
    116          6           0       -6.875873   -4.276314    3.161064
    117          6           0       -7.259418   -4.400287   -0.328871
    118          8           0       -7.466521   -5.611457   -0.391415
    119          6           0       -7.011734   -3.654361   -1.710409
    120          6           0       -8.135444   -4.017170   -2.642159
    121          8           0       -9.300625   -3.658137   -2.397066
    122          8           0       -7.620975   -4.536648   -3.771682
    123          6           0       -8.696330   -4.901940   -4.731900
    124          1           0       -5.062448    2.855195   -3.122852
    125          1           0       -5.868164    4.326007    2.893713
    126          1           0       -6.662476   -1.736201    4.326687
    127          1           0       -5.860093   -1.925834   -4.060812
    128          1           0       -5.678101    0.830307   -4.615482
    129          1           0       -3.762426   -1.127613   -3.416786
    130          1           0       -3.540292    0.552379   -2.885217
    131          1           0       -3.432261    0.206984   -4.584822
    132          1           0       -7.972462    0.222820   -4.355641
    133          1           0       -8.502146   -1.438831   -3.904478
    134          1           0       -6.801503   -1.641865   -6.179152
    135          1           0       -7.638704   -0.144365   -6.382763
    136          1           0       -5.428154    4.927654   -3.232000
    137          1           0       -4.896538    6.164105   -2.142162
    138          1           0       -6.624438    6.117278   -2.565165
    139          1           0       -5.614278    7.593501   -0.587469
    140          1           0       -6.710259    8.356172    0.702438
    141          1           0       -7.347400    7.343673   -0.625085
    142          1           0       -6.540556    3.045421    4.993152
    143          1           0       -5.379205    0.344436    5.454399
    144          1           0       -4.502955    3.561635    5.836242
    145          1           0       -3.794988    2.927916    4.308754
    146          1           0       -3.955942    1.898796    5.639410
    147          1           0       -7.200828    1.364640    6.873084
    148          1           0       -7.477504   -0.300126    6.396656
    149          1           0       -8.667299    2.231340    5.525900
    150          1           0       -9.522563    0.698445    5.930377
    151          1           0       -8.701007    0.937834    4.323499
    152          1           0       -7.672551   -4.982329    2.967811
    153          1           0       -6.972997   -3.826120    4.146798
    154          1           0       -5.872298   -4.674280    2.988633
    155          1           0       -6.043112   -3.981535   -2.090299
    156          1           0       -8.557411   -5.958665   -4.980306
    157          1           0       -8.615726   -4.174651   -5.561540
    158          1           0       -9.716239   -4.903104   -4.365518
 ---------------------------------------------------------------------

 SCF Done:  E(RCAM-B3LYP) =  -4069.81200425     A.U. after   19 cycles

 Excitation energies and oscillator strengths:

 Excited State   1:      Singlet-A      1.6720 eV  741.53 nm  f=0.2467  <S**2>=0.000
     310 -> 316        0.14448
     311 -> 313        0.37345
     312 -> 314        0.57562
 This state for optimization and/or second-order correction.
 Total Energy, E(TD-HF/TD-DFT) =  -4069.75055892
 Copying the excited state density for this state as the 1-particle RhoCI density.

 Excited State   2:      Singlet-A      1.6823 eV  736.99 nm  f=0.4858  <S**2>=0.000
     309 -> 315        0.14778
     311 -> 313        0.57507
     312 -> 314       -0.37322

 Excited State   3:      Singlet-A      2.1859 eV  567.20 nm  f=0.0939  <S**2>=0.000
     310 -> 314        0.63935
     312 -> 316       -0.27118

 Excited State   4:      Singlet-A      2.1928 eV  565.43 nm  f=0.1039  <S**2>=0.000
     309 -> 313        0.63754
     311 -> 315       -0.27688

 Excited State   5:      Singlet-A      2.6465 eV  468.49 nm  f=0.0000  <S**2>=0.000
     312 -> 313        0.70710

 The electronic state is 1-A.
 Alpha  occ. eigenvalues --  -46.87859 -46.87549 -19.26394 -19.26257 -19.19134
 Alpha  occ. eigenvalues --  -19.19067 -19.18864 -19.18623 -19.18256 -19.17950
 Alpha  occ. eigenvalues --  -14.42512 -14.42377 -14.41508 -14.41254 -14.39464
 Alpha  occ. eigenvalues --  -14.39240 -14.38654 -14.38491 -10.39189 -10.38995
 Alpha  occ. eigenvalues --  -10.35496 -10.35300 -10.34476 -10.34127 -10.31797
 Alpha  occ. eigenvalues --  -10.31671 -10.31472 -10.31181 -10.30970 -10.30899
 Alpha  occ. eigenvalues --  -10.30638 -10.30572 -10.30296 -10.30258 -10.30247
 Alpha  occ. eigenvalues --  -10.30039 -10.29980 -10.29802 -10.29696 -10.29324
 Alpha  occ. eigenvalues --  -10.29313 -10.29295 -10.28813 -10.28602 -10.28577
 Alpha  occ. eigenvalues --  -10.28528 -10.28431 -10.28290 -10.28177 -10.27974
 Alpha  occ. eigenvalues --  -10.27890 -10.27861 -10.27788 -10.27647 -10.27541
 Alpha  occ. eigenvalues --  -10.27537 -10.27532 -10.27487 -10.27470 -10.27451
 Alpha  occ. eigenvalues --  -10.27372 -10.27358 -10.27325 -10.27314 -10.27244
 Alpha  occ. eigenvalues --  -10.26946 -10.26772 -10.26565 -10.26453 -10.26325
 Alpha  occ. eigenvalues --  -10.26290 -10.26215 -10.26087 -10.26079 -10.25929
 Alpha  occ. eigenvalues --  -10.25832 -10.25802 -10.25758 -10.25465 -10.25359
 Alpha  occ. eigenvalues --  -10.24904 -10.24846 -10.24763 -10.24719 -10.24680
 Alpha  occ. eigenvalues --  -10.24589  -3.16602  -3.16299  -1.91484  -1.91181
 Alpha  occ. eigenvalues --   -1.91070  -1.90912  -1.90770  -1.90607  -1.16743
 Alpha  occ. eigenvalues --   -1.16551  -1.08717  -1.08558  -1.07264  -1.06877
 Alpha  occ. eigenvalues --   -1.06851  -1.06755  -1.04644  -1.04375  -1.03820
 Alpha  occ. eigenvalues --   -1.03553  -1.03297  -1.02934  -1.02474  -1.02003
 Alpha  occ. eigenvalues --   -0.92043  -0.91877  -0.89572  -0.89405  -0.89250
 Alpha  occ. eigenvalues --   -0.89004  -0.88335  -0.88141  -0.87943  -0.87734
 Alpha  occ. eigenvalues --   -0.87688  -0.87566  -0.87331  -0.87008  -0.85044
 Alpha  occ. eigenvalues --   -0.84871  -0.83985  -0.83804  -0.83016  -0.82836
 Alpha  occ. eigenvalues --   -0.82712  -0.82532  -0.81668  -0.81495  -0.80666
 Alpha  occ. eigenvalues --   -0.80337  -0.78859  -0.78523  -0.77277  -0.77029
 Alpha  occ. eigenvalues --   -0.77001  -0.76789  -0.75994  -0.75710  -0.74950
 Alpha  occ. eigenvalues --   -0.74720  -0.72838  -0.72590  -0.71733  -0.71469
 Alpha  occ. eigenvalues --   -0.69950  -0.69686  -0.68935  -0.68703  -0.67706
 Alpha  occ. eigenvalues --   -0.67497  -0.67281  -0.67082  -0.65353  -0.65147
 Alpha  occ. eigenvalues --   -0.64923  -0.64686  -0.64664  -0.64544  -0.64322
 Alpha  occ. eigenvalues --   -0.64117  -0.62384  -0.62182  -0.60497  -0.60237
 Alpha  occ. eigenvalues --   -0.59868  -0.59662  -0.59051  -0.58887  -0.58570
 Alpha  occ. eigenvalues --   -0.58322  -0.57670  -0.57452  -0.57370  -0.57143
 Alpha  occ. eigenvalues --   -0.56378  -0.56093  -0.56067  -0.55783  -0.55582
 Alpha  occ. eigenvalues --   -0.55403  -0.55346  -0.55165  -0.54595  -0.54405
 Alpha  occ. eigenvalues --   -0.53958  -0.53772  -0.53360  -0.53286  -0.53126
 Alpha  occ. eigenvalues --   -0.53030  -0.52990  -0.52812  -0.52792  -0.52548
 Alpha  occ. eigenvalues --   -0.52482  -0.52333  -0.51994  -0.51786  -0.51682
 Alpha  occ. eigenvalues --   -0.51535  -0.51265  -0.51099  -0.50622  -0.50366
 Alpha  occ. eigenvalues --   -0.50077  -0.49974  -0.49864  -0.49775  -0.49577
 Alpha  occ. eigenvalues --   -0.49371  -0.49285  -0.49162  -0.49084  -0.48975
 Alpha  occ. eigenvalues --   -0.48668  -0.48517  -0.48506  -0.48441  -0.48297
 Alpha  occ. eigenvalues --   -0.48235  -0.47755  -0.47482  -0.47356  -0.47011
 Alpha  occ. eigenvalues --   -0.46857  -0.46620  -0.46603  -0.46424  -0.46423
 Alpha  occ. eigenvalues --   -0.46230  -0.46168  -0.45994  -0.45903  -0.45720
 Alpha  occ. eigenvalues --   -0.45250  -0.45128  -0.44655  -0.44561  -0.44412
 Alpha  occ. eigenvalues --   -0.44351  -0.44204  -0.44149  -0.44087  -0.44006
 Alpha  occ. eigenvalues --   -0.43985  -0.43830  -0.43577  -0.43456  -0.43443
 Alpha  occ. eigenvalues --   -0.43272  -0.43092  -0.42833  -0.42799  -0.42791
 Alpha  occ. eigenvalues --   -0.42710  -0.42468  -0.42067  -0.41870  -0.41771
 Alpha  occ. eigenvalues --   -0.41594  -0.41563  -0.41342  -0.41201  -0.40926
 Alpha  occ. eigenvalues --   -0.40874  -0.40869  -0.40622  -0.40616  -0.40585
 Alpha  occ. eigenvalues --   -0.40401  -0.40296  -0.40103  -0.39481  -0.39356
 Alpha  occ. eigenvalues --   -0.38517  -0.38265  -0.37812  -0.37533  -0.37373
 Alpha  occ. eigenvalues --   -0.37330  -0.37170  -0.37076  -0.36804  -0.36681
 Alpha  occ. eigenvalues --   -0.36263  -0.36122  -0.34350  -0.34144  -0.33876
 Alpha  occ. eigenvalues --   -0.33765  -0.33253  -0.33066  -0.31394  -0.31182
 Alpha  occ. eigenvalues --   -0.31098  -0.30863  -0.30116  -0.29855  -0.29512
 Alpha  occ. eigenvalues --   -0.29392  -0.29218  -0.29104  -0.24144  -0.23925
 Alpha  occ. eigenvalues --   -0.21190  -0.21005
 Alpha virt. eigenvalues --   -0.08838  -0.08681  -0.01809  -0.01577  -0.00118
 Alpha virt. eigenvalues --    0.00083   0.02127   0.02308   0.03053   0.03327
 Alpha virt. eigenvalues --    0.04657   0.04855   0.04994   0.05262   0.06112

 Mulliken charges:
               1
     1  Mg   0.838652
     2  C   -0.003134
     3  C   -0.094089
     4  C   -0.045760
     5  C   -0.063954
     6  N   -0.256831
     7  C   -0.052528
     8  C   -0.014015
     9  C   -0.087051
    10  C    0.046408
    11  C    0.104771
    12  C    0.053455
    13  C   -0.071854
    14  H    0.035974
    15  N   -0.433197
    16  C    0.168536
    17  C   -0.177030
    18  C   -0.003879
    19  C    0.148783
    20  C    0.110133
    21  C    0.012371
    22  O   -0.249252
    23  C    0.062442
    24  N   -0.341140
    25  C    0.041316
    26  C   -0.028287
    27  C   -0.023971
    28  C    0.074798
    29  C    0.076086
    30  C    0.035084
    31  C   -0.004541
    32  N   -0.310358
    33  C    0.080206
    34  C   -0.170111
    35  C    0.008133
    36  C    0.082760
    37  C    0.127432
    38  C    0.045716
    39  O   -0.189002
    40  C   -0.005184
    41  C    0.212843
    42  O   -0.257764
    43  O   -0.304570
    44  C    0.157917
    45  H   -0.017427
    46  H   -0.016520
    47  H   -0.041538
    48  H    0.000894
    49  H   -0.003881
    50  H    0.025466
    51  H    0.016533
    52  H    0.016824
    53  H    0.011384
    54  H    0.043733
    55  H    0.017917
    56  H    0.018263
    57  H    0.005999
    58  H    0.027033
    59  H    0.039658
    60  H    0.037445
    61  H    0.035876
    62  H    0.031383
    63  H    0.016906
    64  H    0.009530
    65  H    0.023566
    66  H    0.012519
    67  H    0.004853
    68  H    0.006880
    69  H    0.004527
    70  H    0.009350
    71  H    0.018100
    72  H    0.028501
    73  H    0.046877
    74  H    0.009107
    75  H    0.046138
    76  H    0.035270
    77  H    0.042865
    78  H    0.046711
    79  H    0.052939
    80  Mg   0.838031
    81  C   -0.016791
    82  C   -0.087280
    83  C   -0.045562
    84  C   -0.064994
    85  N   -0.254608
    86  C   -0.049684
    87  C   -0.015147
    88  C   -0.090461
    89  C    0.045568
    90  C    0.114038
    91  C    0.062495
    92  C   -0.077819
    93  H    0.034393
    94  N   -0.423600
    95  C    0.162799
    96  C   -0.173910
    97  C   -0.008005
    98  C    0.152374
    99  C    0.099101
   100  C    0.015537
   101  O   -0.253678
   102  C    0.061214
   103  N   -0.350024
   104  C    0.037614
   105  C   -0.019769
   106  C   -0.034722
   107  C    0.088851
   108  C    0.073797
   109  C    0.034821
   110  C   -0.007594
   111  N   -0.324065
   112  C    0.078342
   113  C   -0.163296
   114  C    0.002210
   115  C    0.096107
   116  C    0.131504
   117  C    0.042245
   118  O   -0.188262
   119  C    0.001016
   120  C    0.211204
   121  O   -0.251141
   122  O   -0.305580
   123  C    0.152107
   124  H   -0.018210
   125  H   -0.016010
   126  H   -0.040825
   127  H   -0.000675
   128  H   -0.004114
   129  H    0.022071
   130  H    0.015573
   131  H    0.017851
   132  H    0.013851
   133  H    0.037366
   134  H    0.020995
   135  H    0.019835
   136  H    0.009564
   137  H    0.026838
   138  H    0.039500
   139  H    0.038582
   140  H    0.035931
   141  H    0.033869
   142  H    0.014121
   143  H    0.012097
   144  H    0.024486
   145  H    0.011947
   146  H    0.005101
   147  H    0.005747
   148  H    0.003518
   149  H    0.010755
   150  H    0.017707
   151  H    0.030382
   152  H    0.045733
   153  H    0.008214
   154  H    0.047035
   155  H    0.035072
   156  H    0.043646
   157  H    0.049649
   158  H    0.053421
 Sum of Mulliken charges =  -0.00000

 Dipole moment (field-independent basis, Debye):
    X=              4.6397    Y=              3.5680    Z=              1.4054  Tot=              6.0193
 Quadrupole moment (field-independent basis, Debye-Ang):
   XX=           -519.9882   YY=           -519.2100   ZZ=           -479.5391
   XY=            -14.5063   XZ=             44.6616   YZ=             16.3596

 Normal termination of Gaussian 16 at Sat Sep 11 03:59:26 2021.
