 Gaussian 16, Revision A.03,
 Gaussian 16:  ES64L-G16RevA.03 25-Dec-2016

 -----------------------------------
 #p cam-b3lyp/Def2SVP td=(nstates=5)
 -----------------------------------

 --------------------------------
 TDDFT excited states in gaussian
 --------------------------------
 Symbolic Z-matrix:
 Charge =  0 Multiplicity = 1

                         Standard orientation:
 ---------------------------------------------------------------------
 Center     Atomic      Atomic             Coordinates (Angstroms)
 Number     Number       Type             X           Y           Z
 ---------------------------------------------------------------------
      1         12           0       -5.145815   -0.893148    0.223981
      2          6           0       -5.425645    2.670256    0.413888
      3          6           0       -6.118250   -0.646740   -3.037417
      4          6           0       -5.345935   -4.057354    0.157877
      5          6           0       -5.308907   -0.943764    3.704857
      6          7           0       -5.674771    0.846890   -1.038208
      7          6           0       -5.684027    2.164488   -0.862076
      8          6           0       -5.920053    2.962249   -2.179362
      9          6           0       -6.670951    1.837446   -3.023736
     10          6           0       -6.094806    0.603790   -2.351372
     11          6           0       -8.184118    1.839947   -2.831845
     12          6           0       -4.578362    3.391704   -2.862857
     13          6           0       -4.715134    4.444254   -3.966844
     14          1           0       -3.666059    5.441267   -4.117691
     15          7           0       -5.179415   -2.143089   -1.305518
     16          6           0       -5.590532   -1.868598   -2.566837
     17          6           0       -5.423126   -3.122800   -3.332103
     18          6           0       -5.060692   -4.198915   -2.368407
     19          6           0       -5.208392   -3.506231   -1.113914
     20          6           0       -5.557392   -3.201834   -4.821894
     21          6           0       -4.657057   -5.628125   -2.548882
     22          8           0       -4.611336   -6.450645   -1.571158
     23          6           0       -4.398681   -6.068162   -3.931868
     24          7           0       -5.525117   -2.323105    1.696729
     25          6           0       -5.497378   -3.629924    1.413111
     26          6           0       -5.514909   -4.460229    2.662201
     27          6           0       -5.314544   -3.439951    3.874075
     28          6           0       -5.297608   -2.117322    3.068695
     29          6           0       -6.785481   -5.288702    2.897336
     30          6           0       -4.143674   -3.725731    4.847631
     31          6           0       -2.824300   -3.536372    4.133142
     32          7           0       -5.155580    0.584926    1.813399
     33          6           0       -5.252221    0.341005    3.191019
     34          6           0       -5.328260    1.653853    3.857890
     35          6           0       -5.287000    2.575936    2.813904
     36          6           0       -5.217716    1.882429    1.571914
     37          6           0       -5.479731    1.870918    5.255879
     38          6           0       -5.310165    3.985248    2.457310
     39          8           0       -5.267529    5.040851    3.090853
     40          6           0       -5.523732    4.100434    0.883478
     41          6           0       -4.513419    5.083767    0.358471
     42          8           0       -3.293421    4.822322    0.383338
     43          8           0       -5.148728    6.064336   -0.301384
     44          6           0       -4.201647    7.058413   -0.873224
     45          1           0       -6.638485   -0.713812   -3.994913
     46          1           0       -5.307752   -5.148252    0.188257
     47          1           0       -5.276295   -0.879127    4.793991
     48          1           0       -6.561177    3.837387   -2.072045
     49          1           0       -6.388685    1.862160   -4.076085
     50          1           0       -8.484855    2.532237   -2.045579
     51          1           0       -8.444554    0.817188   -2.558659
     52          1           0       -8.693887    2.037151   -3.775256
     53          1           0       -4.190330    2.558166   -3.448269
     54          1           0       -3.860887    3.740353   -2.119218
     55          1           0       -5.695186    4.921590   -3.943231
     56          1           0       -4.685077    3.934820   -4.930053
     57          1           0       -5.991023   -2.291420   -5.233787
     58          1           0       -6.295765   -3.974698   -5.034484
     59          1           0       -4.613428   -3.452043   -5.306310
     60          1           0       -5.295952   -5.914934   -4.531848
     61          1           0       -4.035833   -7.092770   -3.858588
     62          1           0       -3.626990   -5.432088   -4.366438
     63          1           0       -4.698688   -5.181482    2.663819
     64          1           0       -6.191972   -3.394264    4.519604
     65          1           0       -6.597261   -6.356715    3.009706
     66          1           0       -7.470352   -5.097041    2.071801
     67          1           0       -7.383764   -4.975307    3.752472
     68          1           0       -4.178102   -4.759798    5.188903
     69          1           0       -4.151068   -3.085023    5.729498
     70          1           0       -2.679209   -4.492902    3.632311
     71          1           0       -2.026281   -3.346968    4.851823
     72          1           0       -2.896557   -2.771328    3.359855
     73          1           0       -4.792172    2.675678    5.515867
     74          1           0       -5.262816    0.965916    5.822907
     75          1           0       -6.531759    2.151622    5.303822
     76          1           0       -6.546555    4.443154    0.730188
     77          1           0       -4.494020    8.036736   -0.491601
     78          1           0       -4.213942    6.912350   -1.953464
     79          1           0       -3.170981    6.999967   -0.521583
     80         12           0        5.436786   -0.644733   -0.078939
     81          6           0        4.830807    2.885074    0.149796
     82          6           0        4.175288   -0.504845   -3.244960
     83          6           0        5.537546   -3.815206   -0.152580
     84          6           0        5.564890   -0.707710    3.403208
     85          7           0        4.638945    1.031735   -1.281078
     86          6           0        4.515346    2.339606   -1.112109
     87          6           0        4.102631    3.117160   -2.390636
     88          6           0        3.387566    1.916565   -3.181914
     89          6           0        4.133282    0.736747   -2.561753
     90          6           0        1.910778    1.774357   -2.852966
     91          6           0        5.341045    3.668606   -3.180730
     92          6           0        5.006848    4.695497   -4.264963
     93          1           0        5.945419    5.789061   -4.500909
     94          7           0        5.397094   -1.895469   -1.619287
     95          6           0        4.865161   -1.668148   -2.838563
     96          6           0        5.073790   -2.905958   -3.605668
     97          6           0        5.624850   -3.939508   -2.687606
     98          6           0        5.519395   -3.247964   -1.418465
     99          6           0        4.831648   -2.997483   -5.084322
    100          6           0        6.146924   -5.326210   -2.912747
    101          8           0        6.353999   -6.134018   -1.939402
    102          6           0        6.319983   -5.742416   -4.312146
    103          7           0        5.326191   -2.093844    1.407731
    104          6           0        5.449491   -3.399478    1.111039
    105          6           0        5.614140   -4.229854    2.361538
    106          6           0        5.819060   -3.180064    3.550459
    107          6           0        5.640529   -1.864995    2.760447
    108          6           0        4.450024   -5.160803    2.699972
    109          6           0        7.090102   -3.348932    4.427172
    110          6           0        8.325170   -3.048227    3.608895
    111          7           0        5.423135    0.824816    1.504818
    112          6           0        5.459024    0.580747    2.895226
    113          6           0        5.313437    1.886661    3.570382
    114          6           0        5.178786    2.804488    2.517791
    115          6           0        5.216135    2.116603    1.274841
    116          6           0        5.269173    2.095181    4.977744
    117          6           0        5.002894    4.197617    2.175787
    118          8           0        4.990197    5.252579    2.808733
    119          6           0        4.642890    4.297127    0.630828
    120          6           0        5.507261    5.366124    0.020405
    121          8           0        6.740776    5.221445   -0.043724
    122          8           0        4.721550    6.278931   -0.579431
    123          6           0        5.533558    7.353988   -1.209279
    124          1           0        3.590607   -0.614233   -4.158773
    125          1           0        5.682651   -4.897581   -0.122960
    126          1           0        5.693116   -0.631340    4.485057
    127          1           0        3.398966    3.923985   -2.224327
    128          1           0        3.585083    1.974006   -4.249179
    129          1           0        1.611822    2.431406   -2.049818
    130          1           0        1.771300    0.739942   -2.567329
    131          1           0        1.308018    1.922214   -3.753608
    132          1           0        5.754839    2.865352   -3.803859
    133          1           0        6.070610    4.077044   -2.508760
    134          1           0        3.984678    5.080815   -4.166733
    135          1           0        5.011016    4.190722   -5.234091
    136          1           0        4.272472   -2.129478   -5.454853
    137          1           0        4.156428   -3.844731   -5.245926
    138          1           0        5.749663   -3.163917   -5.651965
    139          1           0        5.366653   -5.671773   -4.830445
    140          1           0        6.785430   -6.728981   -4.268186
    141          1           0        6.999205   -5.038014   -4.805199
    142          1           0        6.492218   -4.860373    2.294241
    143          1           0        4.995868   -3.223409    4.278690
    144          1           0        4.751404   -6.221511    2.790202
    145          1           0        3.688502   -5.045184    1.940205
    146          1           0        3.908018   -4.910359    3.610315
    147          1           0        7.184293   -4.384859    4.762047
    148          1           0        7.090015   -2.722818    5.313159
    149          1           0        8.513150   -3.992741    3.089615
    150          1           0        9.157980   -2.781196    4.256311
    151          1           0        8.116822   -2.288678    2.846447
    152          1           0        5.889654    2.957025    5.184457
    153          1           0        5.613071    1.217309    5.520746
    154          1           0        4.198744    2.269779    5.115472
    155          1           0        3.581490    4.536914    0.556562
    156          1           0        5.178206    8.304489   -0.799445
    157          1           0        5.430171    7.205950   -2.300678
    158          1           0        6.587420    7.397160   -0.960362
 ---------------------------------------------------------------------

 SCF Done:  E(RCAM-B3LYP) =  -4069.81141834     A.U. after   19 cycles

 Excitation energies and oscillator strengths:

 Excited State   1:      Singlet-A      1.6566 eV  748.42 nm  f=0.0023  <S**2>=0.000
     309 -> 315       -0.11400
     310 -> 316        0.12489
     311 -> 313       -0.46120
     312 -> 314        0.50939
 This state for optimization and/or second-order correction.
 Total Energy, E(TD-HF/TD-DFT) =  -4069.75053910
 Copying the excited state density for this state as the 1-particle RhoCI density.

 Excited State   2:      Singlet-A      1.6969 eV  730.67 nm  f=0.7180  <S**2>=0.000
     309 -> 315        0.13356
     310 -> 316        0.11993
     311 -> 313        0.50746
     312 -> 314        0.45953

 Excited State   3:      Singlet-A      2.1826 eV  568.05 nm  f=0.0235  <S**2>=0.000
     309 -> 313       -0.27229
     310 -> 314        0.58373
     311 -> 315        0.11355
     312 -> 316       -0.24490

 Excited State   4:      Singlet-A      2.1946 eV  564.95 nm  f=0.1582  <S**2>=0.000
     309 -> 313        0.57995
     310 -> 314        0.26909
     311 -> 315       -0.25443
     312 -> 316       -0.11894

 Excited State   5:      Singlet-A      2.4749 eV  500.97 nm  f=0.0000  <S**2>=0.000
     312 -> 313        0.70707

 The electronic state is 1-A.
 Alpha  occ. eigenvalues --  -46.87898 -46.87480 -19.26366 -19.26136 -19.19105
 Alpha  occ. eigenvalues --  -19.18954 -19.18907 -19.18571 -19.18236 -19.17819
 Alpha  occ. eigenvalues --  -14.42558 -14.42316 -14.41546 -14.41182 -14.39505
 Alpha  occ. eigenvalues --  -14.39176 -14.38682 -14.38411 -10.39166 -10.38877
 Alpha  occ. eigenvalues --  -10.35542 -10.35253 -10.34458 -10.33992 -10.31756
 Alpha  occ. eigenvalues --  -10.31576 -10.31510 -10.31115 -10.31025 -10.30843
 Alpha  occ. eigenvalues --  -10.30667 -10.30598 -10.30305 -10.30213 -10.30172
 Alpha  occ. eigenvalues --  -10.30006 -10.29986 -10.29724 -10.29711 -10.29355
 Alpha  occ. eigenvalues --  -10.29271 -10.29223 -10.28891 -10.28747 -10.28537
 Alpha  occ. eigenvalues --  -10.28522 -10.28465 -10.28246 -10.28216 -10.27944
 Alpha  occ. eigenvalues --  -10.27883 -10.27834 -10.27816 -10.27683 -10.27616
 Alpha  occ. eigenvalues --  -10.27582 -10.27525 -10.27504 -10.27498 -10.27379
 Alpha  occ. eigenvalues --  -10.27368 -10.27295 -10.27292 -10.27242 -10.27227
 Alpha  occ. eigenvalues --  -10.26899 -10.26792 -10.26541 -10.26522 -10.26345
 Alpha  occ. eigenvalues --  -10.26315 -10.26262 -10.26114 -10.26018 -10.25895
 Alpha  occ. eigenvalues --  -10.25770 -10.25765 -10.25643 -10.25501 -10.25253
 Alpha  occ. eigenvalues --  -10.24920 -10.24880 -10.24770 -10.24677 -10.24614
 Alpha  occ. eigenvalues --  -10.24511  -3.16641  -3.16230  -1.91523  -1.91112
 Alpha  occ. eigenvalues --   -1.91110  -1.90952  -1.90701  -1.90538  -1.16715
 Alpha  occ. eigenvalues --   -1.16432  -1.08691  -1.08419  -1.07307  -1.06826
 Alpha  occ. eigenvalues --   -1.06737  -1.06726  -1.04689  -1.04310  -1.03859
 Alpha  occ. eigenvalues --   -1.03483  -1.03330  -1.02861  -1.02508  -1.01929
 Alpha  occ. eigenvalues --   -0.92066  -0.91783  -0.89608  -0.89330  -0.89322
 Alpha  occ. eigenvalues --   -0.88962  -0.88374  -0.88064  -0.87952  -0.87785
 Alpha  occ. eigenvalues --   -0.87600  -0.87511  -0.87381  -0.86975  -0.85111
 Alpha  occ. eigenvalues --   -0.84824  -0.84019  -0.83722  -0.83069  -0.82799
 Alpha  occ. eigenvalues --   -0.82763  -0.82481  -0.81677  -0.81406  -0.80695
 Alpha  occ. eigenvalues --   -0.80263  -0.78898  -0.78473  -0.77325  -0.77045
 Alpha  occ. eigenvalues --   -0.76977  -0.76722  -0.76027  -0.75646  -0.74983
 Alpha  occ. eigenvalues --   -0.74638  -0.72868  -0.72519  -0.71769  -0.71396
 Alpha  occ. eigenvalues --   -0.69992  -0.69614  -0.68993  -0.68654  -0.67738
 Alpha  occ. eigenvalues --   -0.67426  -0.67361  -0.67048  -0.65409  -0.65087
 Alpha  occ. eigenvalues --   -0.64949  -0.64723  -0.64592  -0.64474  -0.64359
 Alpha  occ. eigenvalues --   -0.64042  -0.62384  -0.62087  -0.60542  -0.60185
 Alpha  occ. eigenvalues --   -0.59924  -0.59608  -0.59082  -0.58812  -0.58597
 Alpha  occ. eigenvalues --   -0.58241  -0.57669  -0.57398  -0.57334  -0.57063
 Alpha  occ. eigenvalues --   -0.56405  -0.56076  -0.56029  -0.55701  -0.55619
 Alpha  occ. eigenvalues --   -0.55421  -0.55284  -0.55075  -0.54607  -0.54314
 Alpha  occ. eigenvalues --   -0.54028  -0.53730  -0.53396  -0.53336  -0.53062
 Alpha  occ. eigenvalues --   -0.53011  -0.52969  -0.52874  -0.52726  -0.52524
 Alpha  occ. eigenvalues --   -0.52521  -0.52261  -0.51984  -0.51744  -0.51682
 Alpha  occ. eigenvalues --   -0.51492  -0.51287  -0.51015  -0.50689  -0.50351
 Alpha  occ. eigenvalues --   -0.50126  -0.50025  -0.49815  -0.49714  -0.49627
 Alpha  occ. eigenvalues --   -0.49323  -0.49311  -0.49207  -0.49015  -0.48903
 Alpha  occ. eigenvalues --   -0.48685  -0.48552  -0.48530  -0.48370  -0.48217
 Alpha  occ. eigenvalues --   -0.48175  -0.47800  -0.47429  -0.47395  -0.46964
 Alpha  occ. eigenvalues --   -0.46897  -0.46684  -0.46541  -0.46452  -0.46384
 Alpha  occ. eigenvalues --   -0.46247  -0.46106  -0.45905  -0.45905  -0.45625
 Alpha  occ. eigenvalues --   -0.45287  -0.45045  -0.44666  -0.44619  -0.44328
 Alpha  occ. eigenvalues --   -0.44306  -0.44239  -0.44208  -0.44111  -0.43941
 Alpha  occ. eigenvalues --   -0.43923  -0.43766  -0.43581  -0.43496  -0.43370
 Alpha  occ. eigenvalues --   -0.43206  -0.43120  -0.42784  -0.42743  -0.42739
 Alpha  occ. eigenvalues --   -0.42703  -0.42402  -0.42108  -0.41805  -0.41797
 Alpha  occ. eigenvalues --   -0.41661  -0.41470  -0.41291  -0.41242  -0.40990
 Alpha  occ. eigenvalues --   -0.40935  -0.40805  -0.40662  -0.40576  -0.40538
 Alpha  occ. eigenvalues --   -0.40398  -0.40330  -0.40072  -0.39527  -0.39287
 Alpha  occ. eigenvalues --   -0.38566  -0.38195  -0.37899  -0.37497  -0.37415
 Alpha  occ. eigenvalues --   -0.37388  -0.37102  -0.37023  -0.36799  -0.36578
 Alpha  occ. eigenvalues --   -0.36286  -0.36043  -0.34384  -0.34071  -0.33858
 Alpha  occ. eigenvalues --   -0.33659  -0.33283  -0.32995  -0.31437  -0.31134
 Alpha  occ. eigenvalues --   -0.31129  -0.30790  -0.30095  -0.29719  -0.29547
 Alpha  occ. eigenvalues --   -0.29409  -0.29157  -0.29014  -0.24180  -0.23850
 Alpha  occ. eigenvalues --   -0.21226  -0.20938
 Alpha virt. eigenvalues --   -0.08871  -0.08611  -0.01848  -0.01509  -0.00159
 Alpha virt. eigenvalues --    0.00139   0.02120   0.02413   0.02989   0.03392
 Alpha virt. eigenvalues --    0.04595   0.04905   0.05012   0.05378   0.06016

 Mulliken charges:
               1
     1  Mg   0.838324
     2  C   -0.003260
     3  C   -0.094912
     4  C   -0.045591
     5  C   -0.063768
     6  N   -0.256692
     7  C   -0.052759
     8  C   -0.013811
     9  C   -0.086871
    10  C    0.045949
    11  C    0.104789
    12  C    0.053788
    13  C   -0.071415
    14  H    0.034946
    15  N   -0.433114
    16  C    0.168100
    17  C   -0.177702
    18  C   -0.004038
    19  C    0.148615
    20  C    0.110285
    21  C    0.012376
    22  O   -0.249110
    23  C    0.062630
    24  N   -0.341117
    25  C    0.041147
    26  C   -0.028246
    27  C   -0.024036
    28  C    0.074916
    29  C    0.076077
    30  C    0.035058
    31  C   -0.004481
    32  N   -0.310588
    33  C    0.080576
    34  C   -0.169228
    35  C    0.008747
    36  C    0.083020
    37  C    0.127158
    38  C    0.046568
    39  O   -0.187320
    40  C   -0.005504
    41  C    0.213284
    42  O   -0.257395
    43  O   -0.304784
    44  C    0.157343
    45  H   -0.017757
    46  H   -0.016562
    47  H   -0.041133
    48  H    0.001323
    49  H   -0.004661
    50  H    0.025733
    51  H    0.016691
    52  H    0.016650
    53  H    0.009820
    54  H    0.043645
    55  H    0.018735
    56  H    0.017326
    57  H    0.005534
    58  H    0.027096
    59  H    0.038334
    60  H    0.037337
    61  H    0.036079
    62  H    0.030476
    63  H    0.016769
    64  H    0.009698
    65  H    0.023439
    66  H    0.012565
    67  H    0.004904
    68  H    0.006525
    69  H    0.004865
    70  H    0.008996
    71  H    0.017718
    72  H    0.029075
    73  H    0.048442
    74  H    0.009218
    75  H    0.046233
    76  H    0.035332
    77  H    0.043729
    78  H    0.045634
    79  H    0.054229
    80  Mg   0.837938
    81  C   -0.016325
    82  C   -0.087975
    83  C   -0.045543
    84  C   -0.065020
    85  N   -0.254568
    86  C   -0.048816
    87  C   -0.015257
    88  C   -0.090826
    89  C    0.046048
    90  C    0.113873
    91  C    0.062623
    92  C   -0.077371
    93  H    0.034184
    94  N   -0.423408
    95  C    0.162804
    96  C   -0.175221
    97  C   -0.008050
    98  C    0.151925
    99  C    0.099725
   100  C    0.015328
   101  O   -0.253423
   102  C    0.061362
   103  N   -0.349982
   104  C    0.037398
   105  C   -0.019727
   106  C   -0.034787
   107  C    0.089158
   108  C    0.073755
   109  C    0.034794
   110  C   -0.007584
   111  N   -0.324379
   112  C    0.078951
   113  C   -0.162787
   114  C    0.003290
   115  C    0.096082
   116  C    0.131180
   117  C    0.043613
   118  O   -0.186821
   119  C    0.000213
   120  C    0.210869
   121  O   -0.251743
   122  O   -0.304786
   123  C    0.152295
   124  H   -0.020943
   125  H   -0.015884
   126  H   -0.040698
   127  H    0.000943
   128  H   -0.005689
   129  H    0.027777
   130  H    0.013740
   131  H    0.014019
   132  H    0.013424
   133  H    0.037627
   134  H    0.020775
   135  H    0.018764
   136  H    0.007857
   137  H    0.025016
   138  H    0.039203
   139  H    0.037707
   140  H    0.036007
   141  H    0.033594
   142  H    0.014044
   143  H    0.012109
   144  H    0.024784
   145  H    0.012273
   146  H    0.005077
   147  H    0.005879
   148  H    0.003487
   149  H    0.010776
   150  H    0.017636
   151  H    0.030308
   152  H    0.045866
   153  H    0.007826
   154  H    0.048652
   155  H    0.039194
   156  H    0.043935
   157  H    0.048801
   158  H    0.053116
 Sum of Mulliken charges =  -0.00000

 Dipole moment (field-independent basis, Debye):
    X=             -4.4851    Y=             -2.5218    Z=             -7.0563  Tot=              8.7330
 Quadrupole moment (field-independent basis, Debye-Ang):
   XX=           -518.4203   YY=           -553.3007   ZZ=           -447.9702
   XY=             -6.1393   XZ=              9.4474   YZ=            -46.5596

 Normal termination of Gaussian 16 at Fri Sep 10 22:58:10 2021.
