 Gaussian 16, Revision A.03,
 Gaussian 16:  ES64L-G16RevA.03 25-Dec-2016

 -----------------------------------
 #p cam-b3lyp/Def2SVP td=(nstates=5)
 -----------------------------------

 --------------------------------
 TDDFT excited states in gaussian
 --------------------------------
 Symbolic Z-matrix:
 Charge =  0 Multiplicity = 1

                         Standard orientation:
 ---------------------------------------------------------------------
 Center     Atomic      Atomic             Coordinates (Angstroms)
 Number     Number       Type             X           Y           Z
 ---------------------------------------------------------------------
      1         12           0        3.642123    1.108470    0.406709
      2          6           0        4.018080   -1.817977    2.433227
      3          6           0        5.000749   -0.678113   -2.163374
      4          6           0        3.741375    3.799685   -1.267846
      5          6           0        3.391126    2.941550    3.360093
      6          7           0        4.375080   -0.976233    0.274680
      7          6           0        4.408084   -2.012768    1.106352
      8          6           0        4.824928   -3.345794    0.415948
      9          6           0        5.631776   -2.746644   -0.821797
     10          6           0        4.938802   -1.400174   -0.934625
     11          6           0        7.110896   -2.514913   -0.530240
     12          6           0        3.588678   -4.182345   -0.056916
     13          6           0        3.890454   -5.633486   -0.442239
     14          1           0        2.900911   -6.657642   -0.143481
     15          7           0        3.813793    1.400811   -1.539548
     16          6           0        4.380068    0.559715   -2.437978
     17          6           0        4.261844    1.227363   -3.752113
     18          6           0        3.751888    2.606838   -3.517405
     19          6           0        3.773754    2.667277   -2.078222
     20          6           0        4.568381    0.547306   -5.051077
     21          6           0        3.324226    3.701191   -4.443487
     22          8           0        3.135514    4.899340   -4.039259
     23          6           0        3.216255    3.349141   -5.870878
     24          7           0        3.796172    3.116921    0.954456
     25          6           0        3.757886    4.087760    0.035222
     26          6           0        3.599630    5.436641    0.671944
     27          6           0        3.292198    5.163807    2.214929
     28          6           0        3.415309    3.620079    2.210710
     29          6           0        4.804745    6.379507    0.550647
     30          6           0        2.005532    5.799520    2.798690
     31          6           0        0.786959    5.154569    2.177226
     32          7           0        3.514139    0.655420    2.525532
     33          6           0        3.439071    1.575313    3.581389
     34          6           0        3.480229    0.799103    4.834335
     35          6           0        3.593817   -0.525830    4.417806
     36          6           0        3.648268   -0.572141    2.995420
     37          6           0        3.472782    1.339944    6.150340
     38          6           0        3.706653   -1.911246    4.844125
     39          8           0        3.625260   -2.495050    5.925809
     40          6           0        4.108393   -2.793185    3.580553
     41          6           0        3.201048   -3.992961    3.556687
     42          8           0        1.978504   -3.866279    3.340578
     43          8           0        3.942689   -5.111221    3.554356
     44          6           0        3.103991   -6.338389    3.501435
     45          1           0        5.627863   -1.062258   -2.970282
     46          1           0        3.662948    4.744994   -1.808843
     47          1           0        3.232309    3.438740    4.318754
     48          1           0        5.478156   -3.982107    1.013294
     49          1           0        5.476782   -3.329817   -1.729326
     50          1           0        7.339930   -2.679159    0.522608
     51          1           0        7.302455   -1.477232   -0.804130
     52          1           0        7.734910   -3.118901   -1.189468
     53          1           0        3.244503   -3.802681   -1.018924
     54          1           0        2.800613   -4.165872    0.696748
     55          1           0        4.876456   -5.941706   -0.093370
     56          1           0        3.957141   -5.691575   -1.528691
     57          1           0        5.078208   -0.402614   -4.895278
     58          1           0        5.300095    1.166438   -5.569709
     59          1           0        3.680312    0.429473   -5.672190
     60          1           0        4.182782    2.992741   -6.227747
     61          1           0        2.812802    4.230435   -6.368268
     62          1           0        2.523281    2.514008   -5.977131
     63          1           0        2.764977    5.981121    0.232262
     64          1           0        4.088278    5.532788    2.862063
     65          1           0        4.568509    7.333564    0.078765
     66          1           0        5.588424    5.856111    0.003660
     67          1           0        5.308105    6.601267    1.491321
     68          1           0        1.964371    6.861282    2.558036
     69          1           0        1.930408    5.701787    3.881767
     70          1           0        0.669729    5.704421    1.244084
     71          1           0       -0.083485    5.287306    2.820592
     72          1           0        0.975913    4.112231    1.919711
     73          1           0        2.786979    0.722265    6.730094
     74          1           0        3.159888    2.383828    6.147675
     75          1           0        4.520681    1.218819    6.424367
     76          1           0        5.153178   -3.072612    3.712718
     77          1           0        3.382207   -6.954437    4.356605
     78          1           0        3.238838   -6.763212    2.506575
     79          1           0        2.037623   -6.201708    3.684508
     80         12           0       -4.196018    0.117683   -0.344574
     81          6           0       -1.893925   -1.895834   -2.222121
     82          6           0       -6.266218   -2.591921   -0.261483
     83          6           0       -6.429412    1.987185    0.914119
     84          6           0       -2.504469    2.920204   -1.540513
     85          7           0       -3.994522   -1.924219   -1.170583
     86          6           0       -3.049061   -2.593879   -1.812469
     87          6           0       -3.323434   -4.114864   -1.956993
     88          6           0       -4.924001   -4.083595   -1.830275
     89          6           0       -5.079057   -2.807144   -1.006081
     90          6           0       -5.629226   -3.881443   -3.161114
     91          6           0       -2.671963   -4.952249   -0.800963
     92          6           0       -2.635671   -6.462858   -1.042785
     93          1           0       -1.488406   -7.219438   -0.548970
     94          7           0       -5.842932   -0.346921    0.660604
     95          6           0       -6.540899   -1.499843    0.590718
     96          6           0       -7.679636   -1.336985    1.507734
     97          6           0       -7.688446    0.067452    1.999880
     98          6           0       -6.643356    0.641849    1.176507
     99          6           0       -8.578744   -2.473788    1.898510
    100          6           0       -8.511156    0.779223    3.030757
    101          8           0       -8.510745    2.057292    3.127565
    102          6           0       -9.388418   -0.058099    3.861897
    103          7           0       -4.568466    2.158439   -0.482259
    104          6           0       -5.573750    2.725781    0.207266
    105          6           0       -5.478316    4.232401    0.170446
    106          6           0       -4.057303    4.556929   -0.487576
    107          6           0       -3.595045    3.119678   -0.813164
    108          6           0       -6.577413    4.949636   -0.613103
    109          6           0       -3.100762    5.475744    0.320809
    110          6           0       -2.642481    4.767446    1.575276
    111          7           0       -2.400508    0.479032   -1.490715
    112          6           0       -1.888326    1.729010   -1.902197
    113          6           0       -0.712829    1.458432   -2.755089
    114          6           0       -0.635782    0.058238   -2.799769
    115          6           0       -1.700855   -0.504312   -2.045672
    116          6           0        0.087327    2.440227   -3.404659
    117          6           0        0.098108   -1.071919   -3.322122
    118          8           0        1.143839   -1.211109   -3.955205
    119          6           0       -0.758040   -2.388167   -3.075353
    120          6           0        0.153885   -3.433056   -2.493038
    121          8           0        0.656980   -3.276072   -1.366597
    122          8           0        0.108553   -4.535817   -3.262600
    123          6           0        0.988447   -5.604833   -2.719625
    124          1           0       -7.083856   -3.304892   -0.371141
    125          1           0       -7.108488    2.679493    1.417169
    126          1           0       -1.865215    3.741491   -1.871449
    127          1           0       -3.034177   -4.540033   -2.910584
    128          1           0       -5.293198   -4.942564   -1.276001
    129          1           0       -4.931978   -3.673297   -3.959025
    130          1           0       -6.298318   -3.043542   -3.015188
    131          1           0       -6.267304   -4.741368   -3.384062
    132          1           0       -3.327368   -4.918501    0.078826
    133          1           0       -1.683323   -4.597208   -0.583796
    134          1           0       -2.842567   -6.717869   -2.089262
    135          1           0       -3.456572   -6.923016   -0.487450
    136          1           0       -8.428989   -3.346159    1.250480
    137          1           0       -9.605975   -2.154762    1.691446
    138          1           0       -8.495391   -2.732304    2.956282
    139          1           0      -10.078825   -0.603301    3.222709
    140          1           0       -9.827309    0.618766    4.597480
    141          1           0       -8.774488   -0.807712    4.373553
    142          1           0       -5.504958    4.646158    1.171042
    143          1           0       -4.163583    5.078488   -1.450126
    144          1           0       -7.131391    5.691952   -0.008001
    145          1           0       -7.252726    4.205074   -1.013235
    146          1           0       -6.242734    5.464788   -1.511893
    147          1           0       -3.626732    6.376230    0.647357
    148          1           0       -2.231506    5.797187   -0.243169
    149          1           0       -3.464844    4.946737    2.274315
    150          1           0       -1.712692    5.198687    1.940734
    151          1           0       -2.576637    3.685116    1.414395
    152          1           0        1.118300    2.142684   -3.266655
    153          1           0       -0.097800    3.433904   -3.002024
    154          1           0       -0.275081    2.339202   -4.431173
    155          1           0       -1.171211   -2.695287   -4.036890
    156          1           0        1.676201   -5.890530   -3.521534
    157          1           0        0.306570   -6.387879   -2.338025
    158          1           0        1.682300   -5.331585   -1.933277
 ---------------------------------------------------------------------

 SCF Done:  E(RCAM-B3LYP) =  -4069.81381445     A.U. after   18 cycles

 Excitation energies and oscillator strengths:

 Excited State   1:      Singlet-A      1.6215 eV  764.60 nm  f=0.1989  <S**2>=0.000
     309 -> 315        0.11785
     310 -> 316        0.10652
     311 -> 313        0.49138
     312 -> 313       -0.12374
     312 -> 314        0.46177
 This state for optimization and/or second-order correction.
 Total Energy, E(TD-HF/TD-DFT) =  -4069.75422373
 Copying the excited state density for this state as the 1-particle RhoCI density.

 Excited State   2:      Singlet-A      1.7092 eV  725.41 nm  f=0.5466  <S**2>=0.000
     309 -> 315       -0.12445
     310 -> 316        0.13084
     311 -> 313       -0.46930
     312 -> 314        0.49725

 Excited State   3:      Singlet-A      2.1057 eV  588.82 nm  f=0.0002  <S**2>=0.000
     312 -> 313        0.69138

 Excited State   4:      Singlet-A      2.1730 eV  570.56 nm  f=0.0043  <S**2>=0.000
     309 -> 313        0.50713
     310 -> 314        0.39525
     311 -> 315       -0.20602
     312 -> 316       -0.15738

 Excited State   5:      Singlet-A      2.1960 eV  564.60 nm  f=0.1584  <S**2>=0.000
     309 -> 313       -0.39246
     310 -> 314        0.49808
     311 -> 315        0.17167
     312 -> 316       -0.21991

 The electronic state is 1-A.
 Alpha  occ. eigenvalues --  -46.87587 -46.87024 -19.26703 -19.25743 -19.19620
 Alpha  occ. eigenvalues --  -19.18651 -19.18422 -19.18382 -19.18334 -19.17524
 Alpha  occ. eigenvalues --  -14.42419 -14.41649 -14.41297 -14.40758 -14.39288
 Alpha  occ. eigenvalues --  -14.38692 -14.38561 -14.37843 -10.39445 -10.38445
 Alpha  occ. eigenvalues --  -10.35325 -10.34946 -10.34504 -10.33744 -10.32054
 Alpha  occ. eigenvalues --  -10.31290 -10.31285 -10.30983 -10.30624 -10.30351
 Alpha  occ. eigenvalues --  -10.30336 -10.30081 -10.30024 -10.29893 -10.29837
 Alpha  occ. eigenvalues --  -10.29810 -10.29543 -10.29365 -10.29357 -10.29344
 Alpha  occ. eigenvalues --  -10.29002 -10.28683 -10.28619 -10.28500 -10.28396
 Alpha  occ. eigenvalues --  -10.28258 -10.28109 -10.27972 -10.27886 -10.27605
 Alpha  occ. eigenvalues --  -10.27587 -10.27460 -10.27427 -10.27393 -10.27357
 Alpha  occ. eigenvalues --  -10.27334 -10.27273 -10.27257 -10.27100 -10.27081
 Alpha  occ. eigenvalues --  -10.27054 -10.26929 -10.26918 -10.26669 -10.26579
 Alpha  occ. eigenvalues --  -10.26504 -10.26367 -10.26325 -10.26027 -10.25957
 Alpha  occ. eigenvalues --  -10.25909 -10.25828 -10.25826 -10.25592 -10.25458
 Alpha  occ. eigenvalues --  -10.25448 -10.25344 -10.25302 -10.25289 -10.25095
 Alpha  occ. eigenvalues --  -10.24878 -10.24645 -10.24631 -10.24262 -10.24160
 Alpha  occ. eigenvalues --  -10.24117  -3.16335  -3.15761  -1.91216  -1.90805
 Alpha  occ. eigenvalues --   -1.90643  -1.90641  -1.90229  -1.90073  -1.17011
 Alpha  occ. eigenvalues --   -1.16071  -1.08984  -1.07996  -1.07361  -1.06900
 Alpha  occ. eigenvalues --   -1.06740  -1.06014  -1.04442  -1.03796  -1.03604
 Alpha  occ. eigenvalues --   -1.03069  -1.02981  -1.02528  -1.02066  -1.01696
 Alpha  occ. eigenvalues --   -0.92030  -0.91260  -0.89407  -0.89103  -0.89036
 Alpha  occ. eigenvalues --   -0.88396  -0.88106  -0.87789  -0.87681  -0.87607
 Alpha  occ. eigenvalues --   -0.87195  -0.87058  -0.86902  -0.86520  -0.84953
 Alpha  occ. eigenvalues --   -0.84294  -0.83802  -0.83540  -0.82850  -0.82633
 Alpha  occ. eigenvalues --   -0.82355  -0.82012  -0.81683  -0.80998  -0.80452
 Alpha  occ. eigenvalues --   -0.79953  -0.78564  -0.78054  -0.77068  -0.76933
 Alpha  occ. eigenvalues --   -0.76669  -0.76343  -0.75855  -0.75286  -0.74755
 Alpha  occ. eigenvalues --   -0.74382  -0.72619  -0.72113  -0.71556  -0.71030
 Alpha  occ. eigenvalues --   -0.69782  -0.69425  -0.68795  -0.68210  -0.67586
 Alpha  occ. eigenvalues --   -0.67139  -0.66991  -0.66512  -0.65270  -0.64786
 Alpha  occ. eigenvalues --   -0.64649  -0.64564  -0.64233  -0.64125  -0.64011
 Alpha  occ. eigenvalues --   -0.63687  -0.62422  -0.61722  -0.60279  -0.59778
 Alpha  occ. eigenvalues --   -0.59747  -0.59067  -0.58961  -0.58462  -0.58334
 Alpha  occ. eigenvalues --   -0.57852  -0.57747  -0.57202  -0.56939  -0.56723
 Alpha  occ. eigenvalues --   -0.56214  -0.55997  -0.55632  -0.55514  -0.55377
 Alpha  occ. eigenvalues --   -0.55331  -0.55011  -0.54857  -0.54500  -0.54032
 Alpha  occ. eigenvalues --   -0.53875  -0.53225  -0.53193  -0.53126  -0.52953
 Alpha  occ. eigenvalues --   -0.52787  -0.52631  -0.52532  -0.52334  -0.52277
 Alpha  occ. eigenvalues --   -0.52178  -0.52061  -0.51653  -0.51501  -0.51306
 Alpha  occ. eigenvalues --   -0.51201  -0.50863  -0.50601  -0.50406  -0.50051
 Alpha  occ. eigenvalues --   -0.49923  -0.49749  -0.49505  -0.49346  -0.49278
 Alpha  occ. eigenvalues --   -0.49250  -0.49093  -0.48867  -0.48636  -0.48535
 Alpha  occ. eigenvalues --   -0.48440  -0.48373  -0.48266  -0.48037  -0.47908
 Alpha  occ. eigenvalues --   -0.47806  -0.47569  -0.47119  -0.47032  -0.46698
 Alpha  occ. eigenvalues --   -0.46597  -0.46533  -0.46327  -0.46126  -0.46044
 Alpha  occ. eigenvalues --   -0.45934  -0.45817  -0.45651  -0.45569  -0.45346
 Alpha  occ. eigenvalues --   -0.45162  -0.44765  -0.44524  -0.44381  -0.44202
 Alpha  occ. eigenvalues --   -0.44075  -0.44012  -0.43938  -0.43900  -0.43645
 Alpha  occ. eigenvalues --   -0.43534  -0.43442  -0.43333  -0.43292  -0.43011
 Alpha  occ. eigenvalues --   -0.42949  -0.42879  -0.42711  -0.42655  -0.42333
 Alpha  occ. eigenvalues --   -0.42216  -0.42132  -0.41814  -0.41675  -0.41482
 Alpha  occ. eigenvalues --   -0.41303  -0.41058  -0.40969  -0.40922  -0.40656
 Alpha  occ. eigenvalues --   -0.40627  -0.40522  -0.40387  -0.40318  -0.40224
 Alpha  occ. eigenvalues --   -0.40149  -0.40019  -0.39437  -0.39309  -0.38828
 Alpha  occ. eigenvalues --   -0.38211  -0.37971  -0.37598  -0.37216  -0.37151
 Alpha  occ. eigenvalues --   -0.37091  -0.36949  -0.36733  -0.36516  -0.36220
 Alpha  occ. eigenvalues --   -0.36056  -0.35550  -0.34257  -0.34101  -0.33564
 Alpha  occ. eigenvalues --   -0.33138  -0.33111  -0.32458  -0.31210  -0.30935
 Alpha  occ. eigenvalues --   -0.30840  -0.30350  -0.30239  -0.29392  -0.29339
 Alpha  occ. eigenvalues --   -0.29217  -0.28698  -0.28586  -0.23986  -0.23341
 Alpha  occ. eigenvalues --   -0.21066  -0.20385
 Alpha virt. eigenvalues --   -0.08766  -0.08029  -0.01615  -0.01105  -0.00005
 Alpha virt. eigenvalues --    0.00638   0.02123   0.02824   0.03078   0.04513
 Alpha virt. eigenvalues --    0.04674   0.04768   0.05259   0.05736   0.05945

 Mulliken charges:
               1
     1  Mg   0.840124
     2  C    0.001124
     3  C   -0.082548
     4  C   -0.050108
     5  C   -0.066206
     6  N   -0.257354
     7  C   -0.044766
     8  C   -0.010687
     9  C   -0.091805
    10  C    0.054427
    11  C    0.105875
    12  C    0.050939
    13  C   -0.077602
    14  H    0.029609
    15  N   -0.433997
    16  C    0.183074
    17  C   -0.162004
    18  C   -0.017048
    19  C    0.140132
    20  C    0.117655
    21  C    0.008868
    22  O   -0.255099
    23  C    0.066763
    24  N   -0.340872
    25  C    0.041821
    26  C   -0.027814
    27  C   -0.023658
    28  C    0.073314
    29  C    0.076930
    30  C    0.047762
    31  C   -0.039170
    32  N   -0.310223
    33  C    0.079497
    34  C   -0.172050
    35  C    0.006997
    36  C    0.082543
    37  C    0.127786
    38  C    0.045231
    39  O   -0.191759
    40  C   -0.006374
    41  C    0.212194
    42  O   -0.254200
    43  O   -0.305498
    44  C    0.159478
    45  H   -0.019699
    46  H   -0.021894
    47  H   -0.044568
    48  H   -0.004682
    49  H   -0.004212
    50  H    0.024198
    51  H    0.015599
    52  H    0.014197
    53  H    0.028261
    54  H    0.050621
    55  H    0.015485
    56  H    0.011425
    57  H    0.004875
    58  H    0.020007
    59  H    0.049511
    60  H    0.037440
    61  H    0.031500
    62  H    0.033281
    63  H    0.012462
    64  H    0.008103
    65  H    0.021170
    66  H    0.013162
    67  H    0.004066
    68  H    0.003727
    69  H    0.003092
    70  H    0.009825
    71  H    0.050081
    72  H    0.035984
    73  H    0.045677
    74  H    0.007284
    75  H    0.044366
    76  H    0.033439
    77  H    0.040803
    78  H    0.045014
    79  H    0.052212
    80  Mg   0.841463
    81  C   -0.015687
    82  C   -0.087806
    83  C   -0.045031
    84  C   -0.066703
    85  N   -0.255190
    86  C   -0.048666
    87  C   -0.016489
    88  C   -0.090756
    89  C    0.047327
    90  C    0.114516
    91  C    0.061987
    92  C   -0.077468
    93  H    0.033566
    94  N   -0.423442
    95  C    0.164449
    96  C   -0.174300
    97  C   -0.007098
    98  C    0.152663
    99  C    0.099410
   100  C    0.016161
   101  O   -0.252931
   102  C    0.060858
   103  N   -0.350086
   104  C    0.038008
   105  C   -0.020457
   106  C   -0.031384
   107  C    0.089151
   108  C    0.073791
   109  C    0.031198
   110  C    0.002154
   111  N   -0.323028
   112  C    0.074950
   113  C   -0.160429
   114  C   -0.000008
   115  C    0.096175
   116  C    0.119016
   117  C    0.042607
   118  O   -0.196521
   119  C    0.003793
   120  C    0.211617
   121  O   -0.243903
   122  O   -0.304530
   123  C    0.163290
   124  H   -0.019861
   125  H   -0.015301
   126  H   -0.037726
   127  H   -0.002344
   128  H   -0.003951
   129  H    0.021563
   130  H    0.014504
   131  H    0.016099
   132  H    0.016526
   133  H    0.041424
   134  H    0.019261
   135  H    0.020115
   136  H    0.008828
   137  H    0.025991
   138  H    0.040874
   139  H    0.037995
   140  H    0.036530
   141  H    0.034917
   142  H    0.014979
   143  H    0.012463
   144  H    0.024900
   145  H    0.011107
   146  H    0.005843
   147  H    0.004343
   148  H    0.004442
   149  H    0.005819
   150  H   -0.000431
   151  H    0.029325
   152  H    0.062842
   153  H    0.018055
   154  H    0.040131
   155  H    0.034016
   156  H    0.040419
   157  H    0.050224
   158  H    0.036727
 Sum of Mulliken charges =  -0.00000

 Dipole moment (field-independent basis, Debye):
    X=             -1.8152    Y=             -3.2800    Z=             -4.2389  Tot=              5.6588
 Quadrupole moment (field-independent basis, Debye-Ang):
   XX=           -484.0410   YY=           -467.9379   ZZ=           -530.6273
   XY=             19.1435   XZ=             -6.4272   YZ=             26.4770

 Normal termination of Gaussian 16 at Wed Sep  8 21:40:42 2021.
