 Gaussian 16, Revision A.03,
 Gaussian 16:  ES64L-G16RevA.03 25-Dec-2016

 -----------------------------------
 #p cam-b3lyp/Def2SVP td=(nstates=5)
 -----------------------------------

 --------------------------------
 TDDFT excited states in gaussian
 --------------------------------
 Symbolic Z-matrix:
 Charge =  0 Multiplicity = 1

                         Standard orientation:
 ---------------------------------------------------------------------
 Center     Atomic      Atomic             Coordinates (Angstroms)
 Number     Number       Type             X           Y           Z
 ---------------------------------------------------------------------
      1         12           0       -6.514888    0.640944    0.468366
      2          6           0       -6.909788   -2.122674   -1.771876
      3          6           0       -7.188048   -1.522866    3.019415
      4          6           0       -6.620215    3.141100    2.416377
      5          6           0       -6.997676    2.740263   -2.271239
      6          7           0       -6.972918   -1.524744    0.493913
      7          6           0       -7.034955   -2.480738   -0.427715
      8          6           0       -7.170198   -3.911379    0.174239
      9          6           0       -7.808322   -3.531559    1.585102
     10          6           0       -7.262828   -2.121485    1.726707
     11          6           0       -9.332234   -3.469223    1.567574
     12          6           0       -5.783483   -4.618352    0.344361
     13          6           0       -5.846723   -6.124280    0.615539
     14          1           0       -4.816248   -6.981639    0.049497
     15          7           0       -6.372244    0.738648    2.436349
     16          6           0       -6.672424   -0.243510    3.319833
     17          6           0       -6.400259    0.317326    4.660754
     18          6           0       -6.098785    1.766403    4.495278
     19          6           0       -6.381001    1.948080    3.094305
     20          6           0       -6.393952   -0.506814    5.911555
     21          6           0       -5.640713    2.822506    5.450761
     22          8           0       -5.662802    4.065515    5.152406
     23          6           0       -5.243463    2.364980    6.794601
     24          7           0       -6.988943    2.652322    0.172958
     25          6           0       -6.898869    3.536515    1.172494
     26          6           0       -7.008791    4.944622    0.667430
     27          6           0       -6.949712    4.848821   -0.925393
     28          6           0       -6.895063    3.307665   -1.067248
     29          6           0       -8.272197    5.709118    1.086193
     30          6           0       -5.866405    5.694257   -1.641007
     31          6           0       -4.492379    5.161356   -1.301645
     32          7           0       -6.712563    0.393798   -1.678932
     33          6           0       -6.929370    1.403732   -2.627458
     34          6           0       -7.103123    0.740353   -3.932757
     35          6           0       -6.991093   -0.619210   -3.648358
     36          6           0       -6.788060   -0.795374   -2.249774
     37          6           0       -7.389172    1.389668   -5.166046
     38          6           0       -7.020259   -1.965321   -4.196985
     39          8           0       -7.065677   -2.437609   -5.333811
     40          6           0       -7.090498   -2.998150   -2.986960
     41          6           0       -6.063627   -4.067620   -3.242066
     42          8           0       -4.844376   -3.802667   -3.217697
     43          8           0       -6.662148   -5.268578   -3.238176
     44          6           0       -5.694181   -6.376527   -3.456449
     45          1           0       -7.615458   -2.053623    3.872385
     46          1           0       -6.554767    4.038086    3.035708
     47          1           0       -7.067716    3.335104   -3.183769
     48          1           0       -7.842519   -4.572818   -0.372484
     49          1           0       -7.430754   -4.166194    2.386602
     50          1           0       -9.723467   -3.569854    0.555284
     51          1           0       -9.588352   -2.492848    1.979387
     52          1           0       -9.757858   -4.203921    2.251562
     53          1           0       -5.320018   -4.282129    1.271839
     54          1           0       -5.147788   -4.434507   -0.522483
     55          1           0       -6.837618   -6.526353    0.402530
     56          1           0       -5.713616   -6.284529    1.685493
     57          1           0       -6.812718   -1.497714    5.740388
     58          1           0       -7.087787   -0.035147    6.607135
     59          1           0       -5.402666   -0.561888    6.361723
     60          1           0       -6.085315    1.856636    7.265155
     61          1           0       -4.860672    3.244672    7.310800
     62          1           0       -4.452832    1.620739    6.694816
     63          1           0       -6.176531    5.552558    1.019826
     64          1           0       -7.883998    5.166154   -1.389164
     65          1           0       -8.065629    6.641207    1.612735
     66          1           0       -8.882851    5.043051    1.695084
     67          1           0       -8.955447    5.944457    0.270594
     68          1           0       -5.903553    6.727483   -1.297482
     69          1           0       -5.973075    5.701394   -2.725822
     70          1           0       -4.275131    5.638751   -0.346799
     71          1           0       -3.769792    5.461160   -2.061379
     72          1           0       -4.514011    4.084943   -1.130319
     73          1           0       -6.751181    0.918781   -5.913844
     74          1           0       -7.200604    2.461118   -5.102499
     75          1           0       -8.448504    1.157878   -5.275340
     76          1           0       -8.103874   -3.398201   -2.974723
     77          1           0       -6.047605   -6.946950   -4.315484
     78          1           0       -5.602483   -6.899917   -2.504577
     79          1           0       -4.699222   -6.087335   -3.796692
     80         12           0        6.677540    0.609969   -0.612349
     81          6           0        6.626870   -2.379967    1.371783
     82          6           0        6.038234    2.344468    2.254250
     83          6           0        6.269251    3.205251   -2.391458
     84          6           0        6.173469   -1.404773   -3.411000
     85          7           0        6.391183   -0.045100    1.480770
     86          6           0        6.455411   -1.200244    2.125634
     87          6           0        6.409169   -1.076879    3.672316
     88          6           0        5.659118    0.339135    3.778271
     89          6           0        6.079507    0.939279    2.438205
     90          6           0        4.144368    0.218184    3.793280
     91          6           0        7.841459   -1.017376    4.310285
     92          6           0        7.877744   -1.207759    5.828241
     93          1           0        9.009483   -1.921390    6.413361
     94          7           0        6.707631    2.529545   -0.109461
     95          6           0        6.445075    3.056837    1.104750
     96          6           0        6.581007    4.513334    0.948791
     97          6           0        6.783570    4.813649   -0.494637
     98          6           0        6.569207    3.500830   -1.069635
     99          6           0        6.593501    5.458871    2.114649
    100          6           0        7.103101    6.076297   -1.236135
    101          8           0        6.999006    6.153011   -2.511333
    102          6           0        7.451267    7.246973   -0.417728
    103          7           0        6.069059    0.888688   -2.580699
    104          6           0        6.027580    2.117925   -3.124017
    105          6           0        5.829438    2.046964   -4.619375
    106          6           0        5.989152    0.502184   -5.001091
    107          6           0        6.171464   -0.090486   -3.586563
    108          6           0        4.487259    2.562900   -5.137799
    109          6           0        7.039321    0.151359   -6.090480
    110          6           0        8.432313    0.429098   -5.572955
    111          7           0        6.623806   -1.512750   -1.011386
    112          6           0        6.371880   -2.141644   -2.250381
    113          6           0        6.324598   -3.596549   -1.998480
    114          6           0        6.531053   -3.712684   -0.615593
    115          6           0        6.675276   -2.420201   -0.042712
    116          6           0        6.065988   -4.601518   -2.972784
    117          6           0        6.649176   -4.634194    0.491448
    118          8           0        6.697258   -5.858695    0.601090
    119          6           0        6.590353   -3.806016    1.846833
    120          6           0        7.712521   -4.279428    2.729504
    121          8           0        8.897227   -4.091726    2.401089
    122          8           0        7.205995   -4.678070    3.910555
    123          6           0        8.281805   -5.146222    4.824503
    124          1           0        5.615141    2.959550    3.048956
    125          1           0        6.227565    4.061713   -3.068368
    126          1           0        6.118387   -2.105450   -4.246876
    127          1           0        5.828918   -1.843289    4.171995
    128          1           0        6.049632    0.932364    4.601031
    129          1           0        3.819291   -0.795271    3.610578
    130          1           0        3.788945    0.876302    3.011223
    131          1           0        3.743521    0.618147    4.729057
    132          1           0        8.222081    0.009766    4.240595
    133          1           0        8.497042   -1.725267    3.841537
    134          1           0        6.931479   -1.603458    6.216773
    135          1           0        7.971156   -0.226064    6.298960
    136          1           0        6.258769    4.966112    3.035811
    137          1           0        5.828218    6.217786    1.919061
    138          1           0        7.557847    5.954687    2.244534
    139          1           0        6.629718    7.472401    0.258058
    140          1           0        7.733596    8.026528   -1.127983
    141          1           0        8.313246    6.991943    0.208830
    142          1           0        6.590236    2.617534   -5.137783
    143          1           0        5.053972    0.082159   -5.399657
    144          1           0        4.590031    3.370143   -5.887367
    145          1           0        3.902072    2.900795   -4.292866
    146          1           0        3.840733    1.806086   -5.578746
    147          1           0        6.901656    0.787751   -6.968095
    148          1           0        6.984497   -0.878372   -6.427579
    149          1           0        8.552249    1.501991   -5.750701
    150          1           0        9.169282   -0.147762   -6.128064
    151          1           0        8.489821    0.265840   -4.490515
    152          1           0        6.772531   -5.400448   -2.791109
    153          1           0        6.159586   -4.209108   -3.983249
    154          1           0        5.031377   -4.852591   -2.724144
    155          1           0        5.612811   -3.983299    2.296899
    156          1           0        8.019852   -6.163421    5.131698
    157          1           0        8.350950   -4.381574    5.620920
    158          1           0        9.267370   -5.300380    4.401001
 ---------------------------------------------------------------------

 SCF Done:  E(RCAM-B3LYP) =  -4069.81184390     A.U. after   19 cycles

 Excitation energies and oscillator strengths:

 Excited State   1:      Singlet-A      1.6726 eV  741.25 nm  f=0.2804  <S**2>=0.000
     310 -> 316        0.14933
     311 -> 313       -0.34557
     312 -> 314        0.59271
 This state for optimization and/or second-order correction.
 Total Energy, E(TD-HF/TD-DFT) =  -4069.75037558
 Copying the excited state density for this state as the 1-particle RhoCI density.

 Excited State   2:      Singlet-A      1.6810 eV  737.55 nm  f=0.4510  <S**2>=0.000
     309 -> 315        0.15164
     311 -> 313        0.59223
     312 -> 314        0.34543

 Excited State   3:      Singlet-A      2.1856 eV  567.27 nm  f=0.0976  <S**2>=0.000
     310 -> 314        0.64111
     312 -> 316       -0.27241

 Excited State   4:      Singlet-A      2.1918 eV  565.68 nm  f=0.1009  <S**2>=0.000
     309 -> 313        0.63939
     311 -> 315       -0.27706

 Excited State   5:      Singlet-A      2.6503 eV  467.82 nm  f=0.0000  <S**2>=0.000
     312 -> 313        0.70710

 The electronic state is 1-A.
 Alpha  occ. eigenvalues --  -46.87852 -46.87558 -19.26317 -19.26295 -19.19115
 Alpha  occ. eigenvalues --  -19.19040 -19.18905 -19.18624 -19.18216 -19.17971
 Alpha  occ. eigenvalues --  -14.42500 -14.42401 -14.41505 -14.41250 -14.39462
 Alpha  occ. eigenvalues --  -14.39251 -14.38641 -14.38497 -10.39101 -10.39042
 Alpha  occ. eigenvalues --  -10.35541 -10.35302 -10.34434 -10.34149 -10.31741
 Alpha  occ. eigenvalues --  -10.31672 -10.31449 -10.31216 -10.30959 -10.30937
 Alpha  occ. eigenvalues --  -10.30621 -10.30566 -10.30294 -10.30268 -10.30261
 Alpha  occ. eigenvalues --  -10.30026 -10.29976 -10.29780 -10.29691 -10.29332
 Alpha  occ. eigenvalues --  -10.29316 -10.29301 -10.28775 -10.28660 -10.28631
 Alpha  occ. eigenvalues --  -10.28523 -10.28420 -10.28310 -10.28147 -10.28074
 Alpha  occ. eigenvalues --  -10.27902 -10.27850 -10.27778 -10.27649 -10.27572
 Alpha  occ. eigenvalues --  -10.27558 -10.27553 -10.27510 -10.27454 -10.27389
 Alpha  occ. eigenvalues --  -10.27378 -10.27377 -10.27368 -10.27240 -10.27195
 Alpha  occ. eigenvalues --  -10.26980 -10.26714 -10.26647 -10.26527 -10.26336
 Alpha  occ. eigenvalues --  -10.26262 -10.26239 -10.26075 -10.26007 -10.25965
 Alpha  occ. eigenvalues --  -10.25893 -10.25820 -10.25726 -10.25493 -10.25234
 Alpha  occ. eigenvalues --  -10.24888 -10.24846 -10.24774 -10.24747 -10.24617
 Alpha  occ. eigenvalues --  -10.24584  -3.16595  -3.16308  -1.91477  -1.91190
 Alpha  occ. eigenvalues --   -1.91063  -1.90906  -1.90778  -1.90615  -1.16646
 Alpha  occ. eigenvalues --   -1.16607  -1.08671  -1.08582  -1.07309  -1.06900
 Alpha  occ. eigenvalues --   -1.06877  -1.06662  -1.04631  -1.04401  -1.03816
 Alpha  occ. eigenvalues --   -1.03562  -1.03291  -1.02931  -1.02467  -1.02007
 Alpha  occ. eigenvalues --   -0.92020  -0.91896  -0.89575  -0.89382  -0.89218
 Alpha  occ. eigenvalues --   -0.89082  -0.88343  -0.88099  -0.87923  -0.87720
 Alpha  occ. eigenvalues --   -0.87688  -0.87588  -0.87347  -0.87027  -0.85019
 Alpha  occ. eigenvalues --   -0.84925  -0.83991  -0.83759  -0.83050  -0.82836
 Alpha  occ. eigenvalues --   -0.82692  -0.82575  -0.81618  -0.81526  -0.80643
 Alpha  occ. eigenvalues --   -0.80361  -0.78861  -0.78538  -0.77266  -0.77057
 Alpha  occ. eigenvalues --   -0.76966  -0.76817  -0.75958  -0.75764  -0.74949
 Alpha  occ. eigenvalues --   -0.74688  -0.72827  -0.72596  -0.71720  -0.71483
 Alpha  occ. eigenvalues --   -0.69963  -0.69636  -0.68915  -0.68750  -0.67697
 Alpha  occ. eigenvalues --   -0.67509  -0.67258  -0.67131  -0.65321  -0.65199
 Alpha  occ. eigenvalues --   -0.64899  -0.64677  -0.64663  -0.64572  -0.64323
 Alpha  occ. eigenvalues --   -0.64091  -0.62328  -0.62208  -0.60510  -0.60239
 Alpha  occ. eigenvalues --   -0.59844  -0.59718  -0.59038  -0.58894  -0.58554
 Alpha  occ. eigenvalues --   -0.58332  -0.57623  -0.57481  -0.57363  -0.57134
 Alpha  occ. eigenvalues --   -0.56365  -0.56111  -0.56002  -0.55826  -0.55582
 Alpha  occ. eigenvalues --   -0.55386  -0.55373  -0.55146  -0.54563  -0.54396
 Alpha  occ. eigenvalues --   -0.53926  -0.53845  -0.53360  -0.53271  -0.53131
 Alpha  occ. eigenvalues --   -0.53063  -0.52959  -0.52826  -0.52818  -0.52588
 Alpha  occ. eigenvalues --   -0.52494  -0.52285  -0.51966  -0.51772  -0.51658
 Alpha  occ. eigenvalues --   -0.51588  -0.51241  -0.51112  -0.50656  -0.50385
 Alpha  occ. eigenvalues --   -0.50088  -0.49985  -0.49896  -0.49751  -0.49565
 Alpha  occ. eigenvalues --   -0.49406  -0.49266  -0.49131  -0.49122  -0.49026
 Alpha  occ. eigenvalues --   -0.48632  -0.48531  -0.48499  -0.48481  -0.48267
 Alpha  occ. eigenvalues --   -0.48248  -0.47745  -0.47508  -0.47352  -0.47020
 Alpha  occ. eigenvalues --   -0.46845  -0.46612  -0.46589  -0.46479  -0.46412
 Alpha  occ. eigenvalues --   -0.46210  -0.46169  -0.45980  -0.45858  -0.45738
 Alpha  occ. eigenvalues --   -0.45257  -0.45091  -0.44623  -0.44565  -0.44436
 Alpha  occ. eigenvalues --   -0.44392  -0.44201  -0.44126  -0.44070  -0.44047
 Alpha  occ. eigenvalues --   -0.43979  -0.43859  -0.43531  -0.43482  -0.43430
 Alpha  occ. eigenvalues --   -0.43299  -0.43075  -0.42868  -0.42809  -0.42742
 Alpha  occ. eigenvalues --   -0.42689  -0.42443  -0.42056  -0.41869  -0.41753
 Alpha  occ. eigenvalues --   -0.41580  -0.41568  -0.41379  -0.41187  -0.40918
 Alpha  occ. eigenvalues --   -0.40898  -0.40890  -0.40644  -0.40621  -0.40618
 Alpha  occ. eigenvalues --   -0.40381  -0.40256  -0.40170  -0.39497  -0.39304
 Alpha  occ. eigenvalues --   -0.38519  -0.38237  -0.37773  -0.37590  -0.37373
 Alpha  occ. eigenvalues --   -0.37299  -0.37159  -0.37116  -0.36743  -0.36712
 Alpha  occ. eigenvalues --   -0.36231  -0.36120  -0.34339  -0.34154  -0.33805
 Alpha  occ. eigenvalues --   -0.33798  -0.33239  -0.33074  -0.31434  -0.31182
 Alpha  occ. eigenvalues --   -0.31089  -0.30875  -0.30074  -0.29877  -0.29514
 Alpha  occ. eigenvalues --   -0.29378  -0.29229  -0.29111  -0.24134  -0.23934
 Alpha  occ. eigenvalues --   -0.21183  -0.21015
 Alpha virt. eigenvalues --   -0.08833  -0.08692  -0.01808  -0.01580  -0.00125
 Alpha virt. eigenvalues --    0.00061   0.02147   0.02303   0.03056   0.03320
 Alpha virt. eigenvalues --    0.04680   0.04818   0.05074   0.05217   0.06167

 Mulliken charges:
               1
     1  Mg   0.838577
     2  C   -0.002890
     3  C   -0.094042
     4  C   -0.046085
     5  C   -0.063981
     6  N   -0.256812
     7  C   -0.052321
     8  C   -0.013987
     9  C   -0.086999
    10  C    0.046314
    11  C    0.104786
    12  C    0.053427
    13  C   -0.072198
    14  H    0.037137
    15  N   -0.433095
    16  C    0.168269
    17  C   -0.177259
    18  C   -0.004302
    19  C    0.148631
    20  C    0.110167
    21  C    0.011866
    22  O   -0.249937
    23  C    0.062682
    24  N   -0.341142
    25  C    0.041257
    26  C   -0.028117
    27  C   -0.024015
    28  C    0.074899
    29  C    0.076168
    30  C    0.035129
    31  C   -0.004503
    32  N   -0.310508
    33  C    0.080504
    34  C   -0.169693
    35  C    0.008422
    36  C    0.083030
    37  C    0.127308
    38  C    0.046131
    39  O   -0.188215
    40  C   -0.005295
    41  C    0.212903
    42  O   -0.257115
    43  O   -0.304795
    44  C    0.157596
    45  H   -0.017502
    46  H   -0.017069
    47  H   -0.041388
    48  H    0.001105
    49  H   -0.003861
    50  H    0.025533
    51  H    0.016341
    52  H    0.016819
    53  H    0.011122
    54  H    0.044208
    55  H    0.017855
    56  H    0.018053
    57  H    0.006130
    58  H    0.026817
    59  H    0.039046
    60  H    0.037662
    61  H    0.035076
    62  H    0.030863
    63  H    0.016257
    64  H    0.009586
    65  H    0.023078
    66  H    0.012595
    67  H    0.004880
    68  H    0.006384
    69  H    0.004929
    70  H    0.008381
    71  H    0.018507
    72  H    0.028878
    73  H    0.047578
    74  H    0.009180
    75  H    0.046166
    76  H    0.035306
    77  H    0.043063
    78  H    0.046713
    79  H    0.053809
    80  Mg   0.838144
    81  C   -0.016962
    82  C   -0.087906
    83  C   -0.045405
    84  C   -0.063971
    85  N   -0.254545
    86  C   -0.049812
    87  C   -0.015065
    88  C   -0.090543
    89  C    0.045764
    90  C    0.114405
    91  C    0.062592
    92  C   -0.077663
    93  H    0.034564
    94  N   -0.423495
    95  C    0.162897
    96  C   -0.174640
    97  C   -0.007856
    98  C    0.152162
    99  C    0.099375
   100  C    0.015483
   101  O   -0.253244
   102  C    0.061234
   103  N   -0.349983
   104  C    0.037771
   105  C   -0.020034
   106  C   -0.035013
   107  C    0.088932
   108  C    0.073358
   109  C    0.034681
   110  C   -0.007629
   111  N   -0.324155
   112  C    0.078427
   113  C   -0.162676
   114  C    0.002173
   115  C    0.096327
   116  C    0.131441
   117  C    0.042414
   118  O   -0.188343
   119  C    0.000867
   120  C    0.211187
   121  O   -0.251034
   122  O   -0.305780
   123  C    0.152125
   124  H   -0.019770
   125  H   -0.015562
   126  H   -0.039916
   127  H   -0.001165
   128  H   -0.004616
   129  H    0.022207
   130  H    0.015107
   131  H    0.015615
   132  H    0.013985
   133  H    0.037645
   134  H    0.020344
   135  H    0.019516
   136  H    0.008649
   137  H    0.026230
   138  H    0.039521
   139  H    0.038262
   140  H    0.036192
   141  H    0.033755
   142  H    0.014135
   143  H    0.013694
   144  H    0.024784
   145  H    0.011846
   146  H    0.007033
   147  H    0.006381
   148  H    0.003872
   149  H    0.010774
   150  H    0.017725
   151  H    0.029876
   152  H    0.045566
   153  H    0.008782
   154  H    0.047832
   155  H    0.034720
   156  H    0.043522
   157  H    0.049317
   158  H    0.053573
 Sum of Mulliken charges =  -0.00000

 Dipole moment (field-independent basis, Debye):
    X=             -3.5367    Y=              1.8932    Z=              6.4138  Tot=              7.5650
 Quadrupole moment (field-independent basis, Debye-Ang):
   XX=           -518.9441   YY=           -515.0135   ZZ=           -483.9657
   XY=             33.7998   XZ=             -7.5379   YZ=            -14.6829

 Normal termination of Gaussian 16 at Sat Sep 11 11:59:55 2021.
