 Gaussian 16, Revision A.03,
 Gaussian 16:  ES64L-G16RevA.03 25-Dec-2016

 -----------------------------------
 #p cam-b3lyp/Def2SVP td=(nstates=5)
 -----------------------------------

 --------------------------------
 TDDFT excited states in gaussian
 --------------------------------
 Symbolic Z-matrix:
 Charge =  0 Multiplicity = 1

                         Standard orientation:
 ---------------------------------------------------------------------
 Center     Atomic      Atomic             Coordinates (Angstroms)
 Number     Number       Type             X           Y           Z
 ---------------------------------------------------------------------
      1         12           0       -7.939616    0.860500    0.405669
      2          6           0       -8.404224   -1.709328   -2.042255
      3          6           0       -9.069606   -1.361359    2.735804
      4          6           0       -7.969931    3.240217    2.501534
      5          6           0       -7.943117    3.155025   -2.217460
      6          7           0       -8.618711   -1.240335    0.244521
      7          6           0       -8.691766   -2.128907   -0.741518
      8          6           0       -9.029836   -3.568799   -0.251831
      9          6           0       -9.755566   -3.204186    1.120164
     10          6           0       -9.083476   -1.872401    1.404010
     11          6           0      -11.256470   -2.975541    0.973498
     12          6           0       -7.745591   -4.431082   -0.009107
     13          6           0       -7.988940   -5.934358    0.153049
     14          1           0       -7.003544   -6.864487   -0.377237
     15          7           0       -7.973814    0.827948    2.380668
     16          6           0       -8.455532   -0.165246    3.166033
     17          6           0       -8.254649    0.284037    4.560477
     18          6           0       -7.791222    1.698859    4.520393
     19          6           0       -7.919891    1.991001    3.115588
     20          6           0       -8.451227   -0.606959    5.748430
     21          6           0       -7.318891    2.641738    5.581531
     22          8           0       -7.184563    3.894956    5.367115
     23          6           0       -7.099352    2.066645    6.920977
     24          7           0       -8.173933    2.925224    0.206549
     25          6           0       -8.087858    3.734981    1.267619
     26          6           0       -8.004006    5.173567    0.851232
     27          6           0       -7.805230    5.164333   -0.733115
     28          6           0       -7.896540    3.637198   -0.973512
     29          6           0       -9.215735    6.045409    1.208467
     30          6           0       -6.577970    5.926937   -1.292301
     31          6           0       -5.304307    5.228978   -0.870718
     32          7           0       -7.958404    0.761123   -1.762468
     33          6           0       -7.979614    1.841886   -2.655875
     34          6           0       -8.096973    1.278073   -4.013229
     35          6           0       -8.152935   -0.099786   -3.812686
     36          6           0       -8.101880   -0.377705   -2.416819
     37          6           0       -8.197060    2.024992   -5.220097
     38          6           0       -8.268798   -1.400684   -4.451511
     39          8           0       -8.255270   -1.798581   -5.617268
     40          6           0       -8.558831   -2.488090   -3.324898
     41          6           0       -7.628170   -3.646331   -3.560815
     42          8           0       -6.395864   -3.517437   -3.411902
     43          8           0       -8.344935   -4.773254   -3.690564
     44          6           0       -7.480037   -5.965406   -3.897633
     45          1           0       -9.627920   -1.890986    3.510221
     46          1           0       -7.871083    4.087371    3.183441
     47          1           0       -7.865160    3.805808   -3.090305
     48          1           0       -9.712185   -4.120394   -0.898798
     49          1           0       -9.522642   -3.921480    1.906903
     50          1           0      -11.558814   -2.974211   -0.073644
     51          1           0      -11.448295   -2.002604    1.426366
     52          1           0      -11.818100   -3.697960    1.566338
     53          1           0       -7.339453   -4.201560    0.975999
     54          1           0       -7.015469   -4.267575   -0.802527
     55          1           0       -8.991474   -6.213241   -0.172616
     56          1           0       -7.974508   -6.169842    1.217258
     57          1           0       -8.951854   -1.534838    5.474643
     58          1           0       -9.155233   -0.103705    6.410865
     59          1           0       -7.517765   -0.795520    6.278926
     60          1           0       -8.029689    1.626495    7.280545
     61          1           0       -6.678331    2.868092    7.527008
     62          1           0       -6.383747    1.247855    6.840728
     63          1           0       -7.150480    5.665924    1.315456
     64          1           0       -8.653946    5.607741   -1.254406
     65          1           0       -8.964786    6.917422    1.812886
     66          1           0       -9.946431    5.415574    1.715106
     67          1           0       -9.791158    6.400520    0.353949
     68          1           0       -6.540676    6.936429   -0.884280
     69          1           0       -6.580599    6.008461   -2.379314
     70          1           0       -5.130007    5.623792    0.129569
     71          1           0       -4.486294    5.491902   -1.542235
     72          1           0       -5.452787    4.153199   -0.775116
     73          1           0       -7.543348    1.531612   -5.939267
     74          1           0       -7.905931    3.064082   -5.067984
     75          1           0       -9.259591    1.916532   -5.437166
     76          1           0       -9.604650   -2.775568   -3.428533
     77          1           0       -7.807797   -6.443277   -4.820914
     78          1           0       -7.532895   -6.549918   -2.978962
     79          1           0       -6.432959   -5.766939   -4.129099
     80         12           0        7.840571   -0.815639    0.494988
     81          6           0        8.723013    1.573696   -2.033144
     82          6           0        9.297527    1.271909    2.765236
     83          6           0        7.481232   -3.094955    2.672842
     84          6           0        7.498407   -3.173070   -2.048868
     85          7           0        8.845901    1.141964    0.272840
     86          6           0        9.067385    1.981355   -0.727516
     87          6           0        9.619490    3.366133   -0.294939
     88          6           0       10.278588    2.935667    1.104763
     89          6           0        9.401412    1.727520    1.426687
     90          6           0       11.715967    2.460565    0.972280
     91          6           0        8.480988    4.426577   -0.091720
     92          6           0        8.964013    5.873621    0.028724
     93          1           0        8.135495    6.933521   -0.539289
     94          7           0        7.868766   -0.714268    2.476781
     95          6           0        8.490151    0.212931    3.235380
     96          6           0        8.225872   -0.166904    4.631827
     97          6           0        7.536574   -1.485826    4.636784
     98          6           0        7.622591   -1.833504    3.232577
     99          6           0        8.548090    0.727761    5.793366
    100          6           0        6.915527   -2.305231    5.727234
    101          8           0        6.583833   -3.529624    5.543717
    102          6           0        6.792982   -1.660604    7.042879
    103          7           0        7.740678   -2.888111    0.363672
    104          6           0        7.527350   -3.640633    1.457349
    105          6           0        7.219303   -5.070984    1.083708
    106          6           0        7.031196   -5.069190   -0.504430
    107          6           0        7.365632   -3.590055   -0.797201
    108          6           0        8.279525   -6.102340    1.469188
    109          6           0        5.700087   -5.649218   -1.056126
    110          6           0        4.545766   -4.755272   -0.663949
    111          7           0        7.881024   -0.790025   -1.665047
    112          6           0        7.741386   -1.894378   -2.533952
    113          6           0        7.954135   -1.396522   -3.908464
    114          6           0        8.227706   -0.030682   -3.740665
    115          6           0        8.208147    0.295253   -2.357595
    116          6           0        7.930822   -2.186519   -5.092307
    117          6           0        8.539050    1.207290   -4.418292
    118          8           0        8.601283    1.561760   -5.594818
    119          6           0        8.998377    2.275101   -3.334231
    120          6           0        8.264157    3.559241   -3.606993
    121          8           0        7.028982    3.621156   -3.476145
    122          8           0        9.157692    4.552775   -3.764655
    123          6           0        8.477228    5.849015   -4.026489
    124          1           0        9.925014    1.741471    3.523295
    125          1           0        7.245137   -3.898350    3.374469
    126          1           0        7.312104   -3.825694   -2.904461
    127          1           0       10.376504    3.778518   -0.951164
    128          1           0       10.151097    3.710496    1.856264
    129          1           0       12.019636    2.378716   -0.060791
    130          1           0       11.751525    1.492649    1.454898
    131          1           0       12.382011    3.109250    1.548394
    132          1           0        8.040099    4.292144    0.904418
    133          1           0        7.748790    4.353816   -0.872245
    134          1           0       10.006907    5.988012   -0.291022
    135          1           0        8.976212    6.148506    1.086217
    136          1           0        9.198761    1.558303    5.493006
    137          1           0        9.159044    0.141751    6.488491
    138          1           0        7.655242    1.077493    6.316029
    139          1           0        7.778329   -1.359836    7.390844
    140          1           0        6.245340   -2.370222    7.666111
    141          1           0        6.205563   -0.742642    6.929342
    142          1           0        6.297490   -5.401596    1.546386
    143          1           0        7.802626   -5.671174   -1.006787
    144          1           0        7.886130   -6.914266    2.109581
    145          1           0        9.092353   -5.587652    1.964113
    146          1           0        8.784710   -6.580468    0.631700
    147          1           0        5.500122   -6.627280   -0.611637
    148          1           0        5.698906   -5.778691   -2.133262
    149          1           0        4.311501   -5.086265    0.352243
    150          1           0        3.700598   -4.905436   -1.332667
    151          1           0        4.862029   -3.707366   -0.604633
    152          1           0        7.372829   -1.625435   -5.830092
    153          1           0        7.483098   -3.161412   -4.910961
    154          1           0        9.001832   -2.258838   -5.299642
    155          1           0       10.078568    2.393262   -3.427989
    156          1           0        8.885068    6.240382   -4.963603
    157          1           0        8.633430    6.457675   -3.116060
    158          1           0        7.417537    5.822237   -4.251859
 ---------------------------------------------------------------------

 SCF Done:  E(RCAM-B3LYP) =  -4069.81170815     A.U. after   19 cycles

 Excitation energies and oscillator strengths:

 Excited State   1:      Singlet-A      1.6698 eV  742.49 nm  f=0.0183  <S**2>=0.000
     309 -> 315       -0.10388
     310 -> 316        0.13758
     311 -> 313        0.54880
     312 -> 314       -0.41219
 This state for optimization and/or second-order correction.
 Total Energy, E(TD-HF/TD-DFT) =  -4069.75034250
 Copying the excited state density for this state as the 1-particle RhoCI density.

 Excited State   2:      Singlet-A      1.6850 eV  735.81 nm  f=0.7396  <S**2>=0.000
     309 -> 315        0.14138
     310 -> 316        0.10563
     311 -> 313        0.41168
     312 -> 314        0.54799

 Excited State   3:      Singlet-A      2.1854 eV  567.33 nm  f=0.0629  <S**2>=0.000
     309 -> 314        0.12694
     310 -> 313        0.63004
     311 -> 316       -0.26731

 Excited State   4:      Singlet-A      2.1925 eV  565.49 nm  f=0.1314  <S**2>=0.000
     309 -> 314        0.62815
     310 -> 313       -0.12605
     312 -> 315       -0.27283

 Excited State   5:      Singlet-A      2.8020 eV  442.49 nm  f=0.0000  <S**2>=0.000
     312 -> 313        0.70710

 The electronic state is 1-A.
 Alpha  occ. eigenvalues --  -46.87692 -46.87594 -19.26283 -19.26187 -19.19089
 Alpha  occ. eigenvalues --  -19.18917 -19.18727 -19.18669 -19.18065 -19.17982
 Alpha  occ. eigenvalues --  -14.42434 -14.42348 -14.41346 -14.41293 -14.39300
 Alpha  occ. eigenvalues --  -14.39288 -14.38531 -14.38481 -10.39020 -10.38977
 Alpha  occ. eigenvalues --  -10.35362 -10.35348 -10.34285 -10.34160 -10.31694
 Alpha  occ. eigenvalues --  -10.31589 -10.31302 -10.31243 -10.30964 -10.30811
 Alpha  occ. eigenvalues --  -10.30464 -10.30403 -10.30331 -10.30292 -10.30105
 Alpha  occ. eigenvalues --  -10.30078 -10.29827 -10.29816 -10.29528 -10.29374
 Alpha  occ. eigenvalues --  -10.29336 -10.29153 -10.28661 -10.28654 -10.28600
 Alpha  occ. eigenvalues --  -10.28449 -10.28341 -10.28263 -10.28084 -10.28022
 Alpha  occ. eigenvalues --  -10.27936 -10.27690 -10.27626 -10.27606 -10.27484
 Alpha  occ. eigenvalues --  -10.27447 -10.27420 -10.27417 -10.27404 -10.27394
 Alpha  occ. eigenvalues --  -10.27390 -10.27349 -10.27313 -10.27302 -10.27057
 Alpha  occ. eigenvalues --  -10.26985 -10.26633 -10.26608 -10.26385 -10.26335
 Alpha  occ. eigenvalues --  -10.26146 -10.26062 -10.26047 -10.25975 -10.25913
 Alpha  occ. eigenvalues --  -10.25865 -10.25767 -10.25727 -10.25349 -10.25346
 Alpha  occ. eigenvalues --  -10.24806 -10.24729 -10.24686 -10.24626 -10.24617
 Alpha  occ. eigenvalues --  -10.24548  -3.16435  -3.16343  -1.91316  -1.91226
 Alpha  occ. eigenvalues --   -1.90903  -1.90814  -1.90745  -1.90651  -1.16576
 Alpha  occ. eigenvalues --   -1.16535  -1.08589  -1.08522  -1.07129  -1.06923
 Alpha  occ. eigenvalues --   -1.06875  -1.06540  -1.04479  -1.04432  -1.03658
 Alpha  occ. eigenvalues --   -1.03598  -1.03130  -1.02973  -1.02308  -1.02045
 Alpha  occ. eigenvalues --   -0.91922  -0.91870  -0.89423  -0.89412  -0.89092
 Alpha  occ. eigenvalues --   -0.89092  -0.88182  -0.88151  -0.87763  -0.87722
 Alpha  occ. eigenvalues --   -0.87620  -0.87572  -0.87179  -0.87066  -0.84940
 Alpha  occ. eigenvalues --   -0.84885  -0.83828  -0.83803  -0.82880  -0.82875
 Alpha  occ. eigenvalues --   -0.82595  -0.82552  -0.81530  -0.81486  -0.80497
 Alpha  occ. eigenvalues --   -0.80380  -0.78698  -0.78575  -0.77116  -0.77081
 Alpha  occ. eigenvalues --   -0.76835  -0.76833  -0.75825  -0.75777  -0.74797
 Alpha  occ. eigenvalues --   -0.74739  -0.72670  -0.72632  -0.71573  -0.71520
 Alpha  occ. eigenvalues --   -0.69794  -0.69677  -0.68776  -0.68767  -0.67541
 Alpha  occ. eigenvalues --   -0.67539  -0.67144  -0.67125  -0.65210  -0.65187
 Alpha  occ. eigenvalues --   -0.64751  -0.64704  -0.64590  -0.64520  -0.64163
 Alpha  occ. eigenvalues --   -0.64133  -0.62212  -0.62197  -0.60344  -0.60281
 Alpha  occ. eigenvalues --   -0.59736  -0.59706  -0.58928  -0.58885  -0.58402
 Alpha  occ. eigenvalues --   -0.58360  -0.57487  -0.57482  -0.57207  -0.57172
 Alpha  occ. eigenvalues --   -0.56209  -0.56140  -0.55881  -0.55823  -0.55424
 Alpha  occ. eigenvalues --   -0.55395  -0.55235  -0.55178  -0.54419  -0.54417
 Alpha  occ. eigenvalues --   -0.53854  -0.53799  -0.53200  -0.53165  -0.53126
 Alpha  occ. eigenvalues --   -0.53082  -0.52838  -0.52813  -0.52664  -0.52620
 Alpha  occ. eigenvalues --   -0.52322  -0.52315  -0.51808  -0.51804  -0.51602
 Alpha  occ. eigenvalues --   -0.51521  -0.51132  -0.51092  -0.50483  -0.50426
 Alpha  occ. eigenvalues --   -0.49927  -0.49922  -0.49825  -0.49801  -0.49433
 Alpha  occ. eigenvalues --   -0.49420  -0.49142  -0.49115  -0.49043  -0.48999
 Alpha  occ. eigenvalues --   -0.48495  -0.48493  -0.48365  -0.48349  -0.48312
 Alpha  occ. eigenvalues --   -0.48287  -0.47597  -0.47534  -0.47200  -0.47060
 Alpha  occ. eigenvalues --   -0.46693  -0.46642  -0.46495  -0.46459  -0.46256
 Alpha  occ. eigenvalues --   -0.46204  -0.46059  -0.46018  -0.45753  -0.45718
 Alpha  occ. eigenvalues --   -0.45144  -0.45100  -0.44476  -0.44452  -0.44412
 Alpha  occ. eigenvalues --   -0.44410  -0.44067  -0.44041  -0.44008  -0.43992
 Alpha  occ. eigenvalues --   -0.43921  -0.43883  -0.43485  -0.43393  -0.43324
 Alpha  occ. eigenvalues --   -0.43286  -0.42926  -0.42865  -0.42834  -0.42598
 Alpha  occ. eigenvalues --   -0.42546  -0.42482  -0.41901  -0.41890  -0.41604
 Alpha  occ. eigenvalues --   -0.41602  -0.41436  -0.41395  -0.41043  -0.40929
 Alpha  occ. eigenvalues --   -0.40770  -0.40732  -0.40671  -0.40638  -0.40466
 Alpha  occ. eigenvalues --   -0.40423  -0.40172  -0.40140  -0.39342  -0.39324
 Alpha  occ. eigenvalues --   -0.38365  -0.38284  -0.37651  -0.37594  -0.37216
 Alpha  occ. eigenvalues --   -0.37198  -0.37164  -0.37137  -0.36703  -0.36611
 Alpha  occ. eigenvalues --   -0.36150  -0.36090  -0.34187  -0.34182  -0.33791
 Alpha  occ. eigenvalues --   -0.33667  -0.33110  -0.33083  -0.31257  -0.31228
 Alpha  occ. eigenvalues --   -0.30934  -0.30910  -0.29924  -0.29886  -0.29349
 Alpha  occ. eigenvalues --   -0.29266  -0.29217  -0.29143  -0.23977  -0.23970
 Alpha  occ. eigenvalues --   -0.21052  -0.21024
 Alpha virt. eigenvalues --   -0.08728  -0.08672  -0.01648  -0.01620   0.00027
 Alpha virt. eigenvalues --    0.00038   0.02274   0.02304   0.03244   0.03313
 Alpha virt. eigenvalues --    0.04791   0.04817   0.05200   0.05234   0.06240

 Mulliken charges:
               1
     1  Mg   0.839094
     2  C   -0.002930
     3  C   -0.094134
     4  C   -0.045882
     5  C   -0.063859
     6  N   -0.256765
     7  C   -0.052427
     8  C   -0.014036
     9  C   -0.086994
    10  C    0.046316
    11  C    0.104857
    12  C    0.053444
    13  C   -0.071714
    14  H    0.036002
    15  N   -0.433105
    16  C    0.168404
    17  C   -0.177237
    18  C   -0.004101
    19  C    0.148725
    20  C    0.110218
    21  C    0.012240
    22  O   -0.249852
    23  C    0.062492
    24  N   -0.341212
    25  C    0.041267
    26  C   -0.028108
    27  C   -0.024030
    28  C    0.074989
    29  C    0.076256
    30  C    0.035098
    31  C   -0.004544
    32  N   -0.310540
    33  C    0.080585
    34  C   -0.169396
    35  C    0.008392
    36  C    0.083178
    37  C    0.127231
    38  C    0.046286
    39  O   -0.188345
    40  C   -0.005407
    41  C    0.212855
    42  O   -0.256849
    43  O   -0.304869
    44  C    0.157722
    45  H   -0.017785
    46  H   -0.017023
    47  H   -0.041324
    48  H    0.000833
    49  H   -0.004094
    50  H    0.025405
    51  H    0.016390
    52  H    0.016494
    53  H    0.011338
    54  H    0.044244
    55  H    0.017743
    56  H    0.017933
    57  H    0.005814
    58  H    0.026580
    59  H    0.039519
    60  H    0.037250
    61  H    0.035297
    62  H    0.031584
    63  H    0.016508
    64  H    0.009335
    65  H    0.022990
    66  H    0.012409
    67  H    0.004653
    68  H    0.006137
    69  H    0.004928
    70  H    0.008516
    71  H    0.018909
    72  H    0.029137
    73  H    0.047951
    74  H    0.009328
    75  H    0.045827
    76  H    0.035008
    77  H    0.042833
    78  H    0.046286
    79  H    0.053729
    80  Mg   0.838135
    81  C   -0.016780
    82  C   -0.087849
    83  C   -0.045524
    84  C   -0.064741
    85  N   -0.254554
    86  C   -0.049801
    87  C   -0.015104
    88  C   -0.090498
    89  C    0.045756
    90  C    0.114421
    91  C    0.062535
    92  C   -0.077836
    93  H    0.034876
    94  N   -0.423415
    95  C    0.162892
    96  C   -0.174732
    97  C   -0.007952
    98  C    0.152113
    99  C    0.099412
   100  C    0.015477
   101  O   -0.253469
   102  C    0.061245
   103  N   -0.350086
   104  C    0.037525
   105  C   -0.019745
   106  C   -0.034862
   107  C    0.089057
   108  C    0.073753
   109  C    0.034680
   110  C   -0.007744
   111  N   -0.324209
   112  C    0.078696
   113  C   -0.162736
   114  C    0.002275
   115  C    0.096424
   116  C    0.131396
   117  C    0.042595
   118  O   -0.187697
   119  C    0.000833
   120  C    0.211240
   121  O   -0.250720
   122  O   -0.305724
   123  C    0.152032
   124  H   -0.019854
   125  H   -0.015805
   126  H   -0.040196
   127  H   -0.000725
   128  H   -0.004402
   129  H    0.022400
   130  H    0.014359
   131  H    0.016122
   132  H    0.013986
   133  H    0.037834
   134  H    0.020672
   135  H    0.019524
   136  H    0.008698
   137  H    0.025893
   138  H    0.039676
   139  H    0.038179
   140  H    0.035966
   141  H    0.033921
   142  H    0.014327
   143  H    0.012288
   144  H    0.024858
   145  H    0.011487
   146  H    0.005583
   147  H    0.005970
   148  H    0.003947
   149  H    0.010540
   150  H    0.019072
   151  H    0.030236
   152  H    0.046487
   153  H    0.008820
   154  H    0.046752
   155  H    0.034882
   156  H    0.043837
   157  H    0.049370
   158  H    0.053706
 Sum of Mulliken charges =  -0.00000

 Dipole moment (field-independent basis, Debye):
    X=              0.1045    Y=             -0.1756    Z=              7.3323  Tot=              7.3352
 Quadrupole moment (field-independent basis, Debye-Ang):
   XX=           -442.4028   YY=           -464.5054   ZZ=           -539.8107
   XY=             32.9828   XZ=              3.0219   YZ=             -1.3953

 Normal termination of Gaussian 16 at Sat Sep 11 21:53:14 2021.
