 Gaussian 16, Revision A.03,
 Gaussian 16:  ES64L-G16RevA.03 25-Dec-2016

 -----------------------------------
 #p cam-b3lyp/Def2SVP td=(nstates=5)
 -----------------------------------

 --------------------------------
 TDDFT excited states in gaussian
 --------------------------------
 Symbolic Z-matrix:
 Charge =  0 Multiplicity = 1

                         Standard orientation:
 ---------------------------------------------------------------------
 Center     Atomic      Atomic             Coordinates (Angstroms)
 Number     Number       Type             X           Y           Z
 ---------------------------------------------------------------------
      1         12           0       -6.595645   -0.560231    0.192907
      2          6           0       -6.670659    3.004987    0.502433
      3          6           0       -7.525520   -0.148137   -3.064174
      4          6           0       -6.977710   -3.703472    0.017735
      5          6           0       -6.789843   -0.718478    3.668954
      6          7           0       -7.012841    1.249079   -1.012494
      7          6           0       -6.947391    2.558314   -0.791610
      8          6           0       -7.126151    3.412328   -2.082377
      9          6           0       -7.933856    2.362061   -2.969252
     10          6           0       -7.435471    1.075114   -2.335766
     11          6           0       -9.445869    2.445894   -2.786790
     12          6           0       -5.756345    3.785981   -2.742487
     13          6           0       -5.823041    4.881269   -3.810780
     14          1           0       -4.716913    5.820244   -3.921033
     15          7           0       -6.688904   -1.753906   -1.378492
     16          6           0       -7.073147   -1.413708   -2.632249
     17          6           0       -6.972237   -2.649030   -3.438771
     18          6           0       -6.680477   -3.776201   -2.510085
     19          6           0       -6.798159   -3.118748   -1.233650
     20          6           0       -7.098660   -2.669932   -4.931195
     21          6           0       -6.358633   -5.219533   -2.736664
     22          8           0       -6.368509   -6.075776   -1.787283
     23          6           0       -6.114816   -5.627004   -4.132215
     24          7           0       -7.068964   -2.014549    1.613669
     25          6           0       -7.114461   -3.310483    1.285846
     26          6           0       -7.190149   -4.179960    2.505772
     27          6           0       -6.941083   -3.214412    3.752944
     28          6           0       -6.841170   -1.868627    2.993240
     29          6           0       -8.508347   -4.940761    2.704632
     30          6           0       -5.796680   -3.600268    4.723447
     31          6           0       -4.462772   -3.463832    4.024038
     32          7           0       -6.532986    0.861560    1.831695
     33          6           0       -6.654820    0.577409    3.199573
     34          6           0       -6.660326    1.869257    3.910324
     35          6           0       -6.557323    2.822021    2.898655
     36          6           0       -6.518073    2.167877    1.634200
     37          6           0       -6.810427    2.047550    5.313932
     38          6           0       -6.496103    4.241510    2.590173
     39          8           0       -6.397728    5.270929    3.259584
     40          6           0       -6.689783    4.421822    1.019885
     41          6           0       -5.620083    5.361996    0.534991
     42          8           0       -4.417474    5.029514    0.558509
     43          8           0       -6.192258    6.399437   -0.094988
     44          6           0       -5.184678    7.355577   -0.626715
     45          1           0       -8.040915   -0.152633   -4.026613
     46          1           0       -7.002871   -4.795150    0.011147
     47          1           0       -6.762457   -0.692552    4.759840
     48          1           0       -7.716495    4.319082   -1.949275
     49          1           0       -7.642040    2.405775   -4.018372
     50          1           0       -9.712522    3.127599   -1.979266
     51          1           0       -9.767189    1.431352   -2.550251
     52          1           0       -9.935661    2.703999   -3.726079
     53          1           0       -5.412349    2.951518   -3.353551
     54          1           0       -5.026028    4.067174   -1.982952
     55          1           0       -6.774036    5.413601   -3.776998
     56          1           0       -5.814595    4.403671   -4.790591
     57          1           0       -7.475581   -1.722539   -5.314500
     58          1           0       -7.878693   -3.391053   -5.174591
     59          1           0       -6.166801   -2.958038   -5.417986
     60          1           0       -6.996798   -5.401856   -4.732186
     61          1           0       -5.812386   -6.672825   -4.091652
     62          1           0       -5.304134   -5.022506   -4.540048
     63          1           0       -6.417006   -4.947003    2.487873
     64          1           0       -7.819653   -3.139653    4.394192
     65          1           0       -8.383076   -6.021073    2.781696
     66          1           0       -9.174227   -4.681996    1.881871
     67          1           0       -9.094495   -4.622152    3.566221
     68          1           0       -5.893588   -4.641499    5.029050
     69          1           0       -5.774252   -2.990268    5.626579
     70          1           0       -4.369101   -4.409761    3.491802
     71          1           0       -3.661044   -3.345357    4.753701
     72          1           0       -4.484379   -2.670281    3.276846
     73          1           0       -6.079667    2.801848    5.605469
     74          1           0       -6.650808    1.112907    5.851117
     75          1           0       -7.844835    2.387049    5.364881
     76          1           0       -7.689808    4.828280    0.872017
     77          1           0       -5.423146    8.335810   -0.213788
     78          1           0       -5.196560    7.246930   -1.711362
     79          1           0       -4.162021    7.225619   -0.270874
     80         12           0        6.629581   -1.007579   -0.091290
     81          6           0        7.022854    2.547367    0.203231
     82          6           0        5.283873   -0.452918   -3.176090
     83          6           0        5.857472   -4.083270   -0.198101
     84          6           0        6.924782   -1.187849    3.376576
     85          7           0        6.255176    0.851428   -1.229776
     86          6           0        6.502436    2.139125   -1.042536
     87          6           0        6.248595    3.030511   -2.287751
     88          6           0        5.191211    2.089162   -3.045822
     89          6           0        5.619375    0.736308   -2.480908
     90          6           0        3.751788    2.345788   -2.631613
     91          6           0        7.545602    3.243631   -3.144693
     92          6           0        7.445765    4.348806   -4.198441
     93          1           0        8.632784    5.151454   -4.479865
     94          7           0        6.166507   -2.162497   -1.637346
     95          6           0        5.651269   -1.769486   -2.821136
     96          6           0        5.472291   -2.998330   -3.609853
     97          6           0        5.769585   -4.164804   -2.734839
     98          6           0        5.925949   -3.501779   -1.455765
     99          6           0        5.134342   -2.984514   -5.072392
    100          6           0        5.880532   -5.635299   -3.002316
    101          8           0        5.911998   -6.492451   -2.049882
    102          6           0        5.857132   -6.048628   -4.413028
    103          7           0        6.208877   -2.407840    1.386767
    104          6           0        5.955011   -3.690198    1.072058
    105          6           0        5.954637   -4.564283    2.303467
    106          6           0        6.502495   -3.639024    3.487253
    107          6           0        6.646792   -2.306098    2.720520
    108          6           0        4.600907   -5.151677    2.701904
    109          6           0        7.724973   -4.168364    4.286005
    110          6           0        8.948835   -4.194871    3.398960
    111          7           0        7.103463    0.371285    1.503149
    112          6           0        7.146952    0.092856    2.886861
    113          6           0        7.400064    1.372299    3.580664
    114          6           0        7.463881    2.317541    2.545809
    115          6           0        7.244519    1.675915    1.296932
    116          6           0        7.490955    1.550633    4.989941
    117          6           0        7.656362    3.713927    2.226797
    118          8           0        7.966376    4.716861    2.868481
    119          6           0        7.253709    3.945177    0.706671
    120          6           0        8.342395    4.753491    0.055595
    121          8           0        9.484274    4.280551   -0.082397
    122          8           0        7.804074    5.859851   -0.488979
    123          6           0        8.843065    6.688710   -1.156301
    124          1           0        4.642731   -0.376933   -4.054763
    125          1           0        5.703192   -5.164722   -0.186421
    126          1           0        7.127617   -1.175607    4.449602
    127          1           0        5.801837    3.993932   -2.073281
    128          1           0        5.338564    2.116741   -4.122333
    129          1           0        3.687550    3.039586   -1.806593
    130          1           0        3.351177    1.381599   -2.347192
    131          1           0        3.164191    2.673835   -3.493843
    132          1           0        7.690061    2.373571   -3.798052
    133          1           0        8.394331    3.421853   -2.513416
    134          1           0        6.574393    4.994963   -4.036792
    135          1           0        7.259379    3.885678   -5.170444
    136          1           0        4.813874   -1.988426   -5.401810
    137          1           0        4.245854   -3.612098   -5.201220
    138          1           0        5.939854   -3.380348   -5.694590
    139          1           0        4.932508   -5.708902   -4.873593
    140          1           0        6.037466   -7.125329   -4.405101
    141          1           0        6.674899   -5.543599   -4.939169
    142          1           0        6.622408   -5.407910    2.179075
    143          1           0        5.739563   -3.474696    4.262349
    144          1           0        4.605947   -6.256242    2.765057
    145          1           0        3.859665   -4.814917    1.989378
    146          1           0        4.198112   -4.785596    3.644741
    147          1           0        7.551065   -5.198732    4.605795
    148          1           0        7.943865   -3.587595    5.175821
    149          1           0        8.843510   -5.141973    2.861371
    150          1           0        9.856832   -4.180142    3.998430
    151          1           0        8.914450   -3.388938    2.656711
    152          1           0        8.333297    2.206049    5.167148
    153          1           0        7.611341    0.599379    5.504124
    154          1           0        6.517894    2.006233    5.192038
    155          1           0        6.295573    4.466192    0.697185
    156          1           0        8.783297    7.689730   -0.718047
    157          1           0        8.644020    6.600992   -2.240933
    158          1           0        9.880647    6.437692   -0.969592
 ---------------------------------------------------------------------

 SCF Done:  E(RCAM-B3LYP) =  -4069.81163084     A.U. after   19 cycles

 Excitation energies and oscillator strengths:

 Excited State   1:      Singlet-A      1.6655 eV  744.45 nm  f=0.0143  <S**2>=0.000
     309 -> 315       -0.10983
     310 -> 316        0.13152
     311 -> 313       -0.43845
     312 -> 314        0.52842
 This state for optimization and/or second-order correction.
 Total Energy, E(TD-HF/TD-DFT) =  -4069.75042655
 Copying the excited state density for this state as the 1-particle RhoCI density.

 Excited State   2:      Singlet-A      1.6890 eV  734.06 nm  f=0.7307  <S**2>=0.000
     309 -> 315        0.13706
     310 -> 316        0.11295
     311 -> 313        0.52722
     312 -> 314        0.43753

 Excited State   3:      Singlet-A      2.1845 eV  567.57 nm  f=0.0411  <S**2>=0.000
     309 -> 313       -0.19695
     310 -> 314        0.61227
     312 -> 316       -0.25880

 Excited State   4:      Singlet-A      2.1934 eV  565.26 nm  f=0.1478  <S**2>=0.000
     309 -> 313        0.60978
     310 -> 314        0.19518
     311 -> 315       -0.26576

 Excited State   5:      Singlet-A      2.6440 eV  468.93 nm  f=0.0000  <S**2>=0.000
     312 -> 313        0.70709

 The electronic state is 1-A.
 Alpha  occ. eigenvalues --  -46.87874 -46.87553 -19.26365 -19.26244 -19.19102
 Alpha  occ. eigenvalues --  -19.19057 -19.18886 -19.18632 -19.18235 -19.17934
 Alpha  occ. eigenvalues --  -14.42531 -14.42389 -14.41524 -14.41253 -14.39481
 Alpha  occ. eigenvalues --  -14.39248 -14.38662 -14.38491 -10.39161 -10.38984
 Alpha  occ. eigenvalues --  -10.35520 -10.35312 -10.34457 -10.34110 -10.31761
 Alpha  occ. eigenvalues --  -10.31663 -10.31485 -10.31196 -10.30994 -10.30919
 Alpha  occ. eigenvalues --  -10.30646 -10.30579 -10.30291 -10.30280 -10.30253
 Alpha  occ. eigenvalues --  -10.30043 -10.29988 -10.29786 -10.29705 -10.29336
 Alpha  occ. eigenvalues --  -10.29331 -10.29300 -10.28848 -10.28675 -10.28609
 Alpha  occ. eigenvalues --  -10.28582 -10.28443 -10.28298 -10.28209 -10.28022
 Alpha  occ. eigenvalues --  -10.27895 -10.27866 -10.27807 -10.27661 -10.27577
 Alpha  occ. eigenvalues --  -10.27565 -10.27561 -10.27506 -10.27482 -10.27424
 Alpha  occ. eigenvalues --  -10.27408 -10.27375 -10.27369 -10.27279 -10.27232
 Alpha  occ. eigenvalues --  -10.26928 -10.26830 -10.26605 -10.26492 -10.26359
 Alpha  occ. eigenvalues --  -10.26316 -10.26239 -10.26092 -10.26056 -10.25897
 Alpha  occ. eigenvalues --  -10.25865 -10.25831 -10.25731 -10.25485 -10.25297
 Alpha  occ. eigenvalues --  -10.24905 -10.24859 -10.24763 -10.24743 -10.24655
 Alpha  occ. eigenvalues --  -10.24585  -3.16617  -3.16303  -1.91499  -1.91185
 Alpha  occ. eigenvalues --   -1.91085  -1.90927  -1.90774  -1.90611  -1.16714
 Alpha  occ. eigenvalues --   -1.16538  -1.08693  -1.08540  -1.07286  -1.06885
 Alpha  occ. eigenvalues --   -1.06841  -1.06724  -1.04662  -1.04387  -1.03836
 Alpha  occ. eigenvalues --   -1.03557  -1.03309  -1.02933  -1.02486  -1.02005
 Alpha  occ. eigenvalues --   -0.92048  -0.91876  -0.89587  -0.89395  -0.89282
 Alpha  occ. eigenvalues --   -0.89039  -0.88352  -0.88123  -0.87939  -0.87756
 Alpha  occ. eigenvalues --   -0.87683  -0.87581  -0.87354  -0.87037  -0.85074
 Alpha  occ. eigenvalues --   -0.84896  -0.83999  -0.83781  -0.83043  -0.82854
 Alpha  occ. eigenvalues --   -0.82734  -0.82553  -0.81664  -0.81492  -0.80675
 Alpha  occ. eigenvalues --   -0.80342  -0.78875  -0.78542  -0.77298  -0.77044
 Alpha  occ. eigenvalues --   -0.77018  -0.76796  -0.76005  -0.75728  -0.74964
 Alpha  occ. eigenvalues --   -0.74702  -0.72848  -0.72594  -0.71747  -0.71471
 Alpha  occ. eigenvalues --   -0.69969  -0.69666  -0.68961  -0.68725  -0.67717
 Alpha  occ. eigenvalues --   -0.67501  -0.67318  -0.67111  -0.65376  -0.65166
 Alpha  occ. eigenvalues --   -0.64930  -0.64699  -0.64666  -0.64551  -0.64338
 Alpha  occ. eigenvalues --   -0.64106  -0.62374  -0.62175  -0.60518  -0.60249
 Alpha  occ. eigenvalues --   -0.59892  -0.59687  -0.59062  -0.58888  -0.58578
 Alpha  occ. eigenvalues --   -0.58322  -0.57659  -0.57442  -0.57380  -0.57138
 Alpha  occ. eigenvalues --   -0.56385  -0.56104  -0.56062  -0.55787  -0.55597
 Alpha  occ. eigenvalues --   -0.55406  -0.55358  -0.55147  -0.54594  -0.54389
 Alpha  occ. eigenvalues --   -0.53990  -0.53804  -0.53374  -0.53307  -0.53131
 Alpha  occ. eigenvalues --   -0.53043  -0.52993  -0.52842  -0.52802  -0.52584
 Alpha  occ. eigenvalues --   -0.52500  -0.52314  -0.51978  -0.51769  -0.51709
 Alpha  occ. eigenvalues --   -0.51563  -0.51269  -0.51097  -0.50657  -0.50402
 Alpha  occ. eigenvalues --   -0.50100  -0.49998  -0.49880  -0.49773  -0.49599
 Alpha  occ. eigenvalues --   -0.49392  -0.49291  -0.49180  -0.49098  -0.48990
 Alpha  occ. eigenvalues --   -0.48669  -0.48530  -0.48517  -0.48451  -0.48277
 Alpha  occ. eigenvalues --   -0.48249  -0.47775  -0.47498  -0.47373  -0.47026
 Alpha  occ. eigenvalues --   -0.46873  -0.46648  -0.46608  -0.46452  -0.46433
 Alpha  occ. eigenvalues --   -0.46232  -0.46173  -0.45981  -0.45894  -0.45713
 Alpha  occ. eigenvalues --   -0.45267  -0.45108  -0.44651  -0.44589  -0.44409
 Alpha  occ. eigenvalues --   -0.44375  -0.44217  -0.44175  -0.44095  -0.44018
 Alpha  occ. eigenvalues --   -0.43986  -0.43845  -0.43569  -0.43467  -0.43451
 Alpha  occ. eigenvalues --   -0.43281  -0.43101  -0.42828  -0.42794  -0.42774
 Alpha  occ. eigenvalues --   -0.42723  -0.42461  -0.42083  -0.41869  -0.41778
 Alpha  occ. eigenvalues --   -0.41625  -0.41560  -0.41360  -0.41218  -0.40956
 Alpha  occ. eigenvalues --   -0.40904  -0.40879  -0.40640  -0.40636  -0.40602
 Alpha  occ. eigenvalues --   -0.40394  -0.40344  -0.40137  -0.39503  -0.39336
 Alpha  occ. eigenvalues --   -0.38540  -0.38252  -0.37852  -0.37561  -0.37391
 Alpha  occ. eigenvalues --   -0.37355  -0.37166  -0.37096  -0.36789  -0.36669
 Alpha  occ. eigenvalues --   -0.36268  -0.36116  -0.34362  -0.34147  -0.33852
 Alpha  occ. eigenvalues --   -0.33758  -0.33262  -0.33070  -0.31415  -0.31190
 Alpha  occ. eigenvalues --   -0.31111  -0.30867  -0.30095  -0.29837  -0.29525
 Alpha  occ. eigenvalues --   -0.29394  -0.29229  -0.29102  -0.24157  -0.23928
 Alpha  occ. eigenvalues --   -0.21204  -0.21012
 Alpha virt. eigenvalues --   -0.08850  -0.08688  -0.01825  -0.01580  -0.00135
 Alpha virt. eigenvalues --    0.00067   0.02131   0.02318   0.03031   0.03322
 Alpha virt. eigenvalues --    0.04630   0.04836   0.05018   0.05272   0.06068

 Mulliken charges:
               1
     1  Mg   0.838520
     2  C   -0.003123
     3  C   -0.094521
     4  C   -0.045711
     5  C   -0.063834
     6  N   -0.256756
     7  C   -0.052598
     8  C   -0.013936
     9  C   -0.086944
    10  C    0.046167
    11  C    0.104799
    12  C    0.053625
    13  C   -0.071545
    14  H    0.035418
    15  N   -0.433143
    16  C    0.168271
    17  C   -0.177419
    18  C   -0.004011
    19  C    0.148666
    20  C    0.110235
    21  C    0.012322
    22  O   -0.249256
    23  C    0.062551
    24  N   -0.341124
    25  C    0.041194
    26  C   -0.028219
    27  C   -0.024032
    28  C    0.074874
    29  C    0.076102
    30  C    0.035087
    31  C   -0.004517
    32  N   -0.310516
    33  C    0.080452
    34  C   -0.169508
    35  C    0.008491
    36  C    0.082983
    37  C    0.127264
    38  C    0.046248
    39  O   -0.188020
    40  C   -0.005376
    41  C    0.212996
    42  O   -0.257332
    43  O   -0.304728
    44  C    0.157634
    45  H   -0.017684
    46  H   -0.016618
    47  H   -0.041264
    48  H    0.001113
    49  H   -0.004377
    50  H    0.025619
    51  H    0.016597
    52  H    0.016656
    53  H    0.010579
    54  H    0.043927
    55  H    0.018298
    56  H    0.017606
    57  H    0.005686
    58  H    0.026997
    59  H    0.038878
    60  H    0.037347
    61  H    0.035943
    62  H    0.030895
    63  H    0.016744
    64  H    0.009614
    65  H    0.023406
    66  H    0.012546
    67  H    0.004867
    68  H    0.006544
    69  H    0.004805
    70  H    0.009005
    71  H    0.018050
    72  H    0.028849
    73  H    0.047874
    74  H    0.009229
    75  H    0.046173
    76  H    0.035284
    77  H    0.043339
    78  H    0.046071
    79  H    0.053668
    80  Mg   0.838170
    81  C   -0.016716
    82  C   -0.087796
    83  C   -0.045490
    84  C   -0.064709
    85  N   -0.254587
    86  C   -0.049383
    87  C   -0.015125
    88  C   -0.090672
    89  C    0.045975
    90  C    0.114435
    91  C    0.062580
    92  C   -0.077652
    93  H    0.034494
    94  N   -0.423479
    95  C    0.162923
    96  C   -0.174856
    97  C   -0.007943
    98  C    0.152094
    99  C    0.099552
   100  C    0.015471
   101  O   -0.253236
   102  C    0.061288
   103  N   -0.349984
   104  C    0.037551
   105  C   -0.019826
   106  C   -0.034837
   107  C    0.089033
   108  C    0.073654
   109  C    0.034763
   110  C   -0.007627
   111  N   -0.324213
   112  C    0.078676
   113  C   -0.162874
   114  C    0.002566
   115  C    0.096251
   116  C    0.131372
   117  C    0.042731
   118  O   -0.187606
   119  C    0.000764
   120  C    0.211147
   121  O   -0.251297
   122  O   -0.305374
   123  C    0.152144
   124  H   -0.020147
   125  H   -0.015686
   126  H   -0.040475
   127  H   -0.000222
   128  H   -0.005015
   129  H    0.023975
   130  H    0.014828
   131  H    0.015700
   132  H    0.013661
   133  H    0.037598
   134  H    0.020900
   135  H    0.019188
   136  H    0.008338
   137  H    0.025538
   138  H    0.039392
   139  H    0.037910
   140  H    0.036178
   141  H    0.033697
   142  H    0.014171
   143  H    0.012520
   144  H    0.024914
   145  H    0.012057
   146  H    0.005586
   147  H    0.006070
   148  H    0.003604
   149  H    0.010824
   150  H    0.017743
   151  H    0.030162
   152  H    0.045860
   153  H    0.008279
   154  H    0.047827
   155  H    0.036100
   156  H    0.043946
   157  H    0.049263
   158  H    0.053363
 Sum of Mulliken charges =  -0.00000

 Dipole moment (field-independent basis, Debye):
    X=             -4.9341    Y=             -1.7270    Z=             -7.1903  Tot=              8.8898
 Quadrupole moment (field-independent basis, Debye-Ang):
   XX=           -527.7398   YY=           -547.2104   ZZ=           -450.4686
   XY=             -9.8567   XZ=              4.5251   YZ=            -50.4179

 Normal termination of Gaussian 16 at Sat Sep 11 03:32:42 2021.
