 Gaussian 16, Revision A.03,
 Gaussian 16:  ES64L-G16RevA.03 25-Dec-2016

 -----------------------------------
 #p cam-b3lyp/Def2SVP td=(nstates=5)
 -----------------------------------

 --------------------------------
 TDDFT excited states in gaussian
 --------------------------------
 Symbolic Z-matrix:
 Charge =  0 Multiplicity = 1

                         Standard orientation:
 ---------------------------------------------------------------------
 Center     Atomic      Atomic             Coordinates (Angstroms)
 Number     Number       Type             X           Y           Z
 ---------------------------------------------------------------------
      1         12           0       -4.115366   -1.438704    0.459944
      2          6           0       -4.892458    2.055282    0.480019
      3          6           0       -5.260625   -1.523039   -2.753206
      4          6           0       -3.864186   -4.598100    0.568333
      5          6           0       -4.110764   -1.307056    3.942516
      6          7           0       -4.944444    0.132857   -0.860461
      7          6           0       -5.133806    1.444210   -0.752453
      8          6           0       -5.541161    2.122239   -2.094732
      9          6           0       -6.161353    0.855671   -2.838484
     10          6           0       -5.384839   -0.243432   -2.134976
     11          6           0       -7.649023    0.657406   -2.566399
     12          6           0       -4.307140    2.694534   -2.870234
     13          6           0       -4.643043    3.650834   -4.018282
     14          1           0       -3.755141    4.774397   -4.276322
     15          7           0       -4.039713   -2.768712   -0.998893
     16          6           0       -4.542872   -2.629122   -2.248945
     17          6           0       -4.233051   -3.890274   -2.956185
     18          6           0       -3.677064   -4.846491   -1.958878
     19          6           0       -3.864887   -4.108831   -0.735784
     20          6           0       -4.422395   -4.074739   -4.430591
     21          6           0       -3.082035   -6.213158   -2.086519
     22          8           0       -2.874769   -6.962275   -1.071414
     23          6           0       -2.826736   -6.693147   -3.456729
     24          7           0       -4.218979   -2.818670    2.022824
     25          6           0       -4.017782   -4.123096    1.806083
     26          6           0       -3.859575   -4.872824    3.095586
     27          6           0       -3.752013   -3.765111    4.240642
     28          6           0       -3.960924   -2.502786    3.368195
     29          6           0       -4.986708   -5.855886    3.440801
     30          6           0       -2.509191   -3.826317    5.163716
     31          6           0       -1.264346   -3.496278    4.370914
     32          7           0       -4.263756    0.114232    1.969055
     33          6           0       -4.261681   -0.059452    3.360638
     34          6           0       -4.494029    1.266685    3.961840
     35          6           0       -4.632540    2.122502    2.870860
     36          6           0       -4.521559    1.373777    1.664466
     37          6           0       -4.611094    1.542150    5.352828
     38          6           0       -4.873032    3.491255    2.443617
     39          8           0       -4.952816    4.577803    3.018544
     40          6           0       -5.172357    3.482705    0.879598
     41          6           0       -4.337874    4.565331    0.251212
     42          8           0       -3.093187    4.479318    0.224340
     43          8           0       -5.136156    5.406730   -0.423573
     44          6           0       -4.367858    6.488364   -1.095838
     45          1           0       -5.809027   -1.718484   -3.676785
     46          1           0       -3.669201   -5.669198    0.652998
     47          1           0       -4.038125   -1.174605    5.023550
     48          1           0       -6.295171    2.903694   -1.998707
     49          1           0       -5.933763    0.857813   -3.904280
     50          1           0       -8.009433    1.345721   -1.802038
     51          1           0       -7.747951   -0.373918   -2.227168
     52          1           0       -8.224191    0.725463   -3.490156
     53          1           0       -3.831090    1.890643   -3.431657
     54          1           0       -3.613701    3.183357   -2.185018
     55          1           0       -5.679131    3.986699   -3.967049
     56          1           0       -4.584439    3.094929   -4.954089
     57          1           0       -4.999957   -3.259853   -4.865250
     58          1           0       -5.051693   -4.954577   -4.563175
     59          1           0       -3.475433   -4.218247   -4.951168
     60          1           0       -3.763092   -6.702669   -4.015027
     61          1           0       -2.318272   -7.650715   -3.350059
     62          1           0       -2.174445   -5.981869   -3.964221
     63          1           0       -2.949469   -5.471248    3.090880
     64          1           0       -4.596631   -3.804963    4.928906
     65          1           0       -4.642915   -6.878525    3.598028
     66          1           0       -5.728834   -5.810914    2.644235
     67          1           0       -5.584031   -5.579710    4.309333
     68          1           0       -2.379949   -4.833150    5.559353
     69          1           0       -2.567850   -3.142266    6.010406
     70          1           0       -1.007065   -4.450802    3.913177
     71          1           0       -0.469660   -3.155033    5.035170
     72          1           0       -1.480320   -2.795677    3.564069
     73          1           0       -4.034433    2.449179    5.533745
     74          1           0       -4.241502    0.711364    5.953493
     75          1           0       -5.689144    1.675011    5.442339
     76          1           0       -6.239563    3.669131    0.763664
     77          1           0       -4.779302    7.436788   -0.750237
     78          1           0       -4.408373    6.278802   -2.164879
     79          1           0       -3.324473    6.595667   -0.797221
     80         12           0        4.735268    0.016273   -0.290259
     81          6           0        3.206642    3.255856   -0.072503
     82          6           0        2.974179   -0.456101   -3.172971
     83          6           0        5.711296   -3.002757   -0.274759
     84          6           0        5.456777    0.281521    3.108972
     85          7           0        3.308009    1.307122   -1.380622
     86          6           0        2.851075    2.541857   -1.235783
     87          6           0        2.028136    3.068754   -2.441894
     88          6           0        1.558343    1.657516   -3.047347
     89          6           0        2.699051    0.780167   -2.535756
     90          6           0        0.258201    1.148238   -2.447692
     91          6           0        2.910609    3.867311   -3.464429
     92          6           0        2.124125    4.670818   -4.502490
     93          1           0        2.663325    5.954207   -4.943682
     94          7           0        4.792333   -1.322512   -1.754144
     95          6           0        4.021684   -1.350610   -2.861661
     96          6           0        4.439124   -2.545086   -3.612080
     97          6           0        5.404561   -3.310063   -2.776940
     98          6           0        5.322502   -2.569497   -1.533991
     99          6           0        3.988682   -2.822025   -5.017003
    100          6           0        6.250796   -4.517051   -3.047633
    101          8           0        6.836898   -5.154213   -2.102465
    102          6           0        6.297353   -4.986134   -4.440216
    103          7           0        5.287801   -1.279080    1.239150
    104          6           0        5.722451   -2.522433    0.968819
    105          6           0        6.321219   -3.169574    2.194819
    106          6           0        6.418046   -2.008041    3.289818
    107          6           0        5.746700   -0.861406    2.502480
    108          6           0        5.540261   -4.349630    2.772725
    109          6           0        7.813211   -1.752119    3.922843
    110          6           0        8.758440   -1.197270    2.881649
    111          7           0        4.573429    1.554047    1.218744
    112          6           0        4.908765    1.445901    2.586201
    113          6           0        4.516311    2.715082    3.232406
    114          6           0        3.954383    3.470759    2.192377
    115          6           0        3.975451    2.717427    0.987575
    116          6           0        4.651272    3.020604    4.616087
    117          6           0        3.338504    4.730389    1.842022
    118          8           0        3.135250    5.791435    2.430736
    119          6           0        2.711800    4.599135    0.387233
    120          6           0        3.125146    5.807572   -0.407338
    121          8           0        4.320593    5.997912   -0.692455
    122          8           0        2.025279    6.419736   -0.882640
    123          6           0        2.384204    7.618159   -1.686861
    124          1           0        2.299651   -0.795851   -3.959402
    125          1           0        6.158261   -3.998854   -0.236039
    126          1           0        5.737469    0.479889    4.145572
    127          1           0        1.163860    3.665547   -2.176109
    128          1           0        1.550166    1.676995   -4.134043
    129          1           0       -0.074948    1.764336   -1.625746
    130          1           0        0.465636    0.142376   -2.106722
    131          1           0       -0.503651    1.051364   -3.226485
    132          1           0        3.423563    3.157195   -4.125753
    133          1           0        3.597288    4.512899   -2.952274
    134          1           0        1.066282    4.771363   -4.230838
    135          1           0        2.108078    4.106952   -5.438343
    136          1           0        3.153851   -2.172245   -5.307226
    137          1           0        3.562370   -3.831029   -5.023087
    138          1           0        4.807914   -2.780149   -5.737971
    139          1           0        5.290021   -5.220173   -4.776318
    140          1           0        7.022386   -5.802297   -4.449575
    141          1           0        6.658131   -4.167717   -5.073185
    142          1           0        7.317187   -3.541745    1.988286
    143          1           0        5.774386   -2.211948    4.158128
    144          1           0        6.138927   -5.277501    2.841500
    145          1           0        4.661064   -4.508684    2.162609
    146          1           0        5.109974   -4.180375    3.758325
    147          1           0        8.250072   -2.691966    4.269229
    148          1           0        7.785017   -1.077741    4.772196
    149          1           0        9.115227   -2.095383    2.368648
    150          1           0        9.578393   -0.661320    3.355445
    151          1           0        8.220020   -0.589109    2.145518
    152          1           0        5.029307    4.032526    4.676059
    153          1           0        5.314371    2.317405    5.115673
    154          1           0        3.613807    2.909314    4.942489
    155          1           0        1.629023    4.535089    0.501536
    156          1           0        1.849279    8.467492   -1.250767
    157          1           0        2.145573    7.356994   -2.734999
    158          1           0        3.409377    7.966082   -1.637713
 ---------------------------------------------------------------------

 SCF Done:  E(RCAM-B3LYP) =  -4069.81145891     A.U. after   19 cycles

 Excitation energies and oscillator strengths:

 Excited State   1:      Singlet-A      1.6463 eV  753.09 nm  f=0.0010  <S**2>=0.000
     309 -> 315       -0.11539
     310 -> 316        0.11987
     311 -> 313       -0.47419
     312 -> 314        0.49819
 This state for optimization and/or second-order correction.
 Total Energy, E(TD-HF/TD-DFT) =  -4069.75095725
 Copying the excited state density for this state as the 1-particle RhoCI density.

 Excited State   2:      Singlet-A      1.7048 eV  727.28 nm  f=0.6946  <S**2>=0.000
     309 -> 315        0.13211
     310 -> 316        0.12434
     311 -> 313        0.49547
     312 -> 314        0.47168

 Excited State   3:      Singlet-A      2.1798 eV  568.79 nm  f=0.0233  <S**2>=0.000
     309 -> 313       -0.30087
     310 -> 314        0.57078
     311 -> 315        0.12417
     312 -> 316       -0.23712

 Excited State   4:      Singlet-A      2.1961 eV  564.57 nm  f=0.1541  <S**2>=0.000
     309 -> 313        0.56577
     310 -> 314        0.29629
     311 -> 315       -0.24952
     312 -> 316       -0.13197

 Excited State   5:      Singlet-A      2.3079 eV  537.21 nm  f=0.0000  <S**2>=0.000
     312 -> 313        0.70693

 The electronic state is 1-A.
 Alpha  occ. eigenvalues --  -46.87982 -46.87400 -19.26447 -19.25959 -19.19202
 Alpha  occ. eigenvalues --  -19.18978 -19.18798 -19.18505 -19.18291 -19.17676
 Alpha  occ. eigenvalues --  -14.42648 -14.42234 -14.41623 -14.41102 -14.39587
 Alpha  occ. eigenvalues --  -14.39096 -14.38761 -14.38326 -10.39259 -10.38712
 Alpha  occ. eigenvalues --  -10.35614 -10.35188 -10.34516 -10.33840 -10.31820
 Alpha  occ. eigenvalues --  -10.31598 -10.31463 -10.31125 -10.31022 -10.30747
 Alpha  occ. eigenvalues --  -10.30744 -10.30670 -10.30380 -10.30128 -10.30082
 Alpha  occ. eigenvalues --  -10.30071 -10.29924 -10.29798 -10.29631 -10.29434
 Alpha  occ. eigenvalues --  -10.29203 -10.29141 -10.29019 -10.28915 -10.28549
 Alpha  occ. eigenvalues --  -10.28485 -10.28379 -10.28356 -10.28119 -10.27956
 Alpha  occ. eigenvalues --  -10.27921 -10.27853 -10.27761 -10.27731 -10.27714
 Alpha  occ. eigenvalues --  -10.27633 -10.27591 -10.27575 -10.27426 -10.27333
 Alpha  occ. eigenvalues --  -10.27330 -10.27317 -10.27215 -10.27189 -10.27173
 Alpha  occ. eigenvalues --  -10.27093 -10.26604 -10.26572 -10.26453 -10.26434
 Alpha  occ. eigenvalues --  -10.26297 -10.26268 -10.26186 -10.25976 -10.25933
 Alpha  occ. eigenvalues --  -10.25693 -10.25666 -10.25584 -10.25546 -10.25211
 Alpha  occ. eigenvalues --  -10.24992 -10.24953 -10.24793 -10.24585 -10.24572
 Alpha  occ. eigenvalues --  -10.24427  -3.16725  -3.16151  -1.91607  -1.91193
 Alpha  occ. eigenvalues --   -1.91035  -1.91033  -1.90621  -1.90458  -1.16797
 Alpha  occ. eigenvalues --   -1.16262  -1.08745  -1.08267  -1.07377  -1.06816
 Alpha  occ. eigenvalues --   -1.06760  -1.06580  -1.04779  -1.04221  -1.03938
 Alpha  occ. eigenvalues --   -1.03408  -1.03400  -1.02782  -1.02586  -1.01846
 Alpha  occ. eigenvalues --   -0.92146  -0.91664  -0.89671  -0.89438  -0.89255
 Alpha  occ. eigenvalues --   -0.88862  -0.88434  -0.88018  -0.87998  -0.87877
 Alpha  occ. eigenvalues --   -0.87522  -0.87463  -0.87431  -0.86910  -0.85220
 Alpha  occ. eigenvalues --   -0.84738  -0.84073  -0.83654  -0.83144  -0.82856
 Alpha  occ. eigenvalues --   -0.82741  -0.82393  -0.81754  -0.81295  -0.80776
 Alpha  occ. eigenvalues --   -0.80166  -0.78977  -0.78402  -0.77411  -0.77130
 Alpha  occ. eigenvalues --   -0.76902  -0.76629  -0.76111  -0.75544  -0.75044
 Alpha  occ. eigenvalues --   -0.74565  -0.72942  -0.72439  -0.71847  -0.71307
 Alpha  occ. eigenvalues --   -0.70041  -0.69558  -0.69092  -0.68570  -0.67817
 Alpha  occ. eigenvalues --   -0.67479  -0.67340  -0.66972  -0.65514  -0.65026
 Alpha  occ. eigenvalues --   -0.64981  -0.64804  -0.64504  -0.64422  -0.64374
 Alpha  occ. eigenvalues --   -0.63968  -0.62457  -0.61964  -0.60617  -0.60116
 Alpha  occ. eigenvalues --   -0.60026  -0.59509  -0.59159  -0.58722  -0.58672
 Alpha  occ. eigenvalues --   -0.58143  -0.57744  -0.57467  -0.57192  -0.56963
 Alpha  occ. eigenvalues --   -0.56480  -0.56163  -0.55949  -0.55698  -0.55580
 Alpha  occ. eigenvalues --   -0.55482  -0.55198  -0.54986  -0.54674  -0.54211
 Alpha  occ. eigenvalues --   -0.54145  -0.53635  -0.53472  -0.53431  -0.53093
 Alpha  occ. eigenvalues --   -0.52987  -0.52967  -0.52878  -0.52628  -0.52567
 Alpha  occ. eigenvalues --   -0.52453  -0.52200  -0.52041  -0.51852  -0.51609
 Alpha  occ. eigenvalues --   -0.51407  -0.51358  -0.50917  -0.50776  -0.50299
 Alpha  occ. eigenvalues --   -0.50197  -0.50102  -0.49748  -0.49720  -0.49647
 Alpha  occ. eigenvalues --   -0.49394  -0.49294  -0.49241  -0.48915  -0.48800
 Alpha  occ. eigenvalues --   -0.48763  -0.48624  -0.48591  -0.48275  -0.48155
 Alpha  occ. eigenvalues --   -0.48084  -0.47882  -0.47472  -0.47344  -0.46975
 Alpha  occ. eigenvalues --   -0.46894  -0.46791  -0.46524  -0.46464  -0.46315
 Alpha  occ. eigenvalues --   -0.46302  -0.46034  -0.45975  -0.45818  -0.45522
 Alpha  occ. eigenvalues --   -0.45347  -0.44974  -0.44746  -0.44698  -0.44313
 Alpha  occ. eigenvalues --   -0.44298  -0.44235  -0.44226  -0.44183  -0.43860
 Alpha  occ. eigenvalues --   -0.43851  -0.43667  -0.43653  -0.43584  -0.43269
 Alpha  occ. eigenvalues --   -0.43194  -0.43117  -0.42854  -0.42798  -0.42646
 Alpha  occ. eigenvalues --   -0.42564  -0.42338  -0.42181  -0.41874  -0.41759
 Alpha  occ. eigenvalues --   -0.41727  -0.41359  -0.41321  -0.41205  -0.41088
 Alpha  occ. eigenvalues --   -0.41029  -0.40734  -0.40720  -0.40537  -0.40502
 Alpha  occ. eigenvalues --   -0.40459  -0.40246  -0.39980  -0.39575  -0.39233
 Alpha  occ. eigenvalues --   -0.38638  -0.38131  -0.38028  -0.37491  -0.37484
 Alpha  occ. eigenvalues --   -0.37421  -0.37029  -0.36936  -0.36877  -0.36449
 Alpha  occ. eigenvalues --   -0.36365  -0.35947  -0.34464  -0.33985  -0.33949
 Alpha  occ. eigenvalues --   -0.33515  -0.33362  -0.32909  -0.31508  -0.31215
 Alpha  occ. eigenvalues --   -0.31062  -0.30697  -0.30151  -0.29625  -0.29569
 Alpha  occ. eigenvalues --   -0.29480  -0.29080  -0.28924  -0.24262  -0.23759
 Alpha  occ. eigenvalues --   -0.21306  -0.20858
 Alpha virt. eigenvalues --   -0.08949  -0.08526  -0.01928  -0.01430  -0.00240
 Alpha virt. eigenvalues --    0.00217   0.02051   0.02486   0.02665   0.03502
 Alpha virt. eigenvalues --    0.04484   0.04881   0.04969   0.05536   0.05822

 Mulliken charges:
               1
     1  Mg   0.836609
     2  C   -0.003997
     3  C   -0.095565
     4  C   -0.045188
     5  C   -0.063438
     6  N   -0.256744
     7  C   -0.053452
     8  C   -0.013373
     9  C   -0.086860
    10  C    0.045611
    11  C    0.104738
    12  C    0.051438
    13  C   -0.071264
    14  H    0.034630
    15  N   -0.433295
    16  C    0.167858
    17  C   -0.178260
    18  C   -0.004097
    19  C    0.148785
    20  C    0.110303
    21  C    0.012506
    22  O   -0.248684
    23  C    0.062795
    24  N   -0.340974
    25  C    0.041079
    26  C   -0.028298
    27  C   -0.024119
    28  C    0.075060
    29  C    0.076008
    30  C    0.034981
    31  C   -0.004498
    32  N   -0.310862
    33  C    0.080805
    34  C   -0.168804
    35  C    0.009168
    36  C    0.083000
    37  C    0.126980
    38  C    0.046914
    39  O   -0.186299
    40  C   -0.005749
    41  C    0.213877
    42  O   -0.258316
    43  O   -0.304695
    44  C    0.156528
    45  H   -0.017837
    46  H   -0.016307
    47  H   -0.040765
    48  H    0.001784
    49  H   -0.005009
    50  H    0.025931
    51  H    0.016983
    52  H    0.016805
    53  H    0.009991
    54  H    0.043069
    55  H    0.019554
    56  H    0.017120
    57  H    0.005417
    58  H    0.027428
    59  H    0.037482
    60  H    0.037462
    61  H    0.036390
    62  H    0.029602
    63  H    0.017045
    64  H    0.009840
    65  H    0.023621
    66  H    0.012545
    67  H    0.005022
    68  H    0.006658
    69  H    0.004957
    70  H    0.009167
    71  H    0.017951
    72  H    0.029175
    73  H    0.049227
    74  H    0.009372
    75  H    0.046364
    76  H    0.035539
    77  H    0.044192
    78  H    0.045113
    79  H    0.055522
    80  Mg   0.837180
    81  C   -0.016366
    82  C   -0.087909
    83  C   -0.045603
    84  C   -0.065793
    85  N   -0.254557
    86  C   -0.048401
    87  C   -0.016155
    88  C   -0.092140
    89  C    0.045544
    90  C    0.108971
    91  C    0.062682
    92  C   -0.076903
    93  H    0.033359
    94  N   -0.423406
    95  C    0.162730
    96  C   -0.175378
    97  C   -0.008147
    98  C    0.151872
    99  C    0.099938
   100  C    0.015292
   101  O   -0.253612
   102  C    0.061411
   103  N   -0.350147
   104  C    0.037223
   105  C   -0.019638
   106  C   -0.034700
   107  C    0.089327
   108  C    0.073834
   109  C    0.034877
   110  C   -0.007556
   111  N   -0.324463
   112  C    0.079157
   113  C   -0.163339
   114  C    0.003707
   115  C    0.095591
   116  C    0.131283
   117  C    0.044117
   118  O   -0.186090
   119  C   -0.000822
   120  C    0.209951
   121  O   -0.252736
   122  O   -0.302675
   123  C    0.152687
   124  H   -0.021711
   125  H   -0.016117
   126  H   -0.041080
   127  H    0.006212
   128  H   -0.006803
   129  H    0.035624
   130  H    0.012748
   131  H    0.013900
   132  H    0.012860
   133  H    0.037616
   134  H    0.020765
   135  H    0.017934
   136  H    0.007071
   137  H    0.024423
   138  H    0.038916
   139  H    0.037520
   140  H    0.035817
   141  H    0.033403
   142  H    0.013926
   143  H    0.011657
   144  H    0.024629
   145  H    0.012400
   146  H    0.004585
   147  H    0.005708
   148  H    0.003336
   149  H    0.010727
   150  H    0.017504
   151  H    0.030454
   152  H    0.045924
   153  H    0.007501
   154  H    0.048191
   155  H    0.047182
   156  H    0.043319
   157  H    0.047804
   158  H    0.052612
 Sum of Mulliken charges =  -0.00000

 Dipole moment (field-independent basis, Debye):
    X=             -4.7079    Y=             -3.6642    Z=             -6.0771  Tot=              8.5160
 Quadrupole moment (field-independent basis, Debye-Ang):
   XX=           -513.3876   YY=           -559.5199   ZZ=           -448.9254
   XY=             -1.8777   XZ=             26.3812   YZ=            -35.1701

 Normal termination of Gaussian 16 at Fri Sep 10 03:37:10 2021.
