 Gaussian 16, Revision A.03,
 Gaussian 16:  ES64L-G16RevA.03 25-Dec-2016

 -----------------------------------
 #p cam-b3lyp/Def2SVP td=(nstates=5)
 -----------------------------------

 --------------------------------
 TDDFT excited states in gaussian
 --------------------------------
 Symbolic Z-matrix:
 Charge =  0 Multiplicity = 1

                         Standard orientation:
 ---------------------------------------------------------------------
 Center     Atomic      Atomic             Coordinates (Angstroms)
 Number     Number       Type             X           Y           Z
 ---------------------------------------------------------------------
      1         12           0       -4.149607   -1.458117   -0.229001
      2          6           0       -4.952524    2.005133    0.187452
      3          6           0       -4.881196   -1.076327   -3.539904
      4          6           0       -3.887383   -4.603330   -0.538029
      5          6           0       -4.583850   -1.820343    3.209878
      6          7           0       -4.819395    0.292180   -1.407343
      7          6           0       -5.031892    1.576817   -1.139534
      8          6           0       -5.273025    2.441692   -2.412806
      9          6           0       -5.784109    1.298979   -3.400226
     10          6           0       -5.092922    0.104111   -2.767396
     11          6           0       -7.292452    1.078362   -3.347969
     12          6           0       -3.956198    3.106164   -2.938328
     13          6           0       -4.153208    4.218354   -3.972530
     14          1           0       -3.249430    5.358636   -3.955415
     15          7           0       -3.879980   -2.569109   -1.840165
     16          6           0       -4.223200   -2.249370   -3.111091
     17          6           0       -3.816315   -3.400714   -3.945077
     18          6           0       -3.382028   -4.493594   -3.031237
     19          6           0       -3.728303   -3.934567   -1.749456
     20          6           0       -3.817287   -3.373011   -5.442735
     21          6           0       -2.764161   -5.834062   -3.275196
     22          8           0       -2.679804   -6.721139   -2.358380
     23          6           0       -2.334633   -6.117855   -4.656503
     24          7           0       -4.437173   -3.044188    1.097392
     25          6           0       -4.199327   -4.306704    0.725280
     26          6           0       -4.198120   -5.232725    1.905289
     27          6           0       -4.244678   -4.299148    3.199901
     28          6           0       -4.352929   -2.924204    2.495571
     29          6           0       -5.351364   -6.243981    1.963605
     30          6           0       -3.127252   -4.502076    4.253751
     31          6           0       -1.795468   -4.075071    3.678325
     32          7           0       -4.499591   -0.132867    1.453933
     33          6           0       -4.670964   -0.501613    2.796070
     34          6           0       -4.988216    0.728320    3.544859
     35          6           0       -4.995731    1.731097    2.577271
     36          6           0       -4.727691    1.159485    1.300672
     37          6           0       -5.281496    0.805404    4.934995
     38          6           0       -5.192163    3.148735    2.321196
     39          8           0       -5.352741    4.143765    3.029449
     40          6           0       -5.292463    3.364295    0.746616
     41          6           0       -4.394788    4.516934    0.387573
     42          8           0       -3.155912    4.423773    0.505358
     43          8           0       -5.109005    5.452845   -0.256249
     44          6           0       -4.271465    6.611336   -0.666833
     45          1           0       -5.307502   -1.133982   -4.543338
     46          1           0       -3.695550   -5.677438   -0.581947
     47          1           0       -4.648774   -1.842797    4.299251
     48          1           0       -6.039694    3.208836   -2.302659
     49          1           0       -5.424399    1.449663   -4.417883
     50          1           0       -7.751868    1.655054   -2.545296
     51          1           0       -7.424522    0.010415   -3.173208
     52          1           0       -7.747513    1.281829   -4.317658
     53          1           0       -3.406593    2.385266   -3.543555
     54          1           0       -3.358527    3.486566   -2.109225
     55          1           0       -5.190317    4.553420   -4.004842
     56          1           0       -3.972764    3.799846   -4.962727
     57          1           0       -4.342498   -2.499399   -5.826795
     58          1           0       -4.417483   -4.219241   -5.776453
     59          1           0       -2.811229   -3.450440   -5.855270
     60          1           0       -3.193282   -6.039438   -5.323678
     61          1           0       -1.835543   -7.085668   -4.623375
     62          1           0       -1.629759   -5.348181   -4.972262
     63          1           0       -3.289620   -5.833082    1.930316
     64          1           0       -5.168734   -4.427913    3.764006
     65          1           0       -5.021438   -7.281795    2.016486
     66          1           0       -5.987845   -6.079769    1.094572
     67          1           0       -6.055420   -6.087749    2.780498
     68          1           0       -3.040265   -5.555922    4.516024
     69          1           0       -3.297632   -3.944112    5.174565
     70          1           0       -1.474650   -4.957668    3.126120
     71          1           0       -1.093477   -3.838753    4.478684
     72          1           0       -1.914229   -3.265389    2.958050
     73          1           0       -4.739822    1.672215    5.313408
     74          1           0       -4.983327   -0.105449    5.453690
     75          1           0       -6.363330    0.934499    4.906276
     76          1           0       -6.338170    3.575366    0.525105
     77          1           0       -4.731073    7.505217   -0.244966
     78          1           0       -4.175528    6.555457   -1.751305
     79          1           0       -3.274827    6.665420   -0.227371
     80         12           0        4.715546    0.004974    0.355644
     81          6           0        3.054003    3.182201    0.509270
     82          6           0        4.914723    0.440520   -3.021527
     83          6           0        5.771949   -2.978631    0.133083
     84          6           0        3.388129   -0.685109    3.503251
     85          7           0        4.036525    1.642010   -0.967733
     86          6           0        3.472347    2.827128   -0.790094
     87          6           0        3.422244    3.713022   -2.063761
     88          6           0        3.494695    2.549922   -3.168668
     89          6           0        4.225200    1.484234   -2.354214
     90          6           0        2.131106    2.002962   -3.556991
     91          6           0        4.652746    4.681095   -2.167288
     92          6           0        4.514977    5.786319   -3.216697
     93          1           0        5.095714    7.095046   -2.929569
     94          7           0        5.696034   -0.904223   -1.110849
     95          6           0        5.681758   -0.582087   -2.421306
     96          6           0        6.548321   -1.566917   -3.087153
     97          6           0        6.943784   -2.595712   -2.087198
     98          6           0        6.117688   -2.202285   -0.963417
     99          6           0        6.985813   -1.430956   -4.516674
    100          6           0        7.896990   -3.751122   -2.138592
    101          8           0        7.907065   -4.656574   -1.231465
    102          6           0        8.754039   -3.841453   -3.329720
    103          7           0        4.428139   -1.684065    1.533299
    104          6           0        5.044810   -2.842907    1.242206
    105          6           0        4.909263   -3.832448    2.374819
    106          6           0        4.277120   -3.009056    3.591371
    107          6           0        4.064645   -1.648213    2.892567
    108          6           0        4.043825   -5.058968    2.086593
    109          6           0        5.052021   -3.035814    4.937281
    110          6           0        6.365705   -2.302143    4.791148
    111          7           0        3.606293    1.101862    1.850448
    112          6           0        3.127989    0.614077    3.086326
    113          6           0        2.333842    1.696134    3.703501
    114          6           0        2.386503    2.738596    2.765957
    115          6           0        3.142072    2.327590    1.634721
    116          6           0        1.645568    1.617488    4.946973
    117          6           0        1.965819    4.089491    2.471335
    118          8           0        1.377773    4.971819    3.095387
    119          6           0        2.273236    4.392220    0.941548
    120          6           0        2.954116    5.731020    0.860705
    121          8           0        4.083035    5.896860    1.355307
    122          8           0        2.259848    6.528942    0.029014
    123          6           0        2.902085    7.864820   -0.092498
    124          1           0        4.827144    0.371376   -4.106157
    125          1           0        6.204768   -3.981437    0.156084
    126          1           0        3.023249   -0.787180    4.527513
    127          1           0        2.509465    4.284048   -2.184305
    128          1           0        4.093573    2.853747   -4.023300
    129          1           0        1.343927    2.406142   -2.937375
    130          1           0        2.198284    0.930055   -3.432875
    131          1           0        1.946313    2.172192   -4.621670
    132          1           0        5.506578    4.131584   -2.584134
    133          1           0        4.877288    5.115337   -1.212491
    134          1           0        3.482012    5.893283   -3.569516
    135          1           0        5.073323    5.490053   -4.108052
    136          1           0        6.403462   -0.665673   -5.044510
    137          1           0        6.724507   -2.367314   -5.021477
    138          1           0        8.060792   -1.264929   -4.614215
    139          1           0        8.131198   -3.901186   -4.219082
    140          1           0        9.427559   -4.679957   -3.142201
    141          1           0        9.334837   -2.916140   -3.413817
    142          1           0        5.878193   -4.213012    2.673896
    143          1           0        3.278560   -3.383041    3.861247
    144          1           0        4.579078   -6.015678    2.235883
    145          1           0        3.673343   -4.984700    1.072804
    146          1           0        3.123554   -5.121047    2.664901
    147          1           0        5.299717   -4.064274    5.211292
    148          1           0        4.496016   -2.607180    5.764402
    149          1           0        7.024037   -3.059336    4.354862
    150          1           0        6.731048   -1.973597    5.762041
    151          1           0        6.280636   -1.482965    4.067715
    152          1           0        1.836674    2.546271    5.467891
    153          1           0        1.973857    0.759214    5.529513
    154          1           0        0.617058    1.504744    4.593813
    155          1           0        1.321815    4.383937    0.408343
    156          1           0        2.144025    8.608919    0.170855
    157          1           0        3.313519    7.906275   -1.118532
    158          1           0        3.690197    8.107861    0.610547
 ---------------------------------------------------------------------

 SCF Done:  E(RCAM-B3LYP) =  -4069.81055263     A.U. after   19 cycles

 Excitation energies and oscillator strengths:

 Excited State   1:      Singlet-A      1.6463 eV  753.11 nm  f=0.0346  <S**2>=0.000
     309 -> 315       -0.11528
     310 -> 316        0.12003
     311 -> 313       -0.47465
     312 -> 314        0.49769
 This state for optimization and/or second-order correction.
 Total Energy, E(TD-HF/TD-DFT) =  -4069.75005270
 Copying the excited state density for this state as the 1-particle RhoCI density.

 Excited State   2:      Singlet-A      1.7069 eV  726.38 nm  f=0.6700  <S**2>=0.000
     309 -> 315        0.13213
     310 -> 316        0.12493
     311 -> 313        0.49492
     312 -> 314        0.47214

 Excited State   3:      Singlet-A      2.1807 eV  568.54 nm  f=0.0084  <S**2>=0.000
     309 -> 313        0.35079
     310 -> 314        0.54108
     311 -> 315       -0.14544
     312 -> 316       -0.22608

 Excited State   4:      Singlet-A      2.1970 eV  564.33 nm  f=0.1637  <S**2>=0.000
     309 -> 313        0.53608
     310 -> 314       -0.34589
     311 -> 315       -0.23762
     312 -> 316        0.15421

 Excited State   5:      Singlet-A      2.3471 eV  528.24 nm  f=0.0000  <S**2>=0.000
     312 -> 313        0.70701

 The electronic state is 1-A.
 Alpha  occ. eigenvalues --  -46.87817 -46.87380 -19.26148 -19.25990 -19.18868
 Alpha  occ. eigenvalues --  -19.18831 -19.18794 -19.18470 -19.18080 -19.17546
 Alpha  occ. eigenvalues --  -14.42479 -14.42233 -14.41475 -14.41078 -14.39422
 Alpha  occ. eigenvalues --  -14.39070 -14.38594 -14.38292 -10.38942 -10.38710
 Alpha  occ. eigenvalues --  -10.35467 -10.35154 -10.34303 -10.33719 -10.31530
 Alpha  occ. eigenvalues --  -10.31486 -10.31422 -10.31011 -10.30937 -10.30754
 Alpha  occ. eigenvalues --  -10.30578 -10.30516 -10.30250 -10.30090 -10.30041
 Alpha  occ. eigenvalues --  -10.29937 -10.29909 -10.29639 -10.29595 -10.29280
 Alpha  occ. eigenvalues --  -10.29178 -10.29094 -10.28805 -10.28666 -10.28506
 Alpha  occ. eigenvalues --  -10.28478 -10.28368 -10.28165 -10.28087 -10.27924
 Alpha  occ. eigenvalues --  -10.27788 -10.27757 -10.27672 -10.27598 -10.27566
 Alpha  occ. eigenvalues --  -10.27537 -10.27498 -10.27412 -10.27411 -10.27310
 Alpha  occ. eigenvalues --  -10.27269 -10.27177 -10.27172 -10.27140 -10.27091
 Alpha  occ. eigenvalues --  -10.26816 -10.26538 -10.26490 -10.26442 -10.26297
 Alpha  occ. eigenvalues --  -10.26270 -10.26231 -10.26051 -10.25969 -10.25850
 Alpha  occ. eigenvalues --  -10.25805 -10.25671 -10.25472 -10.25469 -10.25157
 Alpha  occ. eigenvalues --  -10.24852 -10.24819 -10.24805 -10.24560 -10.24524
 Alpha  occ. eigenvalues --  -10.24397  -3.16560  -3.16131  -1.91441  -1.91028
 Alpha  occ. eigenvalues --   -1.91013  -1.90870  -1.90602  -1.90438  -1.16494
 Alpha  occ. eigenvalues --   -1.16281  -1.08525  -1.08131  -1.07232  -1.06727
 Alpha  occ. eigenvalues --   -1.06573  -1.06491  -1.04605  -1.04217  -1.03786
 Alpha  occ. eigenvalues --   -1.03380  -1.03248  -1.02751  -1.02427  -1.01816
 Alpha  occ. eigenvalues --   -0.91960  -0.91635  -0.89565  -0.89240  -0.89232
 Alpha  occ. eigenvalues --   -0.88922  -0.88332  -0.87972  -0.87861  -0.87709
 Alpha  occ. eigenvalues --   -0.87460  -0.87415  -0.87299  -0.86867  -0.85029
 Alpha  occ. eigenvalues --   -0.84759  -0.83986  -0.83628  -0.83001  -0.82704
 Alpha  occ. eigenvalues --   -0.82674  -0.82405  -0.81544  -0.81282  -0.80590
 Alpha  occ. eigenvalues --   -0.80153  -0.78814  -0.78356  -0.77258  -0.76958
 Alpha  occ. eigenvalues --   -0.76899  -0.76640  -0.75920  -0.75560  -0.74924
 Alpha  occ. eigenvalues --   -0.74538  -0.72790  -0.72406  -0.71688  -0.71305
 Alpha  occ. eigenvalues --   -0.69984  -0.69541  -0.68909  -0.68579  -0.67646
 Alpha  occ. eigenvalues --   -0.67305  -0.67278  -0.66969  -0.65320  -0.65006
 Alpha  occ. eigenvalues --   -0.64858  -0.64630  -0.64492  -0.64375  -0.64307
 Alpha  occ. eigenvalues --   -0.63947  -0.62235  -0.61960  -0.60468  -0.60077
 Alpha  occ. eigenvalues --   -0.59839  -0.59539  -0.58999  -0.58700  -0.58504
 Alpha  occ. eigenvalues --   -0.58116  -0.57530  -0.57305  -0.57151  -0.56932
 Alpha  occ. eigenvalues --   -0.56314  -0.55922  -0.55914  -0.55585  -0.55532
 Alpha  occ. eigenvalues --   -0.55344  -0.55180  -0.54963  -0.54499  -0.54202
 Alpha  occ. eigenvalues --   -0.53942  -0.53679  -0.53315  -0.53245  -0.52959
 Alpha  occ. eigenvalues --   -0.52896  -0.52875  -0.52792  -0.52623  -0.52506
 Alpha  occ. eigenvalues --   -0.52448  -0.52180  -0.51889  -0.51652  -0.51520
 Alpha  occ. eigenvalues --   -0.51418  -0.51192  -0.50877  -0.50616  -0.50262
 Alpha  occ. eigenvalues --   -0.50093  -0.49950  -0.49749  -0.49625  -0.49539
 Alpha  occ. eigenvalues --   -0.49241  -0.49202  -0.49116  -0.48915  -0.48801
 Alpha  occ. eigenvalues --   -0.48576  -0.48480  -0.48422  -0.48262  -0.48116
 Alpha  occ. eigenvalues --   -0.48028  -0.47715  -0.47336  -0.47309  -0.46866
 Alpha  occ. eigenvalues --   -0.46829  -0.46596  -0.46452  -0.46375  -0.46321
 Alpha  occ. eigenvalues --   -0.46153  -0.46001  -0.45785  -0.45780  -0.45493
 Alpha  occ. eigenvalues --   -0.45237  -0.44943  -0.44560  -0.44544  -0.44268
 Alpha  occ. eigenvalues --   -0.44185  -0.44175  -0.44126  -0.43992  -0.43860
 Alpha  occ. eigenvalues --   -0.43820  -0.43617  -0.43463  -0.43417  -0.43268
 Alpha  occ. eigenvalues --   -0.43107  -0.43032  -0.42744  -0.42627  -0.42568
 Alpha  occ. eigenvalues --   -0.42556  -0.42314  -0.42054  -0.41721  -0.41696
 Alpha  occ. eigenvalues --   -0.41581  -0.41306  -0.41222  -0.41158  -0.40927
 Alpha  occ. eigenvalues --   -0.40862  -0.40715  -0.40614  -0.40496  -0.40477
 Alpha  occ. eigenvalues --   -0.40318  -0.40241  -0.40018  -0.39535  -0.39216
 Alpha  occ. eigenvalues --   -0.38525  -0.38118  -0.37816  -0.37435  -0.37363
 Alpha  occ. eigenvalues --   -0.37300  -0.37015  -0.36938  -0.36648  -0.36449
 Alpha  occ. eigenvalues --   -0.36157  -0.35941  -0.34300  -0.33962  -0.33648
 Alpha  occ. eigenvalues --   -0.33505  -0.33185  -0.32884  -0.31361  -0.31048
 Alpha  occ. eigenvalues --   -0.31030  -0.30682  -0.29938  -0.29459  -0.29447
 Alpha  occ. eigenvalues --   -0.29309  -0.29041  -0.28852  -0.24097  -0.23740
 Alpha  occ. eigenvalues --   -0.21148  -0.20833
 Alpha virt. eigenvalues --   -0.08785  -0.08488  -0.01774  -0.01411  -0.00069
 Alpha virt. eigenvalues --    0.00253   0.02230   0.02578   0.02949   0.03553
 Alpha virt. eigenvalues --    0.04671   0.04980   0.05216   0.05547   0.06094

 Mulliken charges:
               1
     1  Mg   0.838487
     2  C   -0.002892
     3  C   -0.094777
     4  C   -0.045793
     5  C   -0.064549
     6  N   -0.256516
     7  C   -0.053002
     8  C   -0.013590
     9  C   -0.086853
    10  C    0.045792
    11  C    0.104824
    12  C    0.053603
    13  C   -0.071228
    14  H    0.034940
    15  N   -0.433090
    16  C    0.168065
    17  C   -0.177622
    18  C   -0.004090
    19  C    0.148676
    20  C    0.110299
    21  C    0.012436
    22  O   -0.249531
    23  C    0.062555
    24  N   -0.341045
    25  C    0.041017
    26  C   -0.028216
    27  C   -0.023885
    28  C    0.074916
    29  C    0.076124
    30  C    0.035255
    31  C   -0.004876
    32  N   -0.310657
    33  C    0.080378
    34  C   -0.169856
    35  C    0.009511
    36  C    0.083115
    37  C    0.126810
    38  C    0.048113
    39  O   -0.185655
    40  C   -0.006093
    41  C    0.213844
    42  O   -0.255050
    43  O   -0.305523
    44  C    0.156344
    45  H   -0.017896
    46  H   -0.016919
    47  H   -0.041630
    48  H    0.001494
    49  H   -0.004799
    50  H    0.025771
    51  H    0.016584
    52  H    0.016462
    53  H    0.009614
    54  H    0.043774
    55  H    0.018754
    56  H    0.017004
    57  H    0.005390
    58  H    0.026875
    59  H    0.038493
    60  H    0.037167
    61  H    0.035928
    62  H    0.030923
    63  H    0.016256
    64  H    0.009752
    65  H    0.023218
    66  H    0.012754
    67  H    0.004796
    68  H    0.006349
    69  H    0.004694
    70  H    0.008733
    71  H    0.015497
    72  H    0.030270
    73  H    0.049491
    74  H    0.008415
    75  H    0.046195
    76  H    0.034975
    77  H    0.043330
    78  H    0.044506
    79  H    0.057270
    80  Mg   0.836725
    81  C   -0.015896
    82  C   -0.088230
    83  C   -0.045756
    84  C   -0.065692
    85  N   -0.254204
    86  C   -0.049627
    87  C   -0.014836
    88  C   -0.090632
    89  C    0.045246
    90  C    0.113674
    91  C    0.062706
    92  C   -0.077093
    93  H    0.034231
    94  N   -0.423295
    95  C    0.162245
    96  C   -0.175694
    97  C   -0.008436
    98  C    0.151578
    99  C    0.099828
   100  C    0.015031
   101  O   -0.253840
   102  C    0.061460
   103  N   -0.350198
   104  C    0.037272
   105  C   -0.019664
   106  C   -0.034713
   107  C    0.089618
   108  C    0.073547
   109  C    0.034832
   110  C   -0.007507
   111  N   -0.324663
   112  C    0.079007
   113  C   -0.162933
   114  C    0.005036
   115  C    0.095029
   116  C    0.130858
   117  C    0.048301
   118  O   -0.182766
   119  C   -0.001611
   120  C    0.210456
   121  O   -0.252428
   122  O   -0.304423
   123  C    0.152481
   124  H   -0.021495
   125  H   -0.016185
   126  H   -0.041289
   127  H    0.000343
   128  H   -0.005545
   129  H    0.025339
   130  H    0.013523
   131  H    0.013255
   132  H    0.013532
   133  H    0.037980
   134  H    0.019866
   135  H    0.018750
   136  H    0.007621
   137  H    0.024729
   138  H    0.038942
   139  H    0.037588
   140  H    0.035681
   141  H    0.033520
   142  H    0.013793
   143  H    0.011686
   144  H    0.024507
   145  H    0.012706
   146  H    0.005272
   147  H    0.005594
   148  H    0.002931
   149  H    0.010789
   150  H    0.017434
   151  H    0.030574
   152  H    0.046234
   153  H    0.006158
   154  H    0.051229
   155  H    0.045596
   156  H    0.043060
   157  H    0.047949
   158  H    0.053105
 Sum of Mulliken charges =  -0.00000

 Dipole moment (field-independent basis, Debye):
    X=             -2.0840    Y=             -1.9176    Z=             -7.8451  Tot=              8.3406
 Quadrupole moment (field-independent basis, Debye-Ang):
   XX=           -510.1073   YY=           -539.9706   ZZ=           -456.9666
   XY=             14.7334   XZ=              0.5787   YZ=            -52.8712

 Normal termination of Gaussian 16 at Fri Sep 10 03:29:19 2021.
