 Gaussian 16, Revision A.03,
 Gaussian 16:  ES64L-G16RevA.03 25-Dec-2016

 -----------------------------------
 #p cam-b3lyp/Def2SVP td=(nstates=5)
 -----------------------------------

 --------------------------------
 TDDFT excited states in gaussian
 --------------------------------
 Symbolic Z-matrix:
 Charge =  0 Multiplicity = 1

                         Standard orientation:
 ---------------------------------------------------------------------
 Center     Atomic      Atomic             Coordinates (Angstroms)
 Number     Number       Type             X           Y           Z
 ---------------------------------------------------------------------
      1         12           0        6.476816    0.829708    0.437931
      2          6           0        7.115777   -2.314493   -1.148872
      3          6           0        7.184879    2.313707   -2.551962
      4          6           0        6.363067    3.628906    1.923923
      5          6           0        6.932537   -0.786315    3.491855
      6          7           0        7.061489   -0.001884   -1.528604
      7          6           0        7.213425   -1.227525   -2.020428
      8          6           0        7.411626   -1.253020   -3.565562
      9          6           0        7.974742    0.224301   -3.771528
     10          6           0        7.341680    0.895871   -2.565647
     11          6           0        9.491897    0.320850   -3.647349
     12          6           0        6.064132   -1.464862   -4.334402
     13          6           0        6.206911   -1.826678   -5.815637
     14          1           0        5.250288   -2.750492   -6.406220
     15          7           0        6.257716    2.655524   -0.284039
     16          6           0        6.583652    3.078595   -1.529054
     17          6           0        6.230449    4.513725   -1.577337
     18          6           0        5.849578    4.935153   -0.200591
     19          6           0        6.170857    3.747930    0.549515
     20          6           0        6.228001    5.318439   -2.840737
     21          6           0        5.295397    6.209735    0.352994
     22          8           0        5.254343    6.444688    1.609053
     23          6           0        4.877812    7.226063   -0.629729
     24          7           0        6.840875    1.405801    2.411054
     25          6           0        6.662427    2.671657    2.804436
     26          6           0        6.706641    2.790344    4.299058
     27          6           0        6.710858    1.295799    4.861261
     28          6           0        6.753026    0.536344    3.512291
     29          6           0        7.906462    3.555427    4.874462
     30          6           0        5.605756    0.925357    5.882016
     31          6           0        4.254473    0.939358    5.203095
     32          7           0        6.766161   -1.217242    1.099234
     33          6           0        6.956657   -1.658741    2.416604
     34          6           0        7.216493   -3.108741    2.352947
     35          6           0        7.175253   -3.408981    0.992800
     36          6           0        6.932723   -2.217165    0.251824
     37          6           0        7.507763   -3.952613    3.460863
     38          6           0        7.304118   -4.455148   -0.008592
     39          8           0        7.418498   -5.681148    0.027928
     40          6           0        7.391901   -3.768135   -1.442514
     41          6           0        6.440259   -4.494554   -2.353558
     42          8           0        5.207336   -4.434286   -2.170160
     43          8           0        7.108546   -4.945367   -3.426266
     44          6           0        6.216622   -5.650490   -4.385134
     45          1           0        7.612019    2.899883   -3.367983
     46          1           0        6.222141    4.554739    2.485538
     47          1           0        6.999985   -1.372267    4.410312
     48          1           0        8.141343   -1.982113   -3.918209
     49          1           0        7.606880    0.675245   -4.692966
     50          1           0        9.924681   -0.620625   -3.309349
     51          1           0        9.674528    1.108178   -2.915739
     52          1           0        9.935468    0.669891   -4.580189
     53          1           0        5.548353   -0.508996   -4.425788
     54          1           0        5.450324   -2.216738   -3.837162
     55          1           0        7.226983   -2.127778   -6.055848
     56          1           0        6.045048   -0.924001   -6.404853
     57          1           0        6.710803    4.783204   -3.657419
     58          1           0        6.867041    6.184184   -2.668047
     59          1           0        5.226145    5.649753   -3.114321
     60          1           0        5.730855    7.496413   -1.252447
     61          1           0        4.425058    8.032682   -0.054204
     62          1           0        4.136912    6.787079   -1.298541
     63          1           0        5.827560    3.311351    4.676145
     64          1           0        7.640761    1.055520    5.377228
     65          1           0        7.626019    4.402871    5.500477
     66          1           0        8.533247    3.874506    4.042224
     67          1           0        8.603500    2.946665    5.449758
     68          1           0        5.569033    1.661032    6.684749
     69          1           0        5.750879   -0.054671    6.336698
     70          1           0        3.974940    1.991693    5.238920
     71          1           0        3.543229    0.327341    5.758772
     72          1           0        4.333827    0.658869    4.152611
     73          1           0        6.926269   -4.862454    3.312461
     74          1           0        7.253699   -3.469557    4.404108
     75          1           0        8.582247   -4.085963    3.336135
     76          1           0        8.426153   -3.861768   -1.772175
     77          1           0        6.634074   -6.645533   -4.539594
     78          1           0        6.121905   -5.000841   -5.255415
     79          1           0        5.219163   -5.899951   -4.021564
     80         12           0       -6.642714   -0.924347    0.336981
     81          6           0       -6.819613    2.063413   -1.643184
     82          6           0       -6.047990    1.077179    3.034167
     83          6           0       -6.035349   -3.543600    2.021644
     84          6           0       -6.112605   -2.687788   -2.621899
     85          7           0       -6.479106    1.271853    0.542348
     86          6           0       -6.625778    2.309315   -0.267901
     87          6           0       -6.641254    3.686890    0.447362
     88          6           0       -5.830638    3.279035    1.772290
     89          6           0       -6.163427    1.788989    1.813464
     90          6           0       -4.325363    3.428388    1.626743
     91          6           0       -8.095602    4.166843    0.788702
     92          6           0       -8.206984    5.634867    1.206140
     93          1           0       -9.395544    6.383658    0.807244
     94          7           0       -6.604194   -1.208053    2.300807
     95          6           0       -6.370278   -0.280308    3.252567
     96          6           0       -6.430479   -0.996633    4.536082
     97          6           0       -6.555531   -2.452720    4.255209
     98          6           0       -6.378407   -2.459904    2.816927
     99          6           0       -6.449223   -0.291680    5.861265
    100          6           0       -6.782540   -3.643228    5.136892
    101          8           0       -6.619444   -4.839886    4.707662
    102          6           0       -7.110504   -3.364840    6.542747
    103          7           0       -5.936512   -2.807456   -0.189843
    104          6           0       -5.813493   -3.781574    0.728795
    105          6           0       -5.553898   -5.117973    0.075317
    106          6           0       -5.769446   -4.879289   -1.491252
    107          6           0       -6.041001   -3.358919   -1.480580
    108          6           0       -4.167558   -5.716427    0.312663
    109          6           0       -6.786472   -5.806749   -2.211078
    110          6           0       -8.186064   -5.519945   -1.716851
    111          7           0       -6.671748   -0.464952   -1.773975
    112          6           0       -6.395952   -1.345982   -2.842535
    113          6           0       -6.428325   -0.547211   -4.084838
    114          6           0       -6.700138    0.757820   -3.647205
    115          6           0       -6.808123    0.775046   -2.230333
    116          6           0       -6.175129   -1.038509   -5.396574
    117          6           0       -6.909730    2.126647   -4.060804
    118          8           0       -7.020205    2.699623   -5.143956
    119          6           0       -6.871087    3.055629   -2.771659
    120          6           0       -8.051759    3.985521   -2.833680
    121          8           0       -9.210850    3.541288   -2.757602
    122          8           0       -7.616574    5.256182   -2.753633
    123          6           0       -8.752075    6.215504   -2.799860
    124          1           0       -5.631429    1.594391    3.898954
    125          1           0       -5.923878   -4.496012    2.545049
    126          1           0       -6.054221   -3.181677   -3.594182
    127          1           0       -6.120118    4.477754   -0.078694
    128          1           0       -6.228255    3.782916    2.649418
    129          1           0       -4.040759    3.672441    0.614033
    130          1           0       -3.905550    2.474551    1.918294
    131          1           0       -3.947299    4.157501    2.349106
    132          1           0       -8.423993    3.682089    1.717097
    133          1           0       -8.762765    3.971868   -0.028307
    134          1           0       -7.298275    6.201112    0.968323
    135          1           0       -8.274456    5.681640    2.295760
    136          1           0       -6.178576    0.766372    5.757912
    137          1           0       -5.641219   -0.721161    6.463385
    138          1           0       -7.393875   -0.420946    6.393807
    139          1           0       -6.309495   -2.782571    6.991971
    140          1           0       -7.324530   -4.337056    6.990940
    141          1           0       -8.010048   -2.740025    6.575035
    142          1           0       -6.263614   -5.860662    0.418564
    143          1           0       -4.838614   -5.028282   -2.057980
    144          1           0       -4.199375   -6.725040    0.766262
    145          1           0       -3.604491   -5.036020    0.937590
    146          1           0       -3.538807   -5.790660   -0.572979
    147          1           0       -6.580831   -6.852815   -1.971028
    148          1           0       -6.765597   -5.714234   -3.291821
    149          1           0       -8.247429   -6.106592   -0.795353
    150          1           0       -8.924504   -5.849948   -2.444752
    151          1           0       -8.298367   -4.464287   -1.443645
    152          1           0       -6.925799   -0.602856   -6.042484
    153          1           0       -6.205969   -2.125661   -5.426766
    154          1           0       -5.165332   -0.651861   -5.558114
    155          1           0       -5.923557    3.595596   -2.785251
    156          1           0       -8.552010    6.907944   -3.623378
    157          1           0       -8.819767    6.647478   -1.783699
    158          1           0       -9.724401    5.828064   -3.080790
 ---------------------------------------------------------------------

 SCF Done:  E(RCAM-B3LYP) =  -4069.81188991     A.U. after   19 cycles

 Excitation energies and oscillator strengths:

 Excited State   1:      Singlet-A      1.6708 eV  742.08 nm  f=0.1892  <S**2>=0.000
     310 -> 316        0.14402
     311 -> 313        0.37868
     312 -> 314        0.57238
 This state for optimization and/or second-order correction.
 Total Energy, E(TD-HF/TD-DFT) =  -4069.75049065
 Copying the excited state density for this state as the 1-particle RhoCI density.

 Excited State   2:      Singlet-A      1.6832 eV  736.58 nm  f=0.5460  <S**2>=0.000
     309 -> 315        0.14701
     311 -> 313        0.57162
     312 -> 314       -0.37822

 Excited State   3:      Singlet-A      2.1852 eV  567.39 nm  f=0.0793  <S**2>=0.000
     309 -> 313        0.13784
     310 -> 314        0.62796
     312 -> 316       -0.26595

 Excited State   4:      Singlet-A      2.1929 eV  565.39 nm  f=0.1164  <S**2>=0.000
     309 -> 313        0.62578
     310 -> 314       -0.13686
     311 -> 315       -0.27185

 Excited State   5:      Singlet-A      2.6506 eV  467.75 nm  f=0.0000  <S**2>=0.000
     312 -> 313        0.70710

 The electronic state is 1-A.
 Alpha  occ. eigenvalues --  -46.87855 -46.87556 -19.26327 -19.26312 -19.19114
 Alpha  occ. eigenvalues --  -19.19067 -19.18887 -19.18614 -19.18218 -19.17983
 Alpha  occ. eigenvalues --  -14.42503 -14.42396 -14.41512 -14.41246 -14.39461
 Alpha  occ. eigenvalues --  -14.39249 -14.38644 -14.38500 -10.39126 -10.39042
 Alpha  occ. eigenvalues --  -10.35519 -10.35292 -10.34438 -10.34162 -10.31732
 Alpha  occ. eigenvalues --  -10.31719 -10.31454 -10.31216 -10.30959 -10.30926
 Alpha  occ. eigenvalues --  -10.30623 -10.30569 -10.30297 -10.30273 -10.30268
 Alpha  occ. eigenvalues --  -10.30019 -10.29987 -10.29777 -10.29688 -10.29330
 Alpha  occ. eigenvalues --  -10.29312 -10.29308 -10.28785 -10.28639 -10.28599
 Alpha  occ. eigenvalues --  -10.28554 -10.28419 -10.28309 -10.28151 -10.28050
 Alpha  occ. eigenvalues --  -10.27908 -10.27847 -10.27778 -10.27642 -10.27586
 Alpha  occ. eigenvalues --  -10.27568 -10.27535 -10.27518 -10.27458 -10.27387
 Alpha  occ. eigenvalues --  -10.27380 -10.27371 -10.27367 -10.27212 -10.27206
 Alpha  occ. eigenvalues --  -10.26985 -10.26732 -10.26625 -10.26477 -10.26324
 Alpha  occ. eigenvalues --  -10.26291 -10.26265 -10.26081 -10.26006 -10.25924
 Alpha  occ. eigenvalues --  -10.25892 -10.25824 -10.25780 -10.25516 -10.25165
 Alpha  occ. eigenvalues --  -10.24886 -10.24851 -10.24816 -10.24782 -10.24616
 Alpha  occ. eigenvalues --  -10.24577  -3.16598  -3.16305  -1.91480  -1.91188
 Alpha  occ. eigenvalues --   -1.91066  -1.90908  -1.90776  -1.90613  -1.16676
 Alpha  occ. eigenvalues --   -1.16604  -1.08675  -1.08595  -1.07290  -1.06899
 Alpha  occ. eigenvalues --   -1.06865  -1.06688  -1.04634  -1.04397  -1.03821
 Alpha  occ. eigenvalues --   -1.03559  -1.03292  -1.02930  -1.02470  -1.02006
 Alpha  occ. eigenvalues --   -0.92025  -0.91898  -0.89595  -0.89379  -0.89226
 Alpha  occ. eigenvalues --   -0.89062  -0.88363  -0.88086  -0.87922  -0.87725
 Alpha  occ. eigenvalues --   -0.87707  -0.87582  -0.87329  -0.87026  -0.85026
 Alpha  occ. eigenvalues --   -0.84909  -0.84018  -0.83745  -0.83034  -0.82827
 Alpha  occ. eigenvalues --   -0.82699  -0.82562  -0.81636  -0.81525  -0.80650
 Alpha  occ. eigenvalues --   -0.80358  -0.78850  -0.78542  -0.77277  -0.77050
 Alpha  occ. eigenvalues --   -0.76983  -0.76803  -0.75969  -0.75756  -0.74967
 Alpha  occ. eigenvalues --   -0.74665  -0.72831  -0.72600  -0.71728  -0.71468
 Alpha  occ. eigenvalues --   -0.69997  -0.69626  -0.68920  -0.68738  -0.67698
 Alpha  occ. eigenvalues --   -0.67505  -0.67262  -0.67117  -0.65332  -0.65187
 Alpha  occ. eigenvalues --   -0.64910  -0.64678  -0.64675  -0.64565  -0.64341
 Alpha  occ. eigenvalues --   -0.64083  -0.62350  -0.62205  -0.60503  -0.60234
 Alpha  occ. eigenvalues --   -0.59848  -0.59707  -0.59046  -0.58890  -0.58561
 Alpha  occ. eigenvalues --   -0.58329  -0.57635  -0.57486  -0.57373  -0.57130
 Alpha  occ. eigenvalues --   -0.56363  -0.56116  -0.56024  -0.55819  -0.55576
 Alpha  occ. eigenvalues --   -0.55409  -0.55371  -0.55138  -0.54588  -0.54386
 Alpha  occ. eigenvalues --   -0.53934  -0.53826  -0.53359  -0.53271  -0.53130
 Alpha  occ. eigenvalues --   -0.53056  -0.52971  -0.52819  -0.52808  -0.52578
 Alpha  occ. eigenvalues --   -0.52531  -0.52282  -0.51967  -0.51806  -0.51660
 Alpha  occ. eigenvalues --   -0.51577  -0.51253  -0.51114  -0.50628  -0.50377
 Alpha  occ. eigenvalues --   -0.50107  -0.49974  -0.49882  -0.49734  -0.49564
 Alpha  occ. eigenvalues --   -0.49397  -0.49266  -0.49138  -0.49119  -0.49019
 Alpha  occ. eigenvalues --   -0.48643  -0.48530  -0.48504  -0.48477  -0.48258
 Alpha  occ. eigenvalues --   -0.48234  -0.47750  -0.47499  -0.47353  -0.47011
 Alpha  occ. eigenvalues --   -0.46857  -0.46606  -0.46597  -0.46463  -0.46419
 Alpha  occ. eigenvalues --   -0.46222  -0.46169  -0.45977  -0.45871  -0.45743
 Alpha  occ. eigenvalues --   -0.45274  -0.45065  -0.44630  -0.44565  -0.44430
 Alpha  occ. eigenvalues --   -0.44384  -0.44212  -0.44133  -0.44071  -0.44039
 Alpha  occ. eigenvalues --   -0.43973  -0.43855  -0.43547  -0.43478  -0.43440
 Alpha  occ. eigenvalues --   -0.43287  -0.43083  -0.42867  -0.42805  -0.42766
 Alpha  occ. eigenvalues --   -0.42721  -0.42433  -0.42079  -0.41861  -0.41760
 Alpha  occ. eigenvalues --   -0.41579  -0.41577  -0.41365  -0.41195  -0.40924
 Alpha  occ. eigenvalues --   -0.40887  -0.40882  -0.40642  -0.40629  -0.40603
 Alpha  occ. eigenvalues --   -0.40368  -0.40268  -0.40149  -0.39537  -0.39297
 Alpha  occ. eigenvalues --   -0.38541  -0.38218  -0.37788  -0.37572  -0.37389
 Alpha  occ. eigenvalues --   -0.37307  -0.37152  -0.37108  -0.36768  -0.36705
 Alpha  occ. eigenvalues --   -0.36251  -0.36109  -0.34343  -0.34153  -0.33820
 Alpha  occ. eigenvalues --   -0.33804  -0.33244  -0.33074  -0.31417  -0.31171
 Alpha  occ. eigenvalues --   -0.31093  -0.30871  -0.30077  -0.29890  -0.29507
 Alpha  occ. eigenvalues --   -0.29376  -0.29231  -0.29121  -0.24138  -0.23933
 Alpha  occ. eigenvalues --   -0.21185  -0.21014
 Alpha virt. eigenvalues --   -0.08831  -0.08694  -0.01811  -0.01575  -0.00116
 Alpha virt. eigenvalues --    0.00065   0.02144   0.02294   0.03053   0.03322
 Alpha virt. eigenvalues --    0.04670   0.04828   0.05052   0.05217   0.06143

 Mulliken charges:
               1
     1  Mg   0.838631
     2  C   -0.002915
     3  C   -0.093773
     4  C   -0.046130
     5  C   -0.064021
     6  N   -0.256776
     7  C   -0.052377
     8  C   -0.014034
     9  C   -0.087025
    10  C    0.046275
    11  C    0.104761
    12  C    0.053356
    13  C   -0.071919
    14  H    0.036223
    15  N   -0.433155
    16  C    0.168358
    17  C   -0.176950
    18  C   -0.004131
    19  C    0.148643
    20  C    0.110062
    21  C    0.011994
    22  O   -0.250142
    23  C    0.062539
    24  N   -0.341110
    25  C    0.041241
    26  C   -0.028135
    27  C   -0.023904
    28  C    0.074694
    29  C    0.076184
    30  C    0.035201
    31  C   -0.004419
    32  N   -0.310499
    33  C    0.080366
    34  C   -0.169680
    35  C    0.008435
    36  C    0.082938
    37  C    0.127314
    38  C    0.046129
    39  O   -0.188289
    40  C   -0.005331
    41  C    0.212922
    42  O   -0.257240
    43  O   -0.304703
    44  C    0.157728
    45  H   -0.017324
    46  H   -0.017142
    47  H   -0.041554
    48  H    0.001028
    49  H   -0.003716
    50  H    0.025491
    51  H    0.016400
    52  H    0.016896
    53  H    0.011421
    54  H    0.043967
    55  H    0.017914
    56  H    0.018316
    57  H    0.006199
    58  H    0.026897
    59  H    0.039911
    60  H    0.037677
    61  H    0.035274
    62  H    0.031640
    63  H    0.015986
    64  H    0.009584
    65  H    0.022964
    66  H    0.012768
    67  H    0.004847
    68  H    0.006051
    69  H    0.004930
    70  H    0.008042
    71  H    0.017718
    72  H    0.029291
    73  H    0.047707
    74  H    0.009032
    75  H    0.046100
    76  H    0.035300
    77  H    0.043030
    78  H    0.046566
    79  H    0.053449
    80  Mg   0.838115
    81  C   -0.017041
    82  C   -0.087893
    83  C   -0.045222
    84  C   -0.064380
    85  N   -0.254601
    86  C   -0.049893
    87  C   -0.015103
    88  C   -0.090499
    89  C    0.045861
    90  C    0.114344
    91  C    0.062552
    92  C   -0.077754
    93  H    0.034496
    94  N   -0.423585
    95  C    0.163113
    96  C   -0.174555
    97  C   -0.007632
    98  C    0.152239
    99  C    0.099355
   100  C    0.015609
   101  O   -0.252809
   102  C    0.061211
   103  N   -0.350021
   104  C    0.037983
   105  C   -0.020194
   106  C   -0.034708
   107  C    0.088923
   108  C    0.073064
   109  C    0.034672
   110  C   -0.007620
   111  N   -0.324047
   112  C    0.078382
   113  C   -0.163236
   114  C    0.001941
   115  C    0.096263
   116  C    0.131559
   117  C    0.042053
   118  O   -0.188713
   119  C    0.001029
   120  C    0.211185
   121  O   -0.251038
   122  O   -0.305752
   123  C    0.152123
   124  H   -0.019637
   125  H   -0.015132
   126  H   -0.040496
   127  H   -0.000997
   128  H   -0.004459
   129  H    0.022102
   130  H    0.014927
   131  H    0.016583
   132  H    0.013922
   133  H    0.037528
   134  H    0.020696
   135  H    0.019624
   136  H    0.008705
   137  H    0.026168
   138  H    0.039612
   139  H    0.038205
   140  H    0.036379
   141  H    0.033692
   142  H    0.014167
   143  H    0.013225
   144  H    0.025338
   145  H    0.012675
   146  H    0.007337
   147  H    0.006547
   148  H    0.003367
   149  H    0.010951
   150  H    0.017554
   151  H    0.029863
   152  H    0.045565
   153  H    0.008556
   154  H    0.046620
   155  H    0.034508
   156  H    0.043478
   157  H    0.049545
   158  H    0.053508
 Sum of Mulliken charges =  -0.00000

 Dipole moment (field-independent basis, Debye):
    X=              3.5286    Y=              4.3450    Z=              1.1530  Tot=              5.7148
 Quadrupole moment (field-independent basis, Debye-Ang):
   XX=           -520.8253   YY=           -524.5180   ZZ=           -473.5924
   XY=             15.2810   XZ=            -51.9463   YZ=             22.4262

 Normal termination of Gaussian 16 at Sat Sep  4 09:03:55 2021.
