 Gaussian 16, Revision A.03,
 Gaussian 16:  ES64L-G16RevA.03 25-Dec-2016

 -----------------------------------
 #p cam-b3lyp/Def2SVP td=(nstates=5)
 -----------------------------------

 --------------------------------
 TDDFT excited states in gaussian
 --------------------------------
 Symbolic Z-matrix:
 Charge =  0 Multiplicity = 1

                         Standard orientation:
 ---------------------------------------------------------------------
 Center     Atomic      Atomic             Coordinates (Angstroms)
 Number     Number       Type             X           Y           Z
 ---------------------------------------------------------------------
      1         12           0       -5.035952   -1.328920    0.134412
      2          6           0       -6.146046    2.073796    0.172169
      3          6           0       -5.977749   -1.443806   -3.143222
      4          6           0       -4.488184   -4.451799    0.199208
      5          6           0       -5.247864   -1.281976    3.612709
      6          7           0       -5.933957    0.188237   -1.204418
      7          6           0       -6.254832    1.472627   -1.083779
      8          6           0       -6.646395    2.141208   -2.435464
      9          6           0       -7.097024    0.839817   -3.238778
     10          6           0       -6.260690   -0.197194   -2.510028
     11          6           0       -8.572018    0.494414   -3.061031
     12          6           0       -5.430028    2.846927   -3.124044
     13          6           0       -5.788783    3.794518   -4.272399
     14          1           0       -4.999744    5.003365   -4.455300
     15          7           0       -4.747213   -2.609911   -1.341577
     16          6           0       -5.187467   -2.488518   -2.617009
     17          6           0       -4.716674   -3.696951   -3.327449
     18          6           0       -4.130424   -4.619869   -2.316199
     19          6           0       -4.459726   -3.933315   -1.093259
     20          6           0       -4.800750   -3.862757   -4.813783
     21          6           0       -3.399989   -5.920246   -2.432884
     22          8           0       -3.181240   -6.670664   -1.421155
     23          6           0       -3.019870   -6.340387   -3.793778
     24          7           0       -5.097348   -2.750001    1.662285
     25          6           0       -4.759017   -4.023732    1.433977
     26          6           0       -4.605013   -4.786083    2.716569
     27          6           0       -4.671916   -3.701273    3.886383
     28          6           0       -4.950115   -2.443744    3.026443
     29          6           0       -5.650401   -5.879976    2.974584
     30          6           0       -3.485138   -3.666377    4.881751
     31          6           0       -2.233651   -3.200296    4.172069
     32          7           0       -5.421393    0.165784    1.660301
     33          6           0       -5.484023   -0.040631    3.045994
     34          6           0       -5.877897    1.242415    3.656507
     35          6           0       -6.034175    2.107398    2.575199
     36          6           0       -5.781135    1.402118    1.364066
     37          6           0       -6.102166    1.471663    5.042718
     38          6           0       -6.380064    3.457035    2.159630
     39          8           0       -6.597715    4.516797    2.748719
     40          6           0       -6.585132    3.458009    0.580462
     41          6           0       -5.823553    4.630023    0.023964
     42          8           0       -4.576941    4.663460    0.070947
     43          8           0       -6.658358    5.407808   -0.682218
     44          6           0       -5.959879    6.573604   -1.286535
     45          1           0       -6.449768   -1.668056   -4.101790
     46          1           0       -4.196154   -5.501234    0.275650
     47          1           0       -5.251715   -1.169487    4.698427
     48          1           0       -7.476540    2.844845   -2.370814
     49          1           0       -6.808724    0.889457   -4.288607
     50          1           0       -9.041205    1.126579   -2.307273
     51          1           0       -8.590757   -0.549570   -2.747600
     52          1           0       -9.096020    0.529853   -4.016512
     53          1           0       -4.846674    2.105818   -3.670411
     54          1           0       -4.828226    3.382715   -2.389135
     55          1           0       -6.853635    4.028975   -4.277801
     56          1           0       -5.622208    3.269579   -5.213085
     57          1           0       -5.427739   -3.096192   -5.267443
     58          1           0       -5.333469   -4.794982   -5.000537
     59          1           0       -3.815532   -3.902874   -5.278614
     60          1           0       -3.916665   -6.425373   -4.407851
     61          1           0       -2.428591   -7.247559   -3.674280
     62          1           0       -2.410601   -5.558189   -4.247548
     63          1           0       -3.642754   -5.294941    2.755905
     64          1           0       -5.547581   -3.837966    4.521362
     65          1           0       -5.219430   -6.868794    3.133356
     66          1           0       -6.345516   -5.886477    2.135498
     67          1           0       -6.321361   -5.683021    3.810310
     68          1           0       -3.282824   -4.665656    5.265751
     69          1           0       -3.658905   -3.011754    5.735873
     70          1           0       -1.859219   -4.114633    3.713135
     71          1           0       -1.515797   -2.801234    4.889457
     72          1           0       -2.468563   -2.504041    3.366755
     73          1           0       -5.627198    2.424768    5.275023
     74          1           0       -5.690002    0.665465    5.649158
     75          1           0       -7.191385    1.499175    5.069210
     76          1           0       -7.656716    3.544844    0.403572
     77          1           0       -6.480341    7.469929   -0.948963
     78          1           0       -5.917377    6.387141   -2.359768
     79          1           0       -4.950966    6.772380   -0.923324
     80         12           0        5.200710    1.379347   -0.066745
     81          6           0        5.906811   -2.119887   -0.435332
     82          6           0        4.527954    0.745141    3.216518
     83          6           0        4.140287    4.358881    0.188727
     84          6           0        4.815409    1.524204   -3.527417
     85          7           0        5.247554   -0.486873    1.119559
     86          6           0        5.590419   -1.744939    0.887072
     87          6           0        5.672275   -2.634387    2.156613
     88          6           0        4.683007   -1.794693    3.102713
     89          6           0        4.850677   -0.415352    2.468704
     90          6           0        3.226853   -2.208193    2.968624
     91          6           0        7.122850   -2.694535    2.751786
     92          6           0        7.341645   -3.784065    3.803840
     93          1           0        8.638892   -4.452730    3.853986
     94          7           0        4.917641    2.508386    1.540640
     95          6           0        4.679771    2.085998    2.800121
     96          6           0        4.523288    3.304006    3.610141
     97          6           0        4.524479    4.478507    2.696216
     98          6           0        4.506235    3.811514    1.409797
     99          6           0        4.470793    3.282447    5.110206
    100          6           0        4.527020    5.957307    2.939809
    101          8           0        4.286953    6.794973    1.999853
    102          6           0        4.726442    6.392400    4.329919
    103          7           0        4.362319    2.699860   -1.436290
    104          6           0        4.037607    3.954325   -1.077417
    105          6           0        3.712021    4.800250   -2.285226
    106          6           0        4.121810    3.915247   -3.552675
    107          6           0        4.548993    2.619395   -2.829031
    108          6           0        2.252811    5.235253   -2.418933
    109          6           0        5.108332    4.554419   -4.568018
    110          6           0        6.467715    4.725460   -3.929108
    111          7           0        5.509013    0.027835   -1.723980
    112          6           0        5.260798    0.283206   -3.090454
    113          6           0        5.512934   -0.975582   -3.821412
    114          6           0        5.870933   -1.889330   -2.818719
    115          6           0        5.824254   -1.250769   -1.550026
    116          6           0        5.354694   -1.169927   -5.222594
    117          6           0        6.267405   -3.251673   -2.543895
    118          8           0        6.555549   -4.228581   -3.234086
    119          6           0        6.185711   -3.495116   -0.975317
    120          6           0        7.457308   -4.172748   -0.543586
    121          8           0        8.547872   -3.580472   -0.623987
    122          8           0        7.152065   -5.318889    0.091675
    123          6           0        8.380392   -6.021839    0.548745
    124          1           0        4.075899    0.619068    4.200709
    125          1           0        3.872561    5.417862    0.207985
    126          1           0        4.812257    1.513053   -4.619447
    127          1           0        5.298022   -3.643116    2.029442
    128          1           0        5.032928   -1.786444    4.131718
    129          1           0        3.082184   -2.920313    2.169809
    130          1           0        2.679628   -1.296719    2.766631
    131          1           0        2.850739   -2.579613    3.926185
    132          1           0        7.294724   -1.802005    3.367073
    133          1           0        7.851269   -2.794868    1.970777
    134          1           0        6.529101   -4.520734    3.809472
    135          1           0        7.293882   -3.324768    4.794181
    136          1           0        4.325920    2.264689    5.493058
    137          1           0        3.561011    3.815985    5.406025
    138          1           0        5.332541    3.771991    5.568912
    139          1           0        3.946766    5.966557    4.956989
    140          1           0        4.786607    7.481719    4.289417
    141          1           0        5.677741    5.985657    4.690762
    142          1           0        4.297768    5.711287   -2.288559
    143          1           0        3.248191    3.657477   -4.169264
    144          1           0        2.128458    6.332904   -2.480390
    145          1           0        1.699394    4.836287   -1.579241
    146          1           0        1.720577    4.811372   -3.268786
    147          1           0        4.768724    5.554746   -4.847626
    148          1           0        5.215831    3.983078   -5.483993
    149          1           0        6.365697    5.666296   -3.380013
    150          1           0        7.242610    4.794498   -4.689896
    151          1           0        6.659829    3.934460   -3.194893
    152          1           0        6.213253   -1.736870   -5.557204
    153          1           0        5.274127   -0.221140   -5.748980
    154          1           0        4.414993   -1.728514   -5.237136
    155          1           0        5.307459   -4.113213   -0.785024
    156          1           0        8.345707   -7.031696    0.128411
    157          1           0        8.381412   -5.935032    1.651567
    158          1           0        9.331452   -5.667243    0.169020
 ---------------------------------------------------------------------

 SCF Done:  E(RCAM-B3LYP) =  -4069.81166460     A.U. after   19 cycles

 Excitation energies and oscillator strengths:

 Excited State   1:      Singlet-A      1.6573 eV  748.10 nm  f=0.0051  <S**2>=0.000
     309 -> 315        0.11201
     310 -> 316        0.12718
     311 -> 313        0.45349
     312 -> 314        0.51627
 This state for optimization and/or second-order correction.
 Total Energy, E(TD-HF/TD-DFT) =  -4069.75075888
 Copying the excited state density for this state as the 1-particle RhoCI density.

 Excited State   2:      Singlet-A      1.6974 eV  730.44 nm  f=0.7153  <S**2>=0.000
     309 -> 315        0.13529
     310 -> 316       -0.11842
     311 -> 313        0.51434
     312 -> 314       -0.45184

 Excited State   3:      Singlet-A      2.1839 eV  567.72 nm  f=0.0206  <S**2>=0.000
     309 -> 313        0.28268
     310 -> 314        0.57883
     311 -> 315       -0.11808
     312 -> 316       -0.24313

 Excited State   4:      Singlet-A      2.1956 eV  564.69 nm  f=0.1601  <S**2>=0.000
     309 -> 313        0.57499
     310 -> 314       -0.27959
     311 -> 315       -0.25228
     312 -> 316        0.12364

 Excited State   5:      Singlet-A      2.4874 eV  498.44 nm  f=0.0000  <S**2>=0.000
     312 -> 313        0.70710

 The electronic state is 1-A.
 Alpha  occ. eigenvalues --  -46.87878 -46.87493 -19.26322 -19.26231 -19.19061
 Alpha  occ. eigenvalues --  -19.19040 -19.18846 -19.18512 -19.18233 -19.17912
 Alpha  occ. eigenvalues --  -14.42528 -14.42332 -14.41540 -14.41190 -14.39478
 Alpha  occ. eigenvalues --  -14.39180 -14.38668 -14.38441 -10.39124 -10.38966
 Alpha  occ. eigenvalues --  -10.35475 -10.35186 -10.34453 -10.34091 -10.31706
 Alpha  occ. eigenvalues --  -10.31653 -10.31485 -10.31161 -10.30974 -10.30849
 Alpha  occ. eigenvalues --  -10.30651 -10.30589 -10.30299 -10.30234 -10.30212
 Alpha  occ. eigenvalues --  -10.30020 -10.29964 -10.29728 -10.29704 -10.29328
 Alpha  occ. eigenvalues --  -10.29260 -10.29243 -10.28814 -10.28605 -10.28570
 Alpha  occ. eigenvalues --  -10.28545 -10.28433 -10.28235 -10.28182 -10.27992
 Alpha  occ. eigenvalues --  -10.27866 -10.27841 -10.27804 -10.27649 -10.27643
 Alpha  occ. eigenvalues --  -10.27576 -10.27515 -10.27506 -10.27478 -10.27360
 Alpha  occ. eigenvalues --  -10.27319 -10.27297 -10.27280 -10.27217 -10.27184
 Alpha  occ. eigenvalues --  -10.26906 -10.26772 -10.26564 -10.26394 -10.26385
 Alpha  occ. eigenvalues --  -10.26293 -10.26200 -10.26117 -10.26021 -10.25950
 Alpha  occ. eigenvalues --  -10.25862 -10.25782 -10.25772 -10.25544 -10.25129
 Alpha  occ. eigenvalues --  -10.24958 -10.24905 -10.24872 -10.24717 -10.24619
 Alpha  occ. eigenvalues --  -10.24509  -3.16621  -3.16243  -1.91503  -1.91125
 Alpha  occ. eigenvalues --   -1.91089  -1.90931  -1.90714  -1.90551  -1.16672
 Alpha  occ. eigenvalues --   -1.16524  -1.08689  -1.08524  -1.07245  -1.06825
 Alpha  occ. eigenvalues --   -1.06759  -1.06684  -1.04657  -1.04332  -1.03846
 Alpha  occ. eigenvalues --   -1.03496  -1.03314  -1.02871  -1.02493  -1.01945
 Alpha  occ. eigenvalues --   -0.92045  -0.91831  -0.89644  -0.89338  -0.89257
 Alpha  occ. eigenvalues --   -0.89003  -0.88407  -0.88051  -0.87955  -0.87752
 Alpha  occ. eigenvalues --   -0.87662  -0.87524  -0.87322  -0.86938  -0.85053
 Alpha  occ. eigenvalues --   -0.84847  -0.84073  -0.83711  -0.83019  -0.82744
 Alpha  occ. eigenvalues --   -0.82708  -0.82491  -0.81650  -0.81460  -0.80662
 Alpha  occ. eigenvalues --   -0.80290  -0.78860  -0.78471  -0.77313  -0.77015
 Alpha  occ. eigenvalues --   -0.76994  -0.76749  -0.75991  -0.75691  -0.75002
 Alpha  occ. eigenvalues --   -0.74619  -0.72861  -0.72546  -0.71752  -0.71410
 Alpha  occ. eigenvalues --   -0.70068  -0.69607  -0.68942  -0.68675  -0.67711
 Alpha  occ. eigenvalues --   -0.67440  -0.67278  -0.67045  -0.65361  -0.65124
 Alpha  occ. eigenvalues --   -0.64935  -0.64705  -0.64617  -0.64503  -0.64382
 Alpha  occ. eigenvalues --   -0.64045  -0.62363  -0.62140  -0.60509  -0.60161
 Alpha  occ. eigenvalues --   -0.59875  -0.59645  -0.59072  -0.58832  -0.58583
 Alpha  occ. eigenvalues --   -0.58268  -0.57649  -0.57417  -0.57393  -0.57072
 Alpha  occ. eigenvalues --   -0.56380  -0.56056  -0.56032  -0.55748  -0.55579
 Alpha  occ. eigenvalues --   -0.55445  -0.55292  -0.55094  -0.54618  -0.54339
 Alpha  occ. eigenvalues --   -0.53963  -0.53764  -0.53377  -0.53274  -0.53071
 Alpha  occ. eigenvalues --   -0.52992  -0.52984  -0.52803  -0.52755  -0.52600
 Alpha  occ. eigenvalues --   -0.52484  -0.52267  -0.52006  -0.51778  -0.51673
 Alpha  occ. eigenvalues --   -0.51504  -0.51285  -0.51059  -0.50608  -0.50286
 Alpha  occ. eigenvalues --   -0.50155  -0.49969  -0.49813  -0.49688  -0.49569
 Alpha  occ. eigenvalues --   -0.49321  -0.49278  -0.49163  -0.49049  -0.48958
 Alpha  occ. eigenvalues --   -0.48666  -0.48553  -0.48489  -0.48414  -0.48207
 Alpha  occ. eigenvalues --   -0.48154  -0.47768  -0.47433  -0.47365  -0.46943
 Alpha  occ. eigenvalues --   -0.46895  -0.46620  -0.46558  -0.46445  -0.46402
 Alpha  occ. eigenvalues --   -0.46250  -0.46111  -0.45931  -0.45899  -0.45691
 Alpha  occ. eigenvalues --   -0.45310  -0.45012  -0.44657  -0.44576  -0.44372
 Alpha  occ. eigenvalues --   -0.44325  -0.44247  -0.44155  -0.44073  -0.43975
 Alpha  occ. eigenvalues --   -0.43919  -0.43773  -0.43566  -0.43469  -0.43418
 Alpha  occ. eigenvalues --   -0.43228  -0.43111  -0.42819  -0.42794  -0.42751
 Alpha  occ. eigenvalues --   -0.42730  -0.42390  -0.42127  -0.41820  -0.41782
 Alpha  occ. eigenvalues --   -0.41609  -0.41516  -0.41310  -0.41219  -0.40968
 Alpha  occ. eigenvalues --   -0.40862  -0.40823  -0.40684  -0.40567  -0.40523
 Alpha  occ. eigenvalues --   -0.40332  -0.40297  -0.40076  -0.39618  -0.39280
 Alpha  occ. eigenvalues --   -0.38586  -0.38181  -0.37821  -0.37514  -0.37428
 Alpha  occ. eigenvalues --   -0.37333  -0.37107  -0.37046  -0.36782  -0.36639
 Alpha  occ. eigenvalues --   -0.36274  -0.36059  -0.34368  -0.34093  -0.33818
 Alpha  occ. eigenvalues --   -0.33732  -0.33265  -0.33013  -0.31379  -0.31112
 Alpha  occ. eigenvalues --   -0.31072  -0.30804  -0.30093  -0.29820  -0.29514
 Alpha  occ. eigenvalues --   -0.29396  -0.29156  -0.29056  -0.24162  -0.23870
 Alpha  occ. eigenvalues --   -0.21209  -0.20952
 Alpha virt. eigenvalues --   -0.08847  -0.08625  -0.01831  -0.01511  -0.00110
 Alpha virt. eigenvalues --    0.00150   0.02125   0.02356   0.03015   0.03384
 Alpha virt. eigenvalues --    0.04639   0.04885   0.05051   0.05293   0.06109

 Mulliken charges:
               1
     1  Mg   0.838628
     2  C   -0.002721
     3  C   -0.093938
     4  C   -0.046007
     5  C   -0.064415
     6  N   -0.256723
     7  C   -0.052586
     8  C   -0.013980
     9  C   -0.087032
    10  C    0.046342
    11  C    0.104754
    12  C    0.053476
    13  C   -0.071800
    14  H    0.035919
    15  N   -0.433267
    16  C    0.168544
    17  C   -0.176798
    18  C   -0.003640
    19  C    0.148769
    20  C    0.110102
    21  C    0.012617
    22  O   -0.249571
    23  C    0.062284
    24  N   -0.340994
    25  C    0.041148
    26  C   -0.028254
    27  C   -0.023761
    28  C    0.074406
    29  C    0.076099
    30  C    0.035363
    31  C   -0.004460
    32  N   -0.310385
    33  C    0.080083
    34  C   -0.170294
    35  C    0.008474
    36  C    0.082785
    37  C    0.127422
    38  C    0.046103
    39  O   -0.188326
    40  C   -0.005330
    41  C    0.212884
    42  O   -0.256866
    43  O   -0.304854
    44  C    0.157459
    45  H   -0.017255
    46  H   -0.016773
    47  H   -0.042176
    48  H    0.001105
    49  H   -0.003907
    50  H    0.025564
    51  H    0.016488
    52  H    0.016894
    53  H    0.011005
    54  H    0.044136
    55  H    0.018118
    56  H    0.017916
    57  H    0.005885
    58  H    0.027209
    59  H    0.040269
    60  H    0.037276
    61  H    0.036729
    62  H    0.032266
    63  H    0.016136
    64  H    0.009615
    65  H    0.023290
    66  H    0.013004
    67  H    0.004771
    68  H    0.006182
    69  H    0.004326
    70  H    0.008737
    71  H    0.015196
    72  H    0.029751
    73  H    0.047196
    74  H    0.008322
    75  H    0.046199
    76  H    0.035260
    77  H    0.043176
    78  H    0.046245
    79  H    0.054198
    80  Mg   0.838043
    81  C   -0.016904
    82  C   -0.087524
    83  C   -0.044075
    84  C   -0.065164
    85  N   -0.254588
    86  C   -0.050017
    87  C   -0.015085
    88  C   -0.090633
    89  C    0.045962
    90  C    0.114155
    91  C    0.062601
    92  C   -0.077668
    93  H    0.034404
    94  N   -0.423848
    95  C    0.163357
    96  C   -0.173572
    97  C   -0.006759
    98  C    0.152356
    99  C    0.098924
   100  C    0.016419
   101  O   -0.252500
   102  C    0.061074
   103  N   -0.349982
   104  C    0.038091
   105  C   -0.020196
   106  C   -0.034263
   107  C    0.088750
   108  C    0.072930
   109  C    0.034841
   110  C   -0.007541
   111  N   -0.323892
   112  C    0.078184
   113  C   -0.163900
   114  C    0.001948
   115  C    0.095936
   116  C    0.131620
   117  C    0.041884
   118  O   -0.188844
   119  C    0.000996
   120  C    0.211076
   121  O   -0.251274
   122  O   -0.305448
   123  C    0.152190
   124  H   -0.019608
   125  H   -0.014641
   126  H   -0.041514
   127  H   -0.000561
   128  H   -0.004798
   129  H    0.023193
   130  H    0.015310
   131  H    0.015483
   132  H    0.013773
   133  H    0.037521
   134  H    0.020757
   135  H    0.019335
   136  H    0.008369
   137  H    0.027703
   138  H    0.039487
   139  H    0.039266
   140  H    0.036442
   141  H    0.033158
   142  H    0.013997
   143  H    0.011567
   144  H    0.024783
   145  H    0.016096
   146  H    0.004822
   147  H    0.005840
   148  H    0.002774
   149  H    0.011003
   150  H    0.017314
   151  H    0.030270
   152  H    0.045538
   153  H    0.007941
   154  H    0.045542
   155  H    0.035341
   156  H    0.043713
   157  H    0.049421
   158  H    0.053287
 Sum of Mulliken charges =  -0.00000

 Dipole moment (field-independent basis, Debye):
    X=             -3.9120    Y=             -1.3468    Z=              0.1210  Tot=              4.1391
 Quadrupole moment (field-independent basis, Debye-Ang):
   XX=           -525.3534   YY=           -546.2043   ZZ=           -448.3264
   XY=             21.1771   XZ=             56.8918   YZ=            -40.5054

 Normal termination of Gaussian 16 at Sat Sep  4 02:36:06 2021.
