 Gaussian 16, Revision A.03,
 Gaussian 16:  ES64L-G16RevA.03 25-Dec-2016

 -----------------------------------
 #p cam-b3lyp/Def2SVP td=(nstates=5)
 -----------------------------------

 --------------------------------
 TDDFT excited states in gaussian
 --------------------------------
 Symbolic Z-matrix:
 Charge =  0 Multiplicity = 1

                         Standard orientation:
 ---------------------------------------------------------------------
 Center     Atomic      Atomic             Coordinates (Angstroms)
 Number     Number       Type             X           Y           Z
 ---------------------------------------------------------------------
      1         12           0        6.700371   -0.593692    0.762566
      2          6           0        7.119417    2.296060   -1.307686
      3          6           0        7.253633    1.434968    3.449852
      4          6           0        6.786075   -3.196435    2.572264
      5          6           0        7.307240   -2.529622   -2.071079
      6          7           0        7.119898    1.574036    0.922557
      7          6           0        7.195059    2.580672    0.057568
      8          6           0        7.286148    3.977523    0.741588
      9          6           0        7.884992    3.529696    2.149720
     10          6           0        7.359638    2.105669    2.195279
     11          6           0        9.409528    3.491980    2.179223
     12          6           0        5.882682    4.652429    0.904427
     13          6           0        5.911164    6.141733    1.260120
     14          1           0        4.884799    7.013237    0.708393
     15          7           0        6.496167   -0.802933    2.716375
     16          6           0        6.750762    0.133067    3.662087
     17          6           0        6.445298   -0.505645    4.960324
     18          6           0        6.174359   -1.947755    4.705363
     19          6           0        6.504613   -2.046820    3.306615
     20          6           0        6.384515    0.247429    6.253744
     21          6           0        5.704066   -3.062335    5.585516
     22          8           0        5.757194   -4.286328    5.220013
     23          6           0        5.255933   -2.686479    6.938642
     24          7           0        7.218328   -2.577954    0.372620
     25          6           0        7.111403   -3.517677    1.318385
     26          6           0        7.261807   -4.893636    0.740409
     27          6           0        7.252380   -4.710283   -0.845796
     28          6           0        7.175737   -3.164651   -0.904240
     29          6           0        8.524085   -5.660638    1.157988
     30          6           0        6.207418   -5.531227   -1.642366
     31          6           0        4.814189   -5.039324   -1.319809
     32          7           0        6.962760   -0.224431   -1.360131
     33          6           0        7.227380   -1.176556   -2.355173
     34          6           0        7.431581   -0.438974   -3.615468
     35          6           0        7.287010    0.900766   -3.260445
     36          6           0        7.036058    0.995684   -1.861765
     37          6           0        7.768338   -1.014167   -4.872520
     38          6           0        7.310583    2.275607   -3.732795
     39          8           0        7.384409    2.811060   -4.839742
     40          6           0        7.324006    3.240473   -2.466035
     41          6           0        6.287575    4.306489   -2.695662
     42          8           0        5.072926    4.021787   -2.726290
     43          8           0        6.864846    5.514473   -2.605795
     44          6           0        5.885429    6.617764   -2.794595
     45          1           0        7.644144    1.923984    4.344450
     46          1           0        6.716217   -4.127394    3.138720
     47          1           0        7.416869   -3.071615   -3.012183
     48          1           0        7.964203    4.678663    0.254692
     49          1           0        7.470927    4.112844    2.972040
     50          1           0        9.831344    3.654810    1.187518
     51          1           0        9.669070    2.498278    2.544856
     52          1           0        9.800174    4.193971    2.916367
     53          1           0        5.395478    4.258004    1.796122
     54          1           0        5.278484    4.507301    0.008208
     55          1           0        6.901315    6.570295    1.102499
     56          1           0        5.740944    6.240128    2.332287
     57          1           0        6.791411    1.252667    6.151392
     58          1           0        7.063640   -0.251435    6.944855
     59          1           0        5.378452    0.262050    6.673213
     60          1           0        6.073305   -2.192159    7.464094
     61          1           0        4.871964   -3.599337    7.392632
     62          1           0        4.456197   -1.950141    6.853912
     63          1           0        6.429251   -5.533020    1.031036
     64          1           0        8.206445   -4.986850   -1.295177
     65          1           0        8.316793   -6.623659    1.625242
     66          1           0        9.103239   -5.020127    1.822531
     67          1           0        9.237191   -5.839651    0.353718
     68          1           0        6.251316   -6.581269   -1.355257
     69          1           0        6.349055   -5.476347   -2.721800
     70          1           0        4.574593   -5.572405   -0.400434
     71          1           0        4.121711   -5.307519   -2.118405
     72          1           0        4.811717   -3.973905   -1.088806
     73          1           0        7.146715   -0.512315   -5.613936
     74          1           0        7.596342   -2.090279   -4.874387
     75          1           0        8.826481   -0.760319   -4.933760
     76          1           0        8.329409    3.654831   -2.398244
     77          1           0        6.256423    7.240492   -3.608725
     78          1           0        5.754124    7.085903   -1.818885
     79          1           0        4.907076    6.332615   -3.182995
     80         12           0       -6.433435   -0.697322   -0.753819
     81          6           0       -8.380408    1.613433    1.182361
     82          6           0       -5.486551    1.949906   -2.685199
     83          6           0       -5.073977   -2.762146   -2.742729
     84          6           0       -8.393017   -3.251687    0.580701
     85          7           0       -6.934803    1.455025   -0.662682
     86          6           0       -7.635637    2.227343    0.153829
     87          6           0       -7.468640    3.749694   -0.099432
     88          6           0       -7.026943    3.689769   -1.642217
     89          6           0       -6.410483    2.292597   -1.665880
     90          6           0       -8.201858    3.709807   -2.605811
     91          6           0       -6.346786    4.384902    0.794977
     92          6           0       -6.338401    5.914841    0.826084
     93          1           0       -5.969609    6.583699    2.070703
     94          7           0       -5.052622   -0.415676   -2.151171
     95          6           0       -4.788396    0.729221   -2.815002
     96          6           0       -3.699222    0.409524   -3.750760
     97          6           0       -3.454034   -1.057508   -3.701607
     98          6           0       -4.555437   -1.480796   -2.860282
     99          6           0       -2.952223    1.460416   -4.519550
    100          6           0       -2.409572   -1.935875   -4.321090
    101          8           0       -2.527007   -3.212093   -4.338581
    102          6           0       -1.291337   -1.253857   -4.988848
    103          7           0       -6.827406   -2.688021   -1.205741
    104          6           0       -6.051578   -3.367746   -2.068292
    105          6           0       -6.354964   -4.846448   -2.026229
    106          6           0       -7.331771   -5.049225   -0.776301
    107          6           0       -7.502717   -3.575491   -0.347031
    108          6           0       -7.006709   -5.427777   -3.280692
    109          6           0       -6.896987   -6.085695    0.295791
    110          6           0       -5.662235   -5.595178    1.017020
    111          7           0       -7.963402   -0.852829    0.763762
    112          6           0       -8.670597   -2.013741    1.146219
    113          6           0       -9.687570   -1.598395    2.133992
    114          6           0       -9.515379   -0.210113    2.241350
    115          6           0       -8.478744    0.212986    1.366202
    116          6           0      -10.638734   -2.453632    2.758463
    117          6           0       -9.981988    0.995144    2.888135
    118          8           0      -10.782150    1.243505    3.789128
    119          6           0       -9.353095    2.247260    2.137739
    120          6           0       -8.803597    3.184385    3.178102
    121          8           0       -7.844220    2.843499    3.892252
    122          8           0       -9.355336    4.400188    3.011442
    123          6           0       -8.833339    5.367516    4.013248
    124          1           0       -5.309013    2.667131   -3.487033
    125          1           0       -4.564902   -3.532236   -3.326934
    126          1           0       -8.977534   -4.002810    1.116263
    127          1           0       -8.377609    4.329938    0.004818
    128          1           0       -6.275391    4.441988   -1.867412
    129          1           0       -9.147741    3.641629   -2.089280
    130          1           0       -8.063521    2.856023   -3.256162
    131          1           0       -8.145836    4.591781   -3.250268
    132          1           0       -5.370246    4.201101    0.328797
    133          1           0       -6.396191    4.003376    1.796290
    134          1           0       -7.264484    6.340441    0.420882
    135          1           0       -5.560028    6.271473    0.147146
    136          1           0       -3.464205    2.429699   -4.477516
    137          1           0       -2.996411    1.175501   -5.576313
    138          1           0       -1.905477    1.538592   -4.218075
    139          1           0       -1.678382   -0.612739   -5.777280
    140          1           0       -0.603964   -2.046483   -5.290731
    141          1           0       -0.798320   -0.597476   -4.263095
    142          1           0       -5.451982   -5.422014   -1.863552
    143          1           0       -8.325338   -5.402786   -1.088795
    144          1           0       -6.432737   -6.263643   -3.723371
    145          1           0       -7.133184   -4.630066   -4.000539
    146          1           0       -8.027069   -5.783525   -3.148411
    147          1           0       -6.623655   -7.030720   -0.179989
    148          1           0       -7.670642   -6.303886    1.024391
    149          1           0       -4.850316   -5.893012    0.346817
    150          1           0       -5.569144   -6.076935    1.988243
    151          1           0       -5.652359   -4.500881    1.080805
    152          1           0      -10.665508   -2.178316    3.804402
    153          1           0      -10.376455   -3.501586    2.628996
    154          1           0      -11.539412   -2.183940    2.200505
    155          1           0      -10.146777    2.708994    1.549135
    156          1           0       -9.699703    5.786826    4.534084
    157          1           0       -8.197587    6.072260    3.444996
    158          1           0       -8.260076    4.969897    4.842531
 ---------------------------------------------------------------------

 SCF Done:  E(RCAM-B3LYP) =  -4069.81222129     A.U. after   19 cycles

 Excitation energies and oscillator strengths:

 Excited State   1:      Singlet-A      1.6656 eV  744.38 nm  f=0.0968  <S**2>=0.000
     309 -> 315       -0.11252
     310 -> 316       -0.12989
     311 -> 313        0.44840
     312 -> 314        0.51997
 This state for optimization and/or second-order correction.
 Total Energy, E(TD-HF/TD-DFT) =  -4069.75101176
 Copying the excited state density for this state as the 1-particle RhoCI density.

 Excited State   2:      Singlet-A      1.6896 eV  733.82 nm  f=0.6598  <S**2>=0.000
     309 -> 315       -0.13497
     310 -> 316        0.11579
     311 -> 313        0.51882
     312 -> 314       -0.44756

 Excited State   3:      Singlet-A      2.1872 eV  566.87 nm  f=0.0340  <S**2>=0.000
     309 -> 313       -0.22955
     310 -> 314        0.60040
     312 -> 316        0.25543

 Excited State   4:      Singlet-A      2.1941 eV  565.07 nm  f=0.1549  <S**2>=0.000
     309 -> 313        0.59834
     310 -> 314        0.22805
     311 -> 315        0.26089

 Excited State   5:      Singlet-A      2.6695 eV  464.44 nm  f=0.0000  <S**2>=0.000
     312 -> 313        0.70703

 The electronic state is 1-A.
 Alpha  occ. eigenvalues --  -46.87811 -46.87532 -19.26411 -19.26290 -19.19151
 Alpha  occ. eigenvalues --  -19.19093 -19.18795 -19.18523 -19.18227 -19.17942
 Alpha  occ. eigenvalues --  -14.42469 -14.42371 -14.41457 -14.41234 -14.39414
 Alpha  occ. eigenvalues --  -14.39215 -14.38609 -14.38474 -10.39201 -10.39020
 Alpha  occ. eigenvalues --  -10.35426 -10.35190 -10.34449 -10.34122 -10.31826
 Alpha  occ. eigenvalues --  -10.31717 -10.31435 -10.31192 -10.30931 -10.30887
 Alpha  occ. eigenvalues --  -10.30594 -10.30522 -10.30271 -10.30233 -10.30198
 Alpha  occ. eigenvalues --  -10.30003 -10.29930 -10.29783 -10.29645 -10.29290
 Alpha  occ. eigenvalues --  -10.29260 -10.29255 -10.28794 -10.28615 -10.28611
 Alpha  occ. eigenvalues --  -10.28580 -10.28387 -10.28269 -10.28151 -10.28027
 Alpha  occ. eigenvalues --  -10.27864 -10.27813 -10.27742 -10.27593 -10.27535
 Alpha  occ. eigenvalues --  -10.27469 -10.27466 -10.27430 -10.27424 -10.27409
 Alpha  occ. eigenvalues --  -10.27359 -10.27309 -10.27272 -10.27225 -10.27198
 Alpha  occ. eigenvalues --  -10.26952 -10.26771 -10.26597 -10.26362 -10.26263
 Alpha  occ. eigenvalues --  -10.26118 -10.26117 -10.26040 -10.26023 -10.25919
 Alpha  occ. eigenvalues --  -10.25877 -10.25808 -10.25751 -10.25412 -10.25303
 Alpha  occ. eigenvalues --  -10.24861 -10.24796 -10.24743 -10.24631 -10.24589
 Alpha  occ. eigenvalues --  -10.24565  -3.16554  -3.16282  -1.91436  -1.91164
 Alpha  occ. eigenvalues --   -1.91022  -1.90865  -1.90753  -1.90589  -1.16759
 Alpha  occ. eigenvalues --   -1.16582  -1.08692  -1.08556  -1.07194  -1.06877
 Alpha  occ. eigenvalues --   -1.06775  -1.06770  -1.04602  -1.04368  -1.03770
 Alpha  occ. eigenvalues --   -1.03534  -1.03248  -1.02910  -1.02426  -1.01983
 Alpha  occ. eigenvalues --   -0.92007  -0.91868  -0.89509  -0.89376  -0.89225
 Alpha  occ. eigenvalues --   -0.89041  -0.88273  -0.88108  -0.87897  -0.87692
 Alpha  occ. eigenvalues --   -0.87674  -0.87558  -0.87269  -0.86923  -0.85014
 Alpha  occ. eigenvalues --   -0.84882  -0.83920  -0.83769  -0.82944  -0.82744
 Alpha  occ. eigenvalues --   -0.82674  -0.82502  -0.81648  -0.81500  -0.80629
 Alpha  occ. eigenvalues --   -0.80321  -0.78803  -0.78469  -0.77230  -0.77016
 Alpha  occ. eigenvalues --   -0.76972  -0.76798  -0.75965  -0.75723  -0.74897
 Alpha  occ. eigenvalues --   -0.74692  -0.72789  -0.72572  -0.71692  -0.71464
 Alpha  occ. eigenvalues --   -0.69870  -0.69649  -0.68900  -0.68703  -0.67662
 Alpha  occ. eigenvalues --   -0.67473  -0.67250  -0.67061  -0.65324  -0.65160
 Alpha  occ. eigenvalues --   -0.64887  -0.64654  -0.64646  -0.64543  -0.64262
 Alpha  occ. eigenvalues --   -0.64090  -0.62366  -0.62187  -0.60437  -0.60171
 Alpha  occ. eigenvalues --   -0.59835  -0.59677  -0.59007  -0.58873  -0.58528
 Alpha  occ. eigenvalues --   -0.58305  -0.57651  -0.57456  -0.57319  -0.57103
 Alpha  occ. eigenvalues --   -0.56335  -0.56070  -0.56058  -0.55788  -0.55532
 Alpha  occ. eigenvalues --   -0.55357  -0.55301  -0.55144  -0.54558  -0.54392
 Alpha  occ. eigenvalues --   -0.53934  -0.53800  -0.53309  -0.53247  -0.53096
 Alpha  occ. eigenvalues --   -0.53002  -0.52960  -0.52788  -0.52757  -0.52465
 Alpha  occ. eigenvalues --   -0.52398  -0.52293  -0.51948  -0.51777  -0.51649
 Alpha  occ. eigenvalues --   -0.51519  -0.51224  -0.51089  -0.50548  -0.50253
 Alpha  occ. eigenvalues --   -0.50012  -0.49917  -0.49827  -0.49735  -0.49536
 Alpha  occ. eigenvalues --   -0.49330  -0.49245  -0.49133  -0.49061  -0.48993
 Alpha  occ. eigenvalues --   -0.48641  -0.48474  -0.48447  -0.48445  -0.48269
 Alpha  occ. eigenvalues --   -0.48160  -0.47710  -0.47456  -0.47308  -0.46967
 Alpha  occ. eigenvalues --   -0.46808  -0.46593  -0.46591  -0.46432  -0.46376
 Alpha  occ. eigenvalues --   -0.46186  -0.46137  -0.45976  -0.45875  -0.45726
 Alpha  occ. eigenvalues --   -0.45192  -0.45095  -0.44622  -0.44508  -0.44404
 Alpha  occ. eigenvalues --   -0.44352  -0.44156  -0.44106  -0.44041  -0.44008
 Alpha  occ. eigenvalues --   -0.43950  -0.43766  -0.43551  -0.43462  -0.43402
 Alpha  occ. eigenvalues --   -0.43270  -0.43050  -0.42841  -0.42790  -0.42788
 Alpha  occ. eigenvalues --   -0.42637  -0.42426  -0.42011  -0.41856  -0.41730
 Alpha  occ. eigenvalues --   -0.41562  -0.41553  -0.41345  -0.41161  -0.40886
 Alpha  occ. eigenvalues --   -0.40872  -0.40815  -0.40600  -0.40562  -0.40535
 Alpha  occ. eigenvalues --   -0.40385  -0.40278  -0.40101  -0.39395  -0.39318
 Alpha  occ. eigenvalues --   -0.38461  -0.38242  -0.37794  -0.37551  -0.37317
 Alpha  occ. eigenvalues --   -0.37300  -0.37150  -0.37077  -0.36798  -0.36695
 Alpha  occ. eigenvalues --   -0.36228  -0.36113  -0.34306  -0.34130  -0.33882
 Alpha  occ. eigenvalues --   -0.33783  -0.33209  -0.33049  -0.31327  -0.31089
 Alpha  occ. eigenvalues --   -0.31053  -0.30843  -0.30089  -0.29850  -0.29461
 Alpha  occ. eigenvalues --   -0.29346  -0.29176  -0.29078  -0.24099  -0.23911
 Alpha  occ. eigenvalues --   -0.21141  -0.20985
 Alpha virt. eigenvalues --   -0.08789  -0.08653  -0.01758  -0.01552  -0.00065
 Alpha virt. eigenvalues --    0.00133   0.02169   0.02328   0.03104   0.03351
 Alpha virt. eigenvalues --    0.04690   0.04843   0.04988   0.05242   0.06118

 Mulliken charges:
               1
     1  Mg   0.838600
     2  C   -0.003444
     3  C   -0.094118
     4  C   -0.045561
     5  C   -0.063704
     6  N   -0.256834
     7  C   -0.052674
     8  C   -0.014003
     9  C   -0.087056
    10  C    0.046377
    11  C    0.104781
    12  C    0.053472
    13  C   -0.071607
    14  H    0.035129
    15  N   -0.433230
    16  C    0.168642
    17  C   -0.176901
    18  C   -0.003652
    19  C    0.148837
    20  C    0.110101
    21  C    0.012643
    22  O   -0.249243
    23  C    0.062290
    24  N   -0.341171
    25  C    0.041420
    26  C   -0.028255
    27  C   -0.023978
    28  C    0.074865
    29  C    0.076144
    30  C    0.035023
    31  C   -0.004704
    32  N   -0.310248
    33  C    0.080027
    34  C   -0.170145
    35  C    0.007930
    36  C    0.082516
    37  C    0.127461
    38  C    0.045386
    39  O   -0.189310
    40  C   -0.005101
    41  C    0.212943
    42  O   -0.258493
    43  O   -0.304402
    44  C    0.158063
    45  H   -0.017455
    46  H   -0.016455
    47  H   -0.041320
    48  H    0.000765
    49  H   -0.003929
    50  H    0.025411
    51  H    0.016632
    52  H    0.016762
    53  H    0.011522
    54  H    0.043278
    55  H    0.018009
    56  H    0.018367
    57  H    0.005873
    58  H    0.027023
    59  H    0.040250
    60  H    0.037279
    61  H    0.036102
    62  H    0.032069
    63  H    0.017039
    64  H    0.009373
    65  H    0.023442
    66  H    0.012406
    67  H    0.004783
    68  H    0.006596
    69  H    0.004719
    70  H    0.009096
    71  H    0.019851
    72  H    0.028260
    73  H    0.046749
    74  H    0.009451
    75  H    0.046020
    76  H    0.035242
    77  H    0.042901
    78  H    0.046655
    79  H    0.052416
    80  Mg   0.837639
    81  C   -0.016893
    82  C   -0.087282
    83  C   -0.045531
    84  C   -0.064963
    85  N   -0.254539
    86  C   -0.050217
    87  C   -0.015087
    88  C   -0.090541
    89  C    0.045707
    90  C    0.114366
    91  C    0.062412
    92  C   -0.077623
    93  H    0.033913
    94  N   -0.423635
    95  C    0.163074
    96  C   -0.173925
    97  C   -0.007400
    98  C    0.152158
    99  C    0.098876
   100  C    0.015580
   101  O   -0.253959
   102  C    0.061050
   103  N   -0.350040
   104  C    0.037657
   105  C   -0.019843
   106  C   -0.034673
   107  C    0.088660
   108  C    0.073764
   109  C    0.034828
   110  C   -0.007603
   111  N   -0.323952
   112  C    0.078028
   113  C   -0.163539
   114  C    0.001991
   115  C    0.095891
   116  C    0.131582
   117  C    0.042024
   118  O   -0.188663
   119  C    0.000958
   120  C    0.211240
   121  O   -0.251329
   122  O   -0.305574
   123  C    0.152218
   124  H   -0.019247
   125  H   -0.015657
   126  H   -0.040872
   127  H   -0.000982
   128  H   -0.004028
   129  H    0.022237
   130  H    0.014519
   131  H    0.016272
   132  H    0.014413
   133  H    0.037332
   134  H    0.020648
   135  H    0.019878
   136  H    0.008742
   137  H    0.026373
   138  H    0.043696
   139  H    0.038680
   140  H    0.036133
   141  H    0.036865
   142  H    0.014324
   143  H    0.012113
   144  H    0.024930
   145  H    0.011699
   146  H    0.005456
   147  H    0.005970
   148  H    0.003393
   149  H    0.010960
   150  H    0.017727
   151  H    0.030234
   152  H    0.045536
   153  H    0.008254
   154  H    0.046594
   155  H    0.034782
   156  H    0.043616
   157  H    0.049434
   158  H    0.053176
 Sum of Mulliken charges =  -0.00000

 Dipole moment (field-independent basis, Debye):
    X=              2.9350    Y=              3.0648    Z=              0.4471  Tot=              4.2670
 Quadrupole moment (field-independent basis, Debye-Ang):
   XX=           -519.0388   YY=           -463.0209   ZZ=           -525.6685
   XY=              7.8284   XZ=             62.9267   YZ=             17.0678

 Normal termination of Gaussian 16 at Sat Sep 11 05:01:06 2021.
