 Gaussian 16, Revision A.03,
 Gaussian 16:  ES64L-G16RevA.03 25-Dec-2016

 -----------------------------------
 #p cam-b3lyp/Def2SVP td=(nstates=5)
 -----------------------------------

 --------------------------------
 TDDFT excited states in gaussian
 --------------------------------
 Symbolic Z-matrix:
 Charge =  0 Multiplicity = 1

                         Standard orientation:
 ---------------------------------------------------------------------
 Center     Atomic      Atomic             Coordinates (Angstroms)
 Number     Number       Type             X           Y           Z
 ---------------------------------------------------------------------
      1         12           0        3.922655   -0.515669    1.198561
      2          6           0        4.634597    2.437712   -0.694291
      3          6           0        3.892806    1.456009    3.983280
      4          6           0        3.746345   -3.161733    2.937493
      5          6           0        5.115847   -2.359412   -1.507463
      6          7           0        4.235637    1.657683    1.480035
      7          6           0        4.441373    2.688340    0.666038
      8          6           0        4.357158    4.068713    1.383570
      9          6           0        4.692420    3.600472    2.870294
     10          6           0        4.213178    2.162031    2.785813
     11          6           0        6.184216    3.603312    3.188161
     12          6           0        2.927644    4.700843    1.290648
     13          6           0        2.841225    6.180523    1.675916
     14          1           0        1.910875    7.038081    0.957312
     15          7           0        3.358958   -0.781571    3.073233
     16          6           0        3.400217    0.135841    4.069194
     17          6           0        2.874819   -0.544764    5.272279
     18          6           0        2.702728   -1.986497    4.940788
     19          6           0        3.294783   -2.039835    3.628537
     20          6           0        2.546513    0.172182    6.545839
     21          6           0        2.109745   -3.136124    5.692361
     22          8           0        2.269735   -4.348214    5.318444
     23          6           0        1.401899   -2.808188    6.943142
     24          7           0        4.567469   -2.474253    0.873293
     25          6           0        4.313154   -3.441025    1.761921
     26          6           0        4.613637   -4.796761    1.194797
     27          6           0        4.898898   -4.572165   -0.360174
     28          6           0        4.785935   -3.028175   -0.400222
     29          6           0        5.797611   -5.539979    1.828708
     30          6           0        4.050098   -5.399929   -1.357553
     31          6           0        2.606172   -4.954587   -1.295531
     32          7           0        4.570377   -0.083853   -0.827527
     33          6           0        5.048528   -1.002016   -1.773583
     34          6           0        5.464241   -0.226351   -2.956628
     35          6           0        5.212836    1.099202   -2.607986
     36          6           0        4.698752    1.150545   -1.280818
     37          6           0        6.050888   -0.759021   -4.138381
     38          6           0        5.281981    2.486099   -3.038788
     39          8           0        5.547094    3.052223   -4.100255
     40          6           0        5.024860    3.417396   -1.772928
     41          6           0        4.017507    4.460601   -2.173270
     42          8           0        2.840231    4.143999   -2.440009
     43          8           0        4.528884    5.681006   -1.950452
     44          6           0        3.568580    6.761933   -2.299117
     45          1           0        4.091248    1.931778    4.945676
     46          1           0        3.599942   -4.108789    3.461029
     47          1           0        5.418725   -2.873351   -2.421566
     48          1           0        5.092644    4.800503    1.048955
     49          1           0        4.111955    4.150406    3.610804
     50          1           0        6.780798    3.803481    2.298249
     51          1           0        6.401090    2.607753    3.575873
     52          1           0        6.405873    4.296041    4.000424
     53          1           0        2.293137    4.270097    2.065192
     54          1           0        2.508937    4.562970    0.293151
     55          1           0        3.829274    6.639742    1.718185
     56          1           0        2.468078    6.246098    2.698003
     57          1           0        2.933476    1.190415    6.543426
     58          1           0        3.097922   -0.326066    7.342962
     59          1           0        1.479278    0.148528    6.766708
     60          1           0        2.088984   -2.305867    7.624418
     61          1           0        0.967946   -3.742714    7.296972
     62          1           0        0.609820   -2.091817    6.723201
     63          1           0        3.761730   -5.465874    1.308678
     64          1           0        5.929036   -4.810894   -0.625688
     65          1           0        5.536124   -6.520193    2.228095
     66          1           0        6.219958   -4.901674    2.604260
     67          1           0        6.655377   -5.678437    1.171074
     68          1           0        4.071983   -6.455569   -1.089056
     69          1           0        4.391728   -5.312922   -2.389042
     70          1           0        2.213807   -5.517908   -0.449628
     71          1           0        2.086230   -5.220393   -2.216518
     72          1           0        2.526367   -3.896055   -1.047279
     73          1           0        5.565340   -0.254909   -4.973895
     74          1           0        5.916426   -1.838977   -4.195094
     75          1           0        7.092935   -0.475079   -3.992193
     76          1           0        5.985649    3.856918   -1.506798
     77          1           0        4.067143    7.415635   -3.014899
     78          1           0        3.240210    7.200574   -1.356689
     79          1           0        2.690955    6.460675   -2.872142
     80         12           0       -3.634047   -0.764639   -1.191638
     81          6           0       -5.901566    1.427949    0.520071
     82          6           0       -2.554443    1.959001   -2.938311
     83          6           0       -1.951804   -2.732047   -3.026517
     84          6           0       -5.644988   -3.419376   -0.164897
     85          7           0       -4.227697    1.365074   -1.127124
     86          6           0       -5.056775    2.092201   -0.393470
     87          6           0       -4.919260    3.625041   -0.596070
     88          6           0       -4.282703    3.616577   -2.070385
     89          6           0       -3.613467    2.244040   -2.039793
     90          6           0       -5.325236    3.615087   -3.176030
     91          6           0       -3.946425    4.280779    0.445865
     92          6           0       -4.002609    5.808877    0.505064
     93          1           0       -3.822029    6.462435    1.798406
     94          7           0       -2.098791   -0.400453   -2.395356
     95          6           0       -1.797700    0.768228   -2.999346
     96          6           0       -0.586458    0.510360   -3.793429
     97          6           0       -0.291682   -0.947346   -3.739437
     98          6           0       -1.473621   -1.430068   -3.053810
     99          6           0        0.210178    1.605362   -4.441333
    100          6           0        0.857083   -1.772199   -4.235581
    101          8           0        0.793404   -3.051153   -4.290720
    102          6           0        2.023360   -1.034302   -4.742326
    103          7           0       -3.888195   -2.757754   -1.725734
    104          6           0       -2.982581   -3.388548   -2.493777
    105          6           0       -3.230113   -4.878029   -2.517291
    106          6           0       -4.349319   -5.145137   -1.406604
    107          6           0       -4.631703   -3.688871   -0.976572
    108          6           0       -3.693332   -5.454370   -3.855074
    109          6           0       -4.013924   -6.188935   -0.306306
    110          6           0       -2.901426   -5.669643    0.575776
    111          7           0       -5.337422   -1.011065    0.114430
    112          6           0       -6.041062   -2.205712    0.382387
    113          6           0       -7.191142   -1.850804    1.238990
    114          6           0       -7.089090   -0.459916    1.392261
    115          6           0       -5.967025    0.021000    0.664801
    116          6           0       -8.179497   -2.754586    1.721136
    117          6           0       -7.681557    0.712257    1.995330
    118          8           0       -8.599123    0.910323    2.790689
    119          6           0       -7.012291    2.003499    1.354126
    120          6           0       -6.637233    2.936397    2.472855
    121          8           0       -5.763861    2.615053    3.297826
    122          8           0       -7.210919    4.134460    2.258593
    123          6           0       -6.859399    5.097385    3.336093
    124          1           0       -2.304765    2.700359   -3.697876
    125          1           0       -1.342432   -3.469315   -3.554339
    126          1           0       -6.262752   -4.203579    0.277898
    127          1           0       -5.856336    4.168769   -0.598788
    128          1           0       -3.538958    4.400981   -2.183999
    129          1           0       -6.325742    3.500269   -2.786226
    130          1           0       -5.071561    2.782013   -3.818428
    131          1           0       -5.222556    4.512948   -3.792169
    132          1           0       -2.911973    4.143840    0.105414
    133          1           0       -4.107783    3.875017    1.425632
    134          1           0       -4.885673    6.209059   -0.007778
    135          1           0       -3.158845    6.209373   -0.062103
    136          1           0       -0.340935    2.553849   -4.447949
    137          1           0        0.312197    1.343109   -5.499953
    138          1           0        1.206102    1.715292   -4.006908
    139          1           0        1.714791   -0.390170   -5.562293
    140          1           0        2.774393   -1.793903   -4.967759
    141          1           0        2.393615   -0.376820   -3.947810
    142          1           0       -2.333148   -5.423377   -2.250578
    143          1           0       -5.280243   -5.527977   -1.850053
    144          1           0       -3.035055   -6.258165   -4.235409
    145          1           0       -3.758585   -4.645719   -4.570856
    146          1           0       -4.707347   -5.850502   -3.860957
    147          1           0       -3.645064   -7.112149   -0.759926
    148          1           0       -4.864798   -6.452084    0.313178
    149          1           0       -1.999634   -5.921958    0.009904
    150          1           0       -2.913761   -6.169588    1.542182
    151          1           0       -2.943051   -4.577462    0.659805
    152          1           0       -8.350095   -2.504306    2.759766
    153          1           0       -7.861614   -3.788924    1.607667
    154          1           0       -9.011761   -2.505762    1.057291
    155          1           0       -7.742207    2.448857    0.677028
    156          1           0       -7.800935    5.472438    3.749058
    157          1           0       -6.184856    5.837881    2.866617
    158          1           0       -6.381115    4.702461    4.224758
 ---------------------------------------------------------------------

 SCF Done:  E(RCAM-B3LYP) =  -4069.81738069     A.U. after   17 cycles

 Excitation energies and oscillator strengths:

 Excited State   1:      Singlet-A      1.6280 eV  761.57 nm  f=0.0940  <S**2>=0.000
     309 -> 315       -0.11529
     310 -> 316       -0.11410
     311 -> 313        0.48595
     312 -> 314       -0.48583
 This state for optimization and/or second-order correction.
 Total Energy, E(TD-HF/TD-DFT) =  -4069.75755251
 Copying the excited state density for this state as the 1-particle RhoCI density.

 Excited State   2:      Singlet-A      1.7132 eV  723.68 nm  f=0.6154  <S**2>=0.000
     309 -> 315       -0.13044
     310 -> 316        0.12849
     311 -> 313        0.48339
     312 -> 314        0.48352

 Excited State   3:      Singlet-A      2.1838 eV  567.74 nm  f=0.0023  <S**2>=0.000
     309 -> 313        0.46730
     310 -> 314       -0.44427
     311 -> 315        0.19400
     312 -> 316        0.18515

 Excited State   4:      Singlet-A      2.1996 eV  563.67 nm  f=0.1667  <S**2>=0.000
     309 -> 313        0.44018
     310 -> 314        0.46132
     311 -> 315        0.19532
     312 -> 316       -0.20375

 Excited State   5:      Singlet-A      2.2376 eV  554.08 nm  f=0.0001  <S**2>=0.000
     312 -> 313        0.70551

 The electronic state is 1-A.
 Alpha  occ. eigenvalues --  -46.87896 -46.87315 -19.26828 -19.26225 -19.19719
 Alpha  occ. eigenvalues --  -19.19017 -19.18841 -19.18477 -19.18363 -19.17744
 Alpha  occ. eigenvalues --  -14.42560 -14.42154 -14.41504 -14.41008 -14.39502
 Alpha  occ. eigenvalues --  -14.38989 -14.38756 -14.38252 -10.39669 -10.38935
 Alpha  occ. eigenvalues --  -10.35464 -10.34995 -10.34711 -10.33934 -10.32189
 Alpha  occ. eigenvalues --  -10.31693 -10.31577 -10.31031 -10.30972 -10.30737
 Alpha  occ. eigenvalues --  -10.30635 -10.30634 -10.30168 -10.30083 -10.30002
 Alpha  occ. eigenvalues --  -10.29979 -10.29769 -10.29748 -10.29618 -10.29335
 Alpha  occ. eigenvalues --  -10.29009 -10.28980 -10.28929 -10.28783 -10.28535
 Alpha  occ. eigenvalues --  -10.28526 -10.28435 -10.28269 -10.28014 -10.27970
 Alpha  occ. eigenvalues --  -10.27832 -10.27823 -10.27697 -10.27596 -10.27560
 Alpha  occ. eigenvalues --  -10.27492 -10.27478 -10.27334 -10.27289 -10.27268
 Alpha  occ. eigenvalues --  -10.27232 -10.27147 -10.27130 -10.27007 -10.26931
 Alpha  occ. eigenvalues --  -10.26791 -10.26471 -10.26369 -10.26332 -10.26220
 Alpha  occ. eigenvalues --  -10.26037 -10.26024 -10.25875 -10.25736 -10.25687
 Alpha  occ. eigenvalues --  -10.25685 -10.25570 -10.25560 -10.25361 -10.25195
 Alpha  occ. eigenvalues --  -10.25068 -10.24876 -10.24499 -10.24450 -10.24362
 Alpha  occ. eigenvalues --  -10.23851  -3.16638  -3.16067  -1.91519  -1.91105
 Alpha  occ. eigenvalues --   -1.90950  -1.90949  -1.90537  -1.90373  -1.17186
 Alpha  occ. eigenvalues --   -1.16512  -1.08972  -1.08376  -1.07267  -1.07234
 Alpha  occ. eigenvalues --   -1.06797  -1.06598  -1.04711  -1.04145  -1.03837
 Alpha  occ. eigenvalues --   -1.03354  -1.03317  -1.02685  -1.02523  -1.01753
 Alpha  occ. eigenvalues --   -0.92174  -0.91657  -0.89476  -0.89322  -0.89172
 Alpha  occ. eigenvalues --   -0.88856  -0.88186  -0.88048  -0.87924  -0.87774
 Alpha  occ. eigenvalues --   -0.87453  -0.87331  -0.87324  -0.86481  -0.85129
 Alpha  occ. eigenvalues --   -0.84693  -0.83839  -0.83597  -0.82894  -0.82751
 Alpha  occ. eigenvalues --   -0.82491  -0.82162  -0.81846  -0.81347  -0.80748
 Alpha  occ. eigenvalues --   -0.80117  -0.78885  -0.78107  -0.77290  -0.77058
 Alpha  occ. eigenvalues --   -0.76757  -0.76636  -0.76085  -0.75485  -0.74864
 Alpha  occ. eigenvalues --   -0.74486  -0.72876  -0.72325  -0.71783  -0.71261
 Alpha  occ. eigenvalues --   -0.69626  -0.69460  -0.68998  -0.68496  -0.67779
 Alpha  occ. eigenvalues --   -0.67357  -0.67266  -0.66844  -0.65460  -0.65035
 Alpha  occ. eigenvalues --   -0.64975  -0.64720  -0.64458  -0.64356  -0.64170
 Alpha  occ. eigenvalues --   -0.63897  -0.62566  -0.62040  -0.60480  -0.59957
 Alpha  occ. eigenvalues --   -0.59845  -0.59470  -0.59110  -0.58666  -0.58642
 Alpha  occ. eigenvalues --   -0.58088  -0.57929  -0.57347  -0.57298  -0.56867
 Alpha  occ. eigenvalues --   -0.56514  -0.56256  -0.55837  -0.55650  -0.55592
 Alpha  occ. eigenvalues --   -0.55439  -0.55067  -0.54950  -0.54583  -0.54245
 Alpha  occ. eigenvalues --   -0.54063  -0.53619  -0.53387  -0.53363  -0.53130
 Alpha  occ. eigenvalues --   -0.52897  -0.52832  -0.52778  -0.52615  -0.52350
 Alpha  occ. eigenvalues --   -0.52115  -0.52047  -0.51839  -0.51764  -0.51577
 Alpha  occ. eigenvalues --   -0.51290  -0.51266  -0.50889  -0.50541  -0.50050
 Alpha  occ. eigenvalues --   -0.49892  -0.49814  -0.49659  -0.49528  -0.49429
 Alpha  occ. eigenvalues --   -0.49306  -0.49260  -0.49085  -0.48826  -0.48807
 Alpha  occ. eigenvalues --   -0.48719  -0.48571  -0.48438  -0.48245  -0.48103
 Alpha  occ. eigenvalues --   -0.47862  -0.47764  -0.47375  -0.47174  -0.46861
 Alpha  occ. eigenvalues --   -0.46715  -0.46639  -0.46490  -0.46382  -0.46241
 Alpha  occ. eigenvalues --   -0.46198  -0.46067  -0.45867  -0.45727  -0.45565
 Alpha  occ. eigenvalues --   -0.45148  -0.44905  -0.44795  -0.44552  -0.44326
 Alpha  occ. eigenvalues --   -0.44222  -0.44154  -0.44140  -0.44021  -0.43817
 Alpha  occ. eigenvalues --   -0.43730  -0.43721  -0.43465  -0.43401  -0.43310
 Alpha  occ. eigenvalues --   -0.43160  -0.43084  -0.43072  -0.42702  -0.42568
 Alpha  occ. eigenvalues --   -0.42540  -0.42173  -0.41946  -0.41796  -0.41673
 Alpha  occ. eigenvalues --   -0.41556  -0.41352  -0.41255  -0.41157  -0.40949
 Alpha  occ. eigenvalues --   -0.40857  -0.40669  -0.40421  -0.40413  -0.40374
 Alpha  occ. eigenvalues --   -0.40307  -0.40210  -0.39914  -0.39141  -0.39103
 Alpha  occ. eigenvalues --   -0.38396  -0.38074  -0.37926  -0.37452  -0.37409
 Alpha  occ. eigenvalues --   -0.37290  -0.37119  -0.36951  -0.36854  -0.36596
 Alpha  occ. eigenvalues --   -0.36259  -0.35941  -0.34455  -0.34307  -0.33919
 Alpha  occ. eigenvalues --   -0.33679  -0.33317  -0.32824  -0.31374  -0.31152
 Alpha  occ. eigenvalues --   -0.30898  -0.30635  -0.30346  -0.29665  -0.29616
 Alpha  occ. eigenvalues --   -0.29473  -0.28919  -0.28806  -0.24195  -0.23691
 Alpha  occ. eigenvalues --   -0.21240  -0.20739
 Alpha virt. eigenvalues --   -0.08900  -0.08394  -0.01830  -0.01350  -0.00170
 Alpha virt. eigenvalues --    0.00381   0.01990   0.02332   0.02554   0.04179
 Alpha virt. eigenvalues --    0.04566   0.04593   0.05030   0.05341   0.05942

 Mulliken charges:
               1
     1  Mg   0.839178
     2  C   -0.004829
     3  C   -0.093676
     4  C   -0.045011
     5  C   -0.059638
     6  N   -0.257329
     7  C   -0.053186
     8  C   -0.014326
     9  C   -0.087314
    10  C    0.047195
    11  C    0.104656
    12  C    0.053203
    13  C   -0.071494
    14  H    0.033419
    15  N   -0.433632
    16  C    0.169894
    17  C   -0.175737
    18  C   -0.002778
    19  C    0.149444
    20  C    0.109780
    21  C    0.013373
    22  O   -0.248700
    23  C    0.061684
    24  N   -0.341706
    25  C    0.042885
    26  C   -0.028232
    27  C   -0.023999
    28  C    0.075426
    29  C    0.076277
    30  C    0.033695
    31  C   -0.003884
    32  N   -0.308102
    33  C    0.076778
    34  C   -0.180324
    35  C    0.006684
    36  C    0.080297
    37  C    0.128085
    38  C    0.038414
    39  O   -0.189634
    40  C   -0.005326
    41  C    0.216537
    42  O   -0.261966
    43  O   -0.302761
    44  C    0.157959
    45  H   -0.016960
    46  H   -0.015730
    47  H   -0.039430
    48  H    0.000372
    49  H   -0.003248
    50  H    0.025380
    51  H    0.017005
    52  H    0.017210
    53  H    0.013186
    54  H    0.041413
    55  H    0.018281
    56  H    0.019603
    57  H    0.006215
    58  H    0.027319
    59  H    0.042968
    60  H    0.037207
    61  H    0.036476
    62  H    0.034255
    63  H    0.017884
    64  H    0.008527
    65  H    0.023332
    66  H    0.011622
    67  H    0.005004
    68  H    0.003881
    69  H    0.007400
    70  H    0.001594
    71  H    0.032804
    72  H    0.026880
    73  H    0.043969
    74  H    0.013083
    75  H    0.046397
    76  H    0.036222
    77  H    0.044111
    78  H    0.047911
    79  H    0.050686
    80  Mg   0.835258
    81  C   -0.017148
    82  C   -0.081801
    83  C   -0.046890
    84  C   -0.065148
    85  N   -0.254342
    86  C   -0.051483
    87  C   -0.014983
    88  C   -0.090623
    89  C    0.044439
    90  C    0.114408
    91  C    0.061822
    92  C   -0.076786
    93  H    0.031153
    94  N   -0.424139
    95  C    0.161777
    96  C   -0.170349
    97  C   -0.010034
    98  C    0.151856
    99  C    0.099718
   100  C    0.017369
   101  O   -0.259204
   102  C    0.054554
   103  N   -0.350289
   104  C    0.038607
   105  C   -0.019797
   106  C   -0.034235
   107  C    0.088128
   108  C    0.074080
   109  C    0.034970
   110  C   -0.007365
   111  N   -0.323621
   112  C    0.076889
   113  C   -0.164615
   114  C    0.001553
   115  C    0.094809
   116  C    0.131825
   117  C    0.041070
   118  O   -0.190311
   119  C    0.001231
   120  C    0.211239
   121  O   -0.252580
   122  O   -0.305317
   123  C    0.152593
   124  H   -0.017766
   125  H   -0.016816
   126  H   -0.041718
   127  H   -0.001699
   128  H   -0.002819
   129  H    0.021754
   130  H    0.014753
   131  H    0.015993
   132  H    0.016074
   133  H    0.036054
   134  H    0.020637
   135  H    0.019811
   136  H    0.009822
   137  H    0.022016
   138  H    0.060664
   139  H    0.040166
   140  H    0.027193
   141  H    0.053552
   142  H    0.013234
   143  H    0.011536
   144  H    0.023638
   145  H    0.011842
   146  H    0.005332
   147  H    0.004878
   148  H    0.003136
   149  H    0.010299
   150  H    0.018625
   151  H    0.030284
   152  H    0.044446
   153  H    0.007738
   154  H    0.045888
   155  H    0.034403
   156  H    0.043349
   157  H    0.049174
   158  H    0.052134
 Sum of Mulliken charges =  -0.00000

 Dipole moment (field-independent basis, Debye):
    X=              2.9629    Y=              3.2438    Z=              1.1104  Tot=              4.5315
 Quadrupole moment (field-independent basis, Debye-Ang):
   XX=           -536.7890   YY=           -463.7016   ZZ=           -513.9477
   XY=              2.8887   XZ=             42.4588   YZ=             18.9638

 Normal termination of Gaussian 16 at Wed Sep  8 16:08:00 2021.
