 Gaussian 16, Revision A.03,
 Gaussian 16:  ES64L-G16RevA.03 25-Dec-2016

 -----------------------------------
 #p cam-b3lyp/Def2SVP td=(nstates=5)
 -----------------------------------

 --------------------------------
 TDDFT excited states in gaussian
 --------------------------------
 Symbolic Z-matrix:
 Charge =  0 Multiplicity = 1

                         Standard orientation:
 ---------------------------------------------------------------------
 Center     Atomic      Atomic             Coordinates (Angstroms)
 Number     Number       Type             X           Y           Z
 ---------------------------------------------------------------------
      1         12           0       15.636546   -0.774637    0.208972
      2          6           0       15.889467    2.182727   -1.791589
      3          6           0       16.489721    1.148931    2.895055
      4          6           0       15.863910   -3.441844    1.909247
      5          6           0       15.924111   -2.614160   -2.737063
      6          7           0       16.103787    1.380721    0.400707
      7          6           0       16.106934    2.416949   -0.431995
      8          6           0       16.288335    3.787009    0.287312
      9          6           0       17.019188    3.281505    1.611063
     10          6           0       16.479001    1.863159    1.660229
     11          6           0       18.538144    3.224484    1.484480
     12          6           0       14.919151    4.472366    0.614959
     13          6           0       15.006576    5.947413    1.017387
     14          1           0       13.943466    6.850499    0.603163
     15          7           0       15.627337   -1.051801    2.164974
     16          6           0       15.990623   -0.153663    3.111894
     17          6           0       15.807833   -0.835112    4.411470
     18          6           0       15.490119   -2.263730    4.135418
     19          6           0       15.675936   -2.316194    2.707799
     20          6           0       15.889633   -0.128539    5.729731
     21          6           0       15.093755   -3.403636    5.019523
     22          8           0       15.090655   -4.614188    4.608271
     23          6           0       14.790381   -3.071522    6.423342
     24          7           0       16.081538   -2.749596   -0.300102
     25          6           0       16.055987   -3.721494    0.618454
     26          6           0       16.125845   -5.077398   -0.019186
     27          6           0       15.959236   -4.836812   -1.588935
     28          6           0       15.901167   -3.289270   -1.585643
     29          6           0       17.411723   -5.874043    0.241364
     30          6           0       14.826559   -5.615890   -2.303427
     31          6           0       13.480828   -5.119291   -1.824370
     32          7           0       15.689083   -0.332171   -1.915295
     33          6           0       15.837068   -1.250862   -2.964476
     34          6           0       15.924494   -0.470771   -4.212627
     35          6           0       15.837374    0.856917   -3.798505
     36          6           0       15.730373    0.904289   -2.379139
     37          6           0       16.123667   -1.004212   -5.516547
     38          6           0       15.834565    2.247530   -4.222823
     39          8           0       15.804626    2.821666   -5.312302
     40          6           0       15.990790    3.165814   -2.931245
     41          6           0       14.953204    4.251766   -3.017454
     42          8           0       13.737380    3.982931   -2.934603
     43          8           0       15.555340    5.448716   -2.944736
     44          6           0       14.579171    6.569759   -2.994842
     45          1           0       16.976094    1.600624    3.761863
     46          1           0       15.837088   -4.391738    2.447225
     47          1           0       15.929745   -3.123107   -3.702669
     48          1           0       16.924625    4.497091   -0.241216
     49          1           0       16.699361    3.839512    2.490871
     50          1           0       18.860204    3.417936    0.461360
     51          1           0       18.817755    2.215194    1.787208
     52          1           0       19.012076    3.894680    2.202117
     53          1           0       14.518345    4.051879    1.537242
     54          1           0       14.225402    4.366930   -0.219859
     55          1           0       15.982318    6.369489    0.775129
     56          1           0       14.946986    6.009077    2.104055
     57          1           0       16.299727    0.874791    5.621582
     58          1           0       16.627188   -0.660124    6.330680
     59          1           0       14.931391   -0.117013    6.249319
     60          1           0       15.664210   -2.606320    6.880026
     61          1           0       14.440022   -3.995505    6.881983
     62          1           0       13.997743   -2.323076    6.445751
     63          1           0       15.317015   -5.716834    0.332014
     64          1           0       16.858654   -5.108392   -2.142078
     65          1           0       17.237674   -6.850748    0.693536
     66          1           0       18.064893   -5.264920    0.865568
     67          1           0       18.037143   -6.032441   -0.636803
     68          1           0       14.882850   -6.676061   -2.058857
     69          1           0       14.859369   -5.523786   -3.389103
     70          1           0       13.326969   -5.682299   -0.904489
     71          1           0       12.707196   -5.350170   -2.557444
     72          1           0       13.518275   -4.062951   -1.557481
     73          1           0       15.438282   -0.468514   -6.173239
     74          1           0       15.935622   -2.077417   -5.538297
     75          1           0       17.174051   -0.761016   -5.675936
     76          1           0       17.004232    3.565379   -2.951429
     77          1           0       14.875758    7.216976   -3.820300
     78          1           0       14.554316    7.003915   -1.995195
     79          1           0       13.562293    6.310558   -3.291681
     80         12           0      -16.110460   -0.521371   -0.235041
     81          6           0      -13.910331    1.823415    1.358851
     82          6           0      -18.569319    1.826606    0.039983
     83          6           0      -18.178932   -2.715656   -1.221945
     84          6           0      -13.850872   -3.025665    0.641577
     85          7           0      -16.116277    1.523222    0.608681
     86          6           0      -15.206294    2.331456    1.131210
     87          6           0      -15.691770    3.789197    1.352238
     88          6           0      -17.269543    3.505431    1.447052
     89          6           0      -17.337613    2.223969    0.618864
     90          6           0      -17.740386    3.188626    2.856768
     91          6           0      -15.348121    4.723966    0.139760
     92          6           0      -15.514584    6.220258    0.413930
     93          1           0      -14.580504    7.150986   -0.213537
     94          7           0      -17.934457   -0.319199   -0.990512
     95          6           0      -18.787092    0.708371   -0.794557
     96          6           0      -20.003863    0.371083   -1.549458
     97          6           0      -19.862302   -1.014969   -2.072457
     98          6           0      -18.635098   -1.420082   -1.416750
     99          6           0      -21.115373    1.352808   -1.782221
    100          6           0      -20.700378   -1.843726   -2.998196
    101          8           0      -20.513972   -3.105195   -3.127733
    102          6           0      -21.805649   -1.152410   -3.677849
    103          7           0      -16.136512   -2.595899   -0.100996
    104          6           0      -17.127660   -3.312380   -0.659750
    105          6           0      -16.793868   -4.785038   -0.676144
    106          6           0      -15.261409   -4.883214   -0.229489
    107          6           0      -14.988177   -3.392267    0.066843
    108          6           0      -17.646278   -5.670496    0.232561
    109          6           0      -14.296344   -5.635608   -1.186159
    110          6           0      -14.135237   -4.858475   -2.472815
    111          7           0      -14.137503   -0.598641    0.642182
    112          6           0      -13.383693   -1.753463    0.945903
    113          6           0      -12.156818   -1.303727    1.635074
    114          6           0      -12.293895    0.090811    1.705540
    115          6           0      -13.529045    0.480754    1.120856
    116          6           0      -11.129888   -2.149149    2.141819
    117          6           0      -11.679478    1.320721    2.151073
    118          8           0      -10.589846    1.621087    2.637086
    119          6           0      -12.756784    2.485819    2.059675
    120          6           0      -12.110245    3.664338    1.384677
    121          8           0      -11.752191    3.593682    0.195806
    122          8           0      -12.218642    4.742798    2.181892
    123          6           0      -11.601669    5.939884    1.550915
    124          1           0      -19.464653    2.400658    0.280268
    125          1           0      -18.805426   -3.504639   -1.644416
    126          1           0      -13.051107   -3.736749    0.859304
    127          1           0      -15.341345    4.250832    2.267595
    128          1           0      -17.842565    4.297409    0.971901
    129          1           0      -16.914045    3.090189    3.544949
    130          1           0      -18.284187    2.255979    2.782647
    131          1           0      -18.467197    3.935745    3.188271
    132          1           0      -16.107291    4.590542   -0.641656
    133          1           0      -14.356623    4.530849   -0.221172
    134          1           0      -15.609605    6.434931    1.485292
    135          1           0      -16.467084    6.546932   -0.010383
    136          1           0      -21.014127    2.235180   -1.138346
    137          1           0      -22.040741    0.874305   -1.443726
    138          1           0      -21.222936    1.625661   -2.834201
    139          1           0      -22.475959   -0.726066   -2.935290
    140          1           0      -22.232424   -1.887168   -4.363325
    141          1           0      -21.394424   -0.312932   -4.249493
    142          1           0      -16.895944   -5.193616   -1.674011
    143          1           0      -15.148562   -5.419027    0.724449
    144          1           0      -18.157001   -6.488638   -0.309543
    145          1           0      -18.366567   -5.043917    0.741599
    146          1           0      -17.112283   -6.129903    1.062624
    147          1           0      -14.715828   -6.606645   -1.460516
    148          1           0      -13.317022   -5.817711   -0.756317
    149          1           0      -15.009500   -5.162788   -3.056040
    150          1           0      -13.210217   -5.135530   -2.974434
    151          1           0      -14.217292   -3.780049   -2.294137
    152          1           0      -10.187789   -1.691551    1.870613
    153          1           0      -11.212275   -3.157913    1.742605
    154          1           0      -11.355693   -2.111053    3.210856
    155          1           0      -13.073538    2.719647    3.076805
    156          1           0      -10.861171    6.327539    2.257377
    157          1           0      -12.444261    6.606682    1.287905
    158          1           0      -10.991153    5.783226    0.669329
 ---------------------------------------------------------------------

 SCF Done:  E(RCAM-B3LYP) =  -4069.81176016     A.U. after   19 cycles

 Excitation energies and oscillator strengths:

 Excited State   1:      Singlet-A      1.6756 eV  739.96 nm  f=0.3672  <S**2>=0.000
     309 -> 315        0.17289
     311 -> 313        0.68320
     309 <- 315        0.10420
 This state for optimization and/or second-order correction.
 Total Energy, E(TD-HF/TD-DFT) =  -4069.75018462
 Copying the excited state density for this state as the 1-particle RhoCI density.

 Excited State   2:      Singlet-A      1.6799 eV  738.04 nm  f=0.4141  <S**2>=0.000
     310 -> 316        0.17483
     312 -> 314        0.68285
     310 <- 316        0.10470

 Excited State   3:      Singlet-A      2.1861 eV  567.15 nm  f=0.0946  <S**2>=0.000
     309 -> 313        0.64203
     311 -> 315       -0.27296

 Excited State   4:      Singlet-A      2.1925 eV  565.49 nm  f=0.1054  <S**2>=0.000
     310 -> 314        0.64027
     312 -> 316       -0.27811

 Excited State   5:      Singlet-A      3.0456 eV  407.09 nm  f=0.0000  <S**2>=0.000
     312 -> 313        0.70709

 The electronic state is 1-A.
 Alpha  occ. eigenvalues --  -46.87722 -46.87661 -19.26347 -19.26208 -19.19158
 Alpha  occ. eigenvalues --  -19.18942 -19.18741 -19.18714 -19.18097 -19.18051
 Alpha  occ. eigenvalues --  -14.42498 -14.42377 -14.41376 -14.41360 -14.39352
 Alpha  occ. eigenvalues --  -14.39329 -14.38600 -14.38513 -10.39088 -10.39003
 Alpha  occ. eigenvalues --  -10.35391 -10.35374 -10.34316 -10.34228 -10.31753
 Alpha  occ. eigenvalues --  -10.31603 -10.31332 -10.31309 -10.31024 -10.30835
 Alpha  occ. eigenvalues --  -10.30496 -10.30434 -10.30398 -10.30361 -10.30142
 Alpha  occ. eigenvalues --  -10.30134 -10.29895 -10.29848 -10.29557 -10.29437
 Alpha  occ. eigenvalues --  -10.29401 -10.29181 -10.28720 -10.28675 -10.28653
 Alpha  occ. eigenvalues --  -10.28460 -10.28405 -10.28291 -10.28142 -10.28044
 Alpha  occ. eigenvalues --  -10.28001 -10.27720 -10.27670 -10.27654 -10.27518
 Alpha  occ. eigenvalues --  -10.27511 -10.27484 -10.27468 -10.27465 -10.27430
 Alpha  occ. eigenvalues --  -10.27408 -10.27379 -10.27377 -10.27330 -10.27085
 Alpha  occ. eigenvalues --  -10.27050 -10.26692 -10.26627 -10.26415 -10.26335
 Alpha  occ. eigenvalues --  -10.26166 -10.26135 -10.26111 -10.26029 -10.25946
 Alpha  occ. eigenvalues --  -10.25935 -10.25850 -10.25773 -10.25400 -10.25369
 Alpha  occ. eigenvalues --  -10.24873 -10.24760 -10.24726 -10.24715 -10.24690
 Alpha  occ. eigenvalues --  -10.24610  -3.16465  -3.16410  -1.91347  -1.91293
 Alpha  occ. eigenvalues --   -1.90933  -1.90881  -1.90775  -1.90718  -1.16641
 Alpha  occ. eigenvalues --   -1.16557  -1.08658  -1.08554  -1.07142  -1.06966
 Alpha  occ. eigenvalues --   -1.06942  -1.06565  -1.04507  -1.04496  -1.03687
 Alpha  occ. eigenvalues --   -1.03663  -1.03160  -1.03039  -1.02338  -1.02112
 Alpha  occ. eigenvalues --   -0.91987  -0.91899  -0.89494  -0.89447  -0.89152
 Alpha  occ. eigenvalues --   -0.89114  -0.88220  -0.88215  -0.87798  -0.87794
 Alpha  occ. eigenvalues --   -0.87684  -0.87599  -0.87200  -0.87120  -0.85000
 Alpha  occ. eigenvalues --   -0.84908  -0.83876  -0.83864  -0.82931  -0.82893
 Alpha  occ. eigenvalues --   -0.82653  -0.82575  -0.81595  -0.81511  -0.80522
 Alpha  occ. eigenvalues --   -0.80442  -0.78724  -0.78636  -0.77145  -0.77145
 Alpha  occ. eigenvalues --   -0.76898  -0.76861  -0.75850  -0.75839  -0.74827
 Alpha  occ. eigenvalues --   -0.74803  -0.72701  -0.72699  -0.71600  -0.71582
 Alpha  occ. eigenvalues --   -0.69834  -0.69757  -0.68827  -0.68799  -0.67602
 Alpha  occ. eigenvalues --   -0.67568  -0.67200  -0.67144  -0.65272  -0.65212
 Alpha  occ. eigenvalues --   -0.64780  -0.64770  -0.64653  -0.64547  -0.64204
 Alpha  occ. eigenvalues --   -0.64197  -0.62277  -0.62223  -0.60369  -0.60340
 Alpha  occ. eigenvalues --   -0.59797  -0.59731  -0.58993  -0.58914  -0.58430
 Alpha  occ. eigenvalues --   -0.58425  -0.57554  -0.57510  -0.57236  -0.57236
 Alpha  occ. eigenvalues --   -0.56237  -0.56204  -0.55903  -0.55885  -0.55452
 Alpha  occ. eigenvalues --   -0.55447  -0.55267  -0.55247  -0.54487  -0.54450
 Alpha  occ. eigenvalues --   -0.53913  -0.53821  -0.53228  -0.53225  -0.53148
 Alpha  occ. eigenvalues --   -0.53141  -0.52902  -0.52840  -0.52682  -0.52668
 Alpha  occ. eigenvalues --   -0.52399  -0.52364  -0.51884  -0.51843  -0.51659
 Alpha  occ. eigenvalues --   -0.51542  -0.51201  -0.51122  -0.50498  -0.50475
 Alpha  occ. eigenvalues --   -0.49980  -0.49959  -0.49867  -0.49845  -0.49488
 Alpha  occ. eigenvalues --   -0.49441  -0.49202  -0.49141  -0.49105  -0.49023
 Alpha  occ. eigenvalues --   -0.48558  -0.48520  -0.48389  -0.48376  -0.48372
 Alpha  occ. eigenvalues --   -0.48339  -0.47621  -0.47595  -0.47224  -0.47119
 Alpha  occ. eigenvalues --   -0.46724  -0.46709  -0.46554  -0.46481  -0.46286
 Alpha  occ. eigenvalues --   -0.46270  -0.46090  -0.46086  -0.45822  -0.45749
 Alpha  occ. eigenvalues --   -0.45209  -0.45130  -0.44514  -0.44504  -0.44476
 Alpha  occ. eigenvalues --   -0.44433  -0.44128  -0.44077  -0.44071  -0.44015
 Alpha  occ. eigenvalues --   -0.43946  -0.43939  -0.43552  -0.43421  -0.43386
 Alpha  occ. eigenvalues --   -0.43313  -0.42954  -0.42929  -0.42901  -0.42624
 Alpha  occ. eigenvalues --   -0.42580  -0.42553  -0.41963  -0.41936  -0.41669
 Alpha  occ. eigenvalues --   -0.41631  -0.41459  -0.41459  -0.41069  -0.40991
 Alpha  occ. eigenvalues --   -0.40795  -0.40749  -0.40722  -0.40698  -0.40499
 Alpha  occ. eigenvalues --   -0.40493  -0.40227  -0.40158  -0.39424  -0.39367
 Alpha  occ. eigenvalues --   -0.38397  -0.38351  -0.37672  -0.37653  -0.37266
 Alpha  occ. eigenvalues --   -0.37248  -0.37200  -0.37189  -0.36769  -0.36638
 Alpha  occ. eigenvalues --   -0.36217  -0.36118  -0.34254  -0.34212  -0.33859
 Alpha  occ. eigenvalues --   -0.33693  -0.33176  -0.33113  -0.31273  -0.31271
 Alpha  occ. eigenvalues --   -0.30973  -0.30962  -0.29956  -0.29955  -0.29375
 Alpha  occ. eigenvalues --   -0.29327  -0.29248  -0.29212  -0.24037  -0.24007
 Alpha  occ. eigenvalues --   -0.21117  -0.21054
 Alpha virt. eigenvalues --   -0.08792  -0.08701  -0.01684  -0.01676  -0.00029
 Alpha virt. eigenvalues --    0.00016   0.02207   0.02273   0.03201   0.03229
 Alpha virt. eigenvalues --    0.04729   0.04792   0.05167   0.05174   0.06183

 Mulliken charges:
               1
     1  Mg   0.838771
     2  C   -0.002938
     3  C   -0.094078
     4  C   -0.045861
     5  C   -0.063977
     6  N   -0.256774
     7  C   -0.052449
     8  C   -0.014021
     9  C   -0.086977
    10  C    0.046327
    11  C    0.104826
    12  C    0.053447
    13  C   -0.071831
    14  H    0.036251
    15  N   -0.433110
    16  C    0.168448
    17  C   -0.177156
    18  C   -0.003991
    19  C    0.148746
    20  C    0.110199
    21  C    0.012330
    22  O   -0.249651
    23  C    0.062447
    24  N   -0.341127
    25  C    0.041234
    26  C   -0.028159
    27  C   -0.023981
    28  C    0.074874
    29  C    0.076207
    30  C    0.035133
    31  C   -0.004508
    32  N   -0.310457
    33  C    0.080415
    34  C   -0.169705
    35  C    0.008349
    36  C    0.083008
    37  C    0.127304
    38  C    0.046129
    39  O   -0.188477
    40  C   -0.005346
    41  C    0.212874
    42  O   -0.256979
    43  O   -0.304856
    44  C    0.157678
    45  H   -0.017650
    46  H   -0.016868
    47  H   -0.041532
    48  H    0.000879
    49  H   -0.004012
    50  H    0.025427
    51  H    0.016405
    52  H    0.016598
    53  H    0.011288
    54  H    0.044205
    55  H    0.017771
    56  H    0.017961
    57  H    0.005856
    58  H    0.026748
    59  H    0.039651
    60  H    0.037279
    61  H    0.035652
    62  H    0.031626
    63  H    0.016586
    64  H    0.009377
    65  H    0.023168
    66  H    0.012500
    67  H    0.004677
    68  H    0.006303
    69  H    0.004698
    70  H    0.008801
    71  H    0.018211
    72  H    0.029055
    73  H    0.047597
    74  H    0.009099
    75  H    0.045917
    76  H    0.035071
    77  H    0.042877
    78  H    0.046404
    79  H    0.053790
    80  Mg   0.837855
    81  C   -0.016826
    82  C   -0.087791
    83  C   -0.045492
    84  C   -0.064882
    85  N   -0.254562
    86  C   -0.049830
    87  C   -0.015108
    88  C   -0.090517
    89  C    0.045778
    90  C    0.114389
    91  C    0.062520
    92  C   -0.077914
    93  H    0.034972
    94  N   -0.423484
    95  C    0.162913
    96  C   -0.174624
    97  C   -0.007791
    98  C    0.152108
    99  C    0.099367
   100  C    0.015581
   101  O   -0.253175
   102  C    0.061190
   103  N   -0.350070
   104  C    0.037514
   105  C   -0.019840
   106  C   -0.034819
   107  C    0.088921
   108  C    0.073664
   109  C    0.034734
   110  C   -0.007693
   111  N   -0.324089
   112  C    0.078457
   113  C   -0.163094
   114  C    0.002247
   115  C    0.096214
   116  C    0.131472
   117  C    0.042413
   118  O   -0.187834
   119  C    0.000922
   120  C    0.211254
   121  O   -0.250936
   122  O   -0.305669
   123  C    0.152001
   124  H   -0.019674
   125  H   -0.015568
   126  H   -0.040430
   127  H   -0.000668
   128  H   -0.004311
   129  H    0.022427
   130  H    0.014405
   131  H    0.016263
   132  H    0.013943
   133  H    0.037726
   134  H    0.020743
   135  H    0.019594
   136  H    0.008757
   137  H    0.026128
   138  H    0.039832
   139  H    0.038239
   140  H    0.036419
   141  H    0.033928
   142  H    0.014434
   143  H    0.012394
   144  H    0.025150
   145  H    0.011607
   146  H    0.005651
   147  H    0.006267
   148  H    0.003680
   149  H    0.010937
   150  H    0.018021
   151  H    0.030109
   152  H    0.046095
   153  H    0.008549
   154  H    0.046888
   155  H    0.034969
   156  H    0.043897
   157  H    0.049479
   158  H    0.053669
 Sum of Mulliken charges =  -0.00000

 Dipole moment (field-independent basis, Debye):
    X=             -2.1711    Y=              2.4207    Z=              4.6807  Tot=              5.6993
 Quadrupole moment (field-independent basis, Debye-Ang):
   XX=           -336.6019   YY=           -468.1521   ZZ=           -521.0877
   XY=            -35.8802   XZ=             45.5758   YZ=             29.8100

 Normal termination of Gaussian 16 at Sun Sep 12 15:27:04 2021.
