 Gaussian 16, Revision A.03,
 Gaussian 16:  ES64L-G16RevA.03 25-Dec-2016

 -----------------------------------
 #p cam-b3lyp/Def2SVP td=(nstates=5)
 -----------------------------------

 --------------------------------
 TDDFT excited states in gaussian
 --------------------------------
 Symbolic Z-matrix:
 Charge =  0 Multiplicity = 1

                         Standard orientation:
 ---------------------------------------------------------------------
 Center     Atomic      Atomic             Coordinates (Angstroms)
 Number     Number       Type             X           Y           Z
 ---------------------------------------------------------------------
      1         12           0       -4.253585   -0.063999   -0.126153
      2          6           0       -3.888478   -3.338404    1.272840
      3          6           0       -5.197270    0.994648    2.977359
      4          6           0       -5.018128    2.724389   -1.428837
      5          6           0       -4.389806   -1.579501   -3.261493
      6          7           0       -4.474203   -1.130847    1.800971
      7          6           0       -4.245506   -2.372689    2.216540
      8          6           0       -4.347337   -2.535399    3.762674
      9          6           0       -5.295691   -1.294796    4.084429
     10          6           0       -4.943545   -0.407218    2.903699
     11          6           0       -6.782008   -1.631250    4.019925
     12          6           0       -2.957006   -2.391888    4.468446
     13          6           0       -2.913495   -2.857015    5.926910
     14          1           0       -1.704225   -3.497264    6.421981
     15          7           0       -4.525264    1.707196    0.705658
     16          6           0       -4.892580    1.952704    1.986318
     17          6           0       -4.959970    3.424203    2.116045
     18          6           0       -4.787048    4.009161    0.757363
     19          6           0       -4.796218    2.820940   -0.057145
     20          6           0       -5.120469    4.128011    3.428540
     21          6           0       -4.647812    5.416495    0.269351
     22          8           0       -4.740880    5.719219   -0.969306
     23          6           0       -4.485715    6.456630    1.301285
     24          7           0       -4.868897    0.486574   -2.043416
     25          6           0       -5.078508    1.769299   -2.359108
     26          6           0       -5.232601    1.948922   -3.840300
     27          6           0       -4.841060    0.547826   -4.498613
     28          6           0       -4.595082   -0.261798   -3.201588
     29          6           0       -6.628763    2.366761   -4.322123
     30          6           0       -3.731099    0.564418   -5.579414
     31          6           0       -2.406045    0.929775   -4.948665
     32          7           0       -3.983112   -2.070062   -0.909480
     33          6           0       -4.108719   -2.477572   -2.245456
     34          6           0       -3.941877   -3.942405   -2.267788
     35          6           0       -3.746031   -4.289446   -0.932478
     36          6           0       -3.814030   -3.118947   -0.124023
     37          6           0       -4.038618   -4.774740   -3.417697
     38          6           0       -3.519676   -5.379864    0.002193
     39          8           0       -3.282504   -6.583422   -0.110462
     40          6           0       -3.724187   -4.823517    1.480191
     41          6           0       -2.559080   -5.293282    2.307932
     42          8           0       -1.405503   -4.872179    2.085901
     43          8           0       -3.014665   -5.972793    3.371534
     44          6           0       -1.910286   -6.441847    4.250448
     45          1           0       -5.730237    1.389738    3.844418
     46          1           0       -5.175767    3.679986   -1.933240
     47          1           0       -4.335722   -2.110899   -4.213409
     48          1           0       -4.820198   -3.460754    4.092134
     49          1           0       -5.023645   -0.806484    5.019985
     50          1           0       -6.946281   -2.638136    3.636366
     51          1           0       -7.218886   -0.892016    3.348237
     52          1           0       -7.257185   -1.473852    4.988537
     53          1           0       -2.730247   -1.334422    4.604111
     54          1           0       -2.181587   -2.908708    3.901923
     55          1           0       -3.791870   -3.450388    6.182399
     56          1           0       -2.984433   -1.978223    6.567920
     57          1           0       -5.387850    3.434471    4.224816
     58          1           0       -5.987390    4.781820    3.335313
     59          1           0       -4.241302    4.717973    3.688044
     60          1           0       -5.346699    6.437610    1.969787
     61          1           0       -4.311671    7.388412    0.764312
     62          1           0       -3.616722    6.214092    1.913636
     63          1           0       -4.558868    2.719394   -4.212970
     64          1           0       -5.689881    0.078362   -4.996389
     65          1           0       -6.633916    3.290809   -4.900754
     66          1           0       -7.276065    2.448231   -3.449396
     67          1           0       -7.152992    1.614795   -4.911316
     68          1           0       -3.947014    1.320940   -6.333074
     69          1           0       -3.615121   -0.390648   -6.091907
     70          1           0       -2.439514    2.018428   -4.925292
     71          1           0       -1.580165    0.577768   -5.567716
     72          1           0       -2.347426    0.583343   -3.916660
     73          1           0       -3.215518   -5.485960   -3.349566
     74          1           0       -3.981981   -4.190074   -4.335609
     75          1           0       -5.022805   -5.217189   -3.264495
     76          1           0       -4.670455   -5.227234    1.838957
     77          1           0       -2.018943   -7.521529    4.353951
     78          1           0       -1.958889   -5.839157    5.157536
     79          1           0       -0.903463   -6.375067    3.836700
     80         12           0        3.589156    1.186675   -0.409269
     81          6           0        6.258737   -1.209445   -0.304171
     82          6           0        5.216446    2.885147    2.060899
     83          6           0        1.044135    3.065129   -0.160905
     84          6           0        1.660093   -1.239658   -2.002176
     85          7           0        5.485331    0.789359    0.657946
     86          6           0        6.445671   -0.118598    0.570214
     87          6           0        7.711085    0.200328    1.410791
     88          6           0        7.035756    1.159379    2.507620
     89          6           0        5.855787    1.676181    1.687086
     90          6           0        6.488809    0.407343    3.709548
     91          6           0        8.804958    0.958858    0.580062
     92          6           0       10.182393    1.028818    1.243033
     93          1           0       11.368075    0.961455    0.393275
     94          7           0        3.395915    2.986563    0.404143
     95          6           0        4.157138    3.524456    1.380090
     96          6           0        3.594960    4.858946    1.639416
     97          6           0        2.339517    5.000009    0.852835
     98          6           0        2.197050    3.652211    0.339791
     99          6           0        4.285159    5.880234    2.496158
    100          6           0        1.412780    6.153348    0.613733
    101          8           0        0.254050    5.988911    0.091098
    102          6           0        1.863782    7.467377    1.094761
    103          7           0        1.570141    0.884818   -0.802695
    104          6           0        0.681233    1.883596   -0.660490
    105          6           0       -0.654376    1.514735   -1.260884
    106          6           0       -0.406340    0.148149   -2.053659
    107          6           0        1.073598   -0.093799   -1.684038
    108          6           0       -1.800788    1.325758   -0.267696
    109          6           0       -0.807228    0.122228   -3.554094
    110          6           0        0.095643    1.040901   -4.345473
    111          7           0        3.929269   -0.789208   -1.214438
    112          6           0        2.976721   -1.640940   -1.815508
    113          6           0        3.655652   -2.922009   -2.098957
    114          6           0        4.960212   -2.733150   -1.618374
    115          6           0        5.079828   -1.433746   -1.055591
    116          6           0        3.051726   -4.073032   -2.679072
    117          6           0        6.260334   -3.341345   -1.449597
    118          8           0        6.778879   -4.397180   -1.810258
    119          6           0        7.123477   -2.427201   -0.477123
    120          6           0        8.480621   -2.240314   -1.098192
    121          8           0        8.606351   -1.615889   -2.166322
    122          8           0        9.423550   -2.637586   -0.224443
    123          6           0       10.787378   -2.461179   -0.790725
    124          1           0        5.525750    3.370871    2.986796
    125          1           0        0.164213    3.711481   -0.199028
    126          1           0        1.154521   -2.011867   -2.585916
    127          1           0        8.163104   -0.657235    1.894557
    128          1           0        7.698525    1.976913    2.779167
    129          1           0        6.539309   -0.662611    3.572455
    130          1           0        5.460298    0.727309    3.813640
    131          1           0        6.998995    0.731471    4.621128
    132          1           0        8.555780    2.027415    0.551338
    133          1           0        8.897627    0.537696   -0.402113
    134          1           0       10.271472    0.329413    2.083182
    135          1           0       10.297343    2.014144    1.701220
    136          1           0        5.104723    5.433886    3.072781
    137          1           0        3.563204    6.201924    3.254551
    138          1           0        4.614049    6.753293    1.928483
    139          1           0        2.042523    7.417845    2.166236
    140          1           0        1.109090    8.178435    0.753109
    141          1           0        2.826211    7.700237    0.625588
    142          1           0       -0.986064    2.271822   -1.960815
    143          1           0       -0.978897   -0.684544   -1.619342
    144          1           0       -2.669442    1.979092   -0.474311
    145          1           0       -1.420856    1.502424    0.729784
    146          1           0       -2.183775    0.309468   -0.192403
    147          1           0       -1.824148    0.501593   -3.680999
    148          1           0       -0.776543   -0.869751   -3.992299
    149          1           0       -0.364476    2.023086   -4.201647
    150          1           0        0.103170    0.758621   -5.396338
    151          1           0        1.099524    1.079747   -3.906876
    152          1           0        3.751757   -4.457536   -3.408869
    153          1           0        2.093434   -3.832305   -3.134605
    154          1           0        2.938113   -4.701748   -1.791902
    155          1           0        7.180522   -2.935971    0.485936
    156          1           0       11.283666   -3.435141   -0.737952
    157          1           0       11.243545   -1.631722   -0.218308
    158          1           0       10.866047   -2.240789   -1.848882
 ---------------------------------------------------------------------

 SCF Done:  E(RCAM-B3LYP) =  -4069.52422227     A.U. after   19 cycles

 Excitation energies and oscillator strengths:

 Excited State   1:      Singlet-A      1.6283 eV  761.41 nm  f=0.0052  <S**2>=0.000
     309 -> 315        0.10574
     310 -> 316       -0.12155
     311 -> 313        0.45154
     312 -> 314        0.51981
 This state for optimization and/or second-order correction.
 Total Energy, E(TD-HF/TD-DFT) =  -4069.46438170
 Copying the excited state density for this state as the 1-particle RhoCI density.

 Excited State   2:      Singlet-A      1.7139 eV  723.40 nm  f=0.6596  <S**2>=0.000
     309 -> 315        0.13918
     310 -> 316        0.11932
     311 -> 313        0.51601
     312 -> 314       -0.44814

 Excited State   3:      Singlet-A      2.1461 eV  577.72 nm  f=0.0355  <S**2>=0.000
     309 -> 313        0.41273
     311 -> 315       -0.17781
     312 -> 313        0.53676

 Excited State   4:      Singlet-A      2.1787 eV  569.07 nm  f=0.0959  <S**2>=0.000
     309 -> 313        0.12793
     310 -> 314        0.60962
     312 -> 313       -0.17798
     312 -> 316        0.25478

 Excited State   5:      Singlet-A      2.1961 eV  564.58 nm  f=0.0679  <S**2>=0.000
     309 -> 313        0.47298
     310 -> 314       -0.19770
     311 -> 315       -0.20643
     312 -> 313       -0.42120

 The electronic state is 1-A.
 Alpha  occ. eigenvalues --  -46.87528 -46.87283 -19.26302 -19.26125 -19.19049
 Alpha  occ. eigenvalues --  -19.18925 -19.18640 -19.18462 -19.18201 -19.17776
 Alpha  occ. eigenvalues --  -14.42462 -14.42145 -14.41583 -14.40938 -14.39112
 Alpha  occ. eigenvalues --  -14.38995 -14.38593 -14.38232 -10.39107 -10.38845
 Alpha  occ. eigenvalues --  -10.35264 -10.35150 -10.34426 -10.33943 -10.31683
 Alpha  occ. eigenvalues --  -10.31563 -10.31548 -10.30936 -10.30904 -10.30769
 Alpha  occ. eigenvalues --  -10.30710 -10.30570 -10.30348 -10.30192 -10.29977
 Alpha  occ. eigenvalues --  -10.29902 -10.29732 -10.29551 -10.29535 -10.29299
 Alpha  occ. eigenvalues --  -10.29155 -10.28954 -10.28792 -10.28573 -10.28471
 Alpha  occ. eigenvalues --  -10.28464 -10.28397 -10.28182 -10.28134 -10.27855
 Alpha  occ. eigenvalues --  -10.27853 -10.27785 -10.27717 -10.27704 -10.27699
 Alpha  occ. eigenvalues --  -10.27674 -10.27452 -10.27435 -10.27417 -10.27306
 Alpha  occ. eigenvalues --  -10.27207 -10.27188 -10.27149 -10.27075 -10.26763
 Alpha  occ. eigenvalues --  -10.26740 -10.26703 -10.26689 -10.26475 -10.26297
 Alpha  occ. eigenvalues --  -10.26281 -10.26269 -10.26144 -10.26007 -10.25967
 Alpha  occ. eigenvalues --  -10.25760 -10.25587 -10.25418 -10.25324 -10.25027
 Alpha  occ. eigenvalues --  -10.24877 -10.24644 -10.24577 -10.24390 -10.24006
 Alpha  occ. eigenvalues --  -10.22298  -3.16300  -3.16034  -1.91188  -1.90917
 Alpha  occ. eigenvalues --   -1.90774  -1.90614  -1.90504  -1.90342  -1.16652
 Alpha  occ. eigenvalues --   -1.16416  -1.08662  -1.08377  -1.07019  -1.06728
 Alpha  occ. eigenvalues --   -1.06709  -1.06669  -1.04649  -1.04152  -1.03912
 Alpha  occ. eigenvalues --   -1.03320  -1.03286  -1.02662  -1.02503  -1.01767
 Alpha  occ. eigenvalues --   -0.93806  -0.92024  -0.91655  -0.89408  -0.89224
 Alpha  occ. eigenvalues --   -0.88907  -0.88644  -0.88195  -0.87957  -0.87785
 Alpha  occ. eigenvalues --   -0.87456  -0.87350  -0.87230  -0.86854  -0.86471
 Alpha  occ. eigenvalues --   -0.85043  -0.84676  -0.83625  -0.82968  -0.82651
 Alpha  occ. eigenvalues --   -0.82589  -0.82398  -0.81667  -0.81344  -0.80656
 Alpha  occ. eigenvalues --   -0.80192  -0.79024  -0.78527  -0.78213  -0.77169
 Alpha  occ. eigenvalues --   -0.76810  -0.76706  -0.76227  -0.75768  -0.75558
 Alpha  occ. eigenvalues --   -0.75133  -0.74149  -0.72735  -0.72315  -0.71779
 Alpha  occ. eigenvalues --   -0.71503  -0.69459  -0.69002  -0.68533  -0.67698
 Alpha  occ. eigenvalues --   -0.67385  -0.67251  -0.66978  -0.66713  -0.65256
 Alpha  occ. eigenvalues --   -0.64950  -0.64894  -0.64596  -0.64402  -0.64247
 Alpha  occ. eigenvalues --   -0.63478  -0.62409  -0.61997  -0.60601  -0.60107
 Alpha  occ. eigenvalues --   -0.59898  -0.59517  -0.59187  -0.58966  -0.58724
 Alpha  occ. eigenvalues --   -0.58444  -0.58191  -0.57604  -0.57282  -0.57247
 Alpha  occ. eigenvalues --   -0.57128  -0.56422  -0.56129  -0.55998  -0.55769
 Alpha  occ. eigenvalues --   -0.55571  -0.55505  -0.55182  -0.55116  -0.54682
 Alpha  occ. eigenvalues --   -0.54262  -0.53937  -0.53681  -0.53633  -0.53214
 Alpha  occ. eigenvalues --   -0.53090  -0.52918  -0.52885  -0.52741  -0.52648
 Alpha  occ. eigenvalues --   -0.52463  -0.52375  -0.52005  -0.51616  -0.51484
 Alpha  occ. eigenvalues --   -0.51416  -0.51361  -0.51034  -0.50450  -0.50421
 Alpha  occ. eigenvalues --   -0.50182  -0.50051  -0.49809  -0.49723  -0.49673
 Alpha  occ. eigenvalues --   -0.49275  -0.49247  -0.49187  -0.49105  -0.48911
 Alpha  occ. eigenvalues --   -0.48797  -0.48617  -0.48572  -0.48272  -0.48249
 Alpha  occ. eigenvalues --   -0.48070  -0.47686  -0.47459  -0.47416  -0.47279
 Alpha  occ. eigenvalues --   -0.47034  -0.46685  -0.46633  -0.46499  -0.46350
 Alpha  occ. eigenvalues --   -0.46308  -0.46244  -0.46030  -0.45825  -0.45737
 Alpha  occ. eigenvalues --   -0.45613  -0.45391  -0.44906  -0.44598  -0.44395
 Alpha  occ. eigenvalues --   -0.44274  -0.44222  -0.44149  -0.43937  -0.43906
 Alpha  occ. eigenvalues --   -0.43831  -0.43672  -0.43620  -0.43490  -0.43352
 Alpha  occ. eigenvalues --   -0.43161  -0.42994  -0.42820  -0.42699  -0.42652
 Alpha  occ. eigenvalues --   -0.42581  -0.42438  -0.42090  -0.41765  -0.41646
 Alpha  occ. eigenvalues --   -0.41523  -0.41390  -0.41269  -0.41040  -0.40791
 Alpha  occ. eigenvalues --   -0.40751  -0.40704  -0.40656  -0.40494  -0.40341
 Alpha  occ. eigenvalues --   -0.40187  -0.40003  -0.39508  -0.39345  -0.38628
 Alpha  occ. eigenvalues --   -0.38452  -0.37722  -0.37679  -0.37463  -0.37343
 Alpha  occ. eigenvalues --   -0.37144  -0.36883  -0.36737  -0.36568  -0.36227
 Alpha  occ. eigenvalues --   -0.36016  -0.34317  -0.34062  -0.33810  -0.33609
 Alpha  occ. eigenvalues --   -0.33285  -0.32817  -0.31281  -0.31083  -0.31024
 Alpha  occ. eigenvalues --   -0.30649  -0.30061  -0.29669  -0.29420  -0.29277
 Alpha  occ. eigenvalues --   -0.28987  -0.28871  -0.27062  -0.24157  -0.23660
 Alpha  occ. eigenvalues --   -0.21281  -0.20728
 Alpha virt. eigenvalues --   -0.08860  -0.08436  -0.01974  -0.01354  -0.00014
 Alpha virt. eigenvalues --    0.00257   0.02058   0.02590   0.03495   0.04530
 Alpha virt. eigenvalues --    0.05012   0.05076   0.05383   0.05429   0.06414

 Mulliken charges:
               1
     1  Mg   0.628401
     2  C    0.004068
     3  C   -0.092716
     4  C   -0.049578
     5  C   -0.067110
     6  N   -0.244804
     7  C   -0.052623
     8  C   -0.013607
     9  C   -0.086259
    10  C    0.050629
    11  C    0.104960
    12  C    0.052848
    13  C   -0.071796
    14  H    0.036201
    15  N   -0.433781
    16  C    0.176479
    17  C   -0.176789
    18  C   -0.002468
    19  C    0.137485
    20  C    0.110914
    21  C    0.022034
    22  O   -0.247875
    23  C    0.061253
    24  N   -0.319356
    25  C    0.041086
    26  C   -0.025779
    27  C   -0.029368
    28  C    0.059325
    29  C    0.079050
    30  C    0.137603
    31  C   -0.076216
    32  N   -0.304056
    33  C    0.076429
    34  C   -0.172565
    35  C    0.008005
    36  C    0.078833
    37  C    0.127817
    38  C    0.046423
    39  O   -0.188150
    40  C   -0.009468
    41  C    0.212872
    42  O   -0.257126
    43  O   -0.304817
    44  C    0.157486
    45  H   -0.018289
    46  H   -0.016680
    47  H   -0.043712
    48  H    0.000697
    49  H   -0.004225
    50  H    0.025788
    51  H    0.016797
    52  H    0.016881
    53  H    0.012130
    54  H    0.044913
    55  H    0.017957
    56  H    0.017795
    57  H    0.005320
    58  H    0.027212
    59  H    0.041827
    60  H    0.033630
    61  H    0.038116
    62  H    0.038120
    63  H    0.015576
    64  H    0.008550
    65  H    0.023877
    66  H    0.013661
    67  H    0.005492
    68  H   -0.011478
    69  H   -0.004766
    70  H    0.019122
    71  H    0.046505
    72  H    0.113029
    73  H    0.046722
    74  H    0.007599
    75  H    0.046698
    76  H    0.035439
    77  H    0.043270
    78  H    0.046284
    79  H    0.054065
    80  Mg   0.837433
    81  C   -0.018014
    82  C   -0.088350
    83  C   -0.048961
    84  C   -0.063527
    85  N   -0.254627
    86  C   -0.048772
    87  C   -0.015265
    88  C   -0.090312
    89  C    0.045070
    90  C    0.114774
    91  C    0.062611
    92  C   -0.077401
    93  H    0.034073
    94  N   -0.422304
    95  C    0.161356
    96  C   -0.176821
    97  C   -0.009831
    98  C    0.149752
    99  C    0.100306
   100  C    0.013040
   101  O   -0.254977
   102  C    0.061350
   103  N   -0.349439
   104  C    0.039897
   105  C   -0.002324
   106  C   -0.040307
   107  C    0.102789
   108  C    0.077372
   109  C    0.006775
   110  C    0.015253
   111  N   -0.325016
   112  C    0.079878
   113  C   -0.159980
   114  C    0.002137
   115  C    0.097873
   116  C    0.132625
   117  C    0.043131
   118  O   -0.187443
   119  C    0.000859
   120  C    0.211078
   121  O   -0.251509
   122  O   -0.305544
   123  C    0.152241
   124  H   -0.021519
   125  H   -0.017167
   126  H   -0.037399
   127  H   -0.000974
   128  H   -0.005339
   129  H    0.022505
   130  H    0.014225
   131  H    0.014767
   132  H    0.013916
   133  H    0.037477
   134  H    0.020550
   135  H    0.019177
   136  H    0.007771
   137  H    0.023095
   138  H    0.038328
   139  H    0.036364
   140  H    0.035053
   141  H    0.034332
   142  H    0.009995
   143  H    0.032004
   144  H    0.109549
   145  H    0.036417
   146  H    0.013363
   147  H   -0.054604
   148  H   -0.008506
   149  H    0.003800
   150  H    0.011930
   151  H    0.023959
   152  H    0.044042
   153  H    0.009308
   154  H    0.053727
   155  H    0.035153
   156  H    0.043572
   157  H    0.049136
   158  H    0.053225
 Sum of Mulliken charges =  -0.00000

 Dipole moment (field-independent basis, Debye):
    X=             -2.2681    Y=              5.2061    Z=              6.3895  Tot=              8.5484
 Quadrupole moment (field-independent basis, Debye-Ang):
   XX=           -482.3731   YY=           -549.9365   ZZ=           -462.5580
   XY=             29.5636   XZ=             20.5508   YZ=              8.7893

 Normal termination of Gaussian 16 at Thu Sep  9 10:11:16 2021.
