 Gaussian 16, Revision A.03,
 Gaussian 16:  ES64L-G16RevA.03 25-Dec-2016

 -----------------------------------
 #p cam-b3lyp/Def2SVP td=(nstates=5)
 -----------------------------------

 --------------------------------
 TDDFT excited states in gaussian
 --------------------------------
 Symbolic Z-matrix:
 Charge =  0 Multiplicity = 1

                         Standard orientation:
 ---------------------------------------------------------------------
 Center     Atomic      Atomic             Coordinates (Angstroms)
 Number     Number       Type             X           Y           Z
 ---------------------------------------------------------------------
      1         12           0       -3.396262   -1.875445    0.400408
      2          6           0       -5.232275    0.914500   -0.887021
      3          6           0       -3.675114   -3.294787   -2.690025
      4          6           0       -2.180185   -4.533215    1.630872
      5          6           0       -4.242882   -0.769728    3.595136
      6          7           0       -4.353855   -1.179220   -1.470135
      7          6           0       -4.972311   -0.064883   -1.848204
      8          6           0       -5.251649   -0.002487   -3.379691
      9          6           0       -5.243513   -1.564142   -3.700885
     10          6           0       -4.342060   -2.039014   -2.574917
     11          6           0       -6.609812   -2.224724   -3.548042
     12          6           0       -4.121071    0.748811   -4.160124
     13          6           0       -4.468885    1.138526   -5.599743
     14          1           0       -3.952729    2.391312   -6.130268
     15          7           0       -2.562592   -3.432480   -0.484740
     16          6           0       -2.779132   -3.854575   -1.753690
     17          6           0       -1.926927   -5.049086   -1.936907
     18          6           0       -1.341971   -5.398189   -0.612503
     19          6           0       -2.034471   -4.472380    0.246974
     20          6           0       -1.699458   -5.701558   -3.265925
     21          6           0       -0.328630   -6.413284   -0.187232
     22          8           0       -0.134373   -6.706864    1.041852
     23          6           0        0.377599   -7.128268   -1.265694
     24          7           0       -3.413000   -2.687104    2.323573
     25          6           0       -2.760638   -3.821705    2.599414
     26          6           0       -2.674971   -4.056548    4.078417
     27          6           0       -3.196376   -2.715036    4.769962
     28          6           0       -3.589422   -1.929445    3.494567
     29          6           0       -3.476059   -5.251365    4.613843
     30          6           0       -2.249542   -2.036678    5.791604
     31          6           0       -1.027519   -1.499631    5.080732
     32          7           0       -4.379723   -0.135268    1.246359
     33          6           0       -4.645424    0.107277    2.601810
     34          6           0       -5.422627    1.358285    2.672548
     35          6           0       -5.570237    1.750372    1.343517
     36          6           0       -4.948661    0.790467    0.494684
     37          6           0       -5.941288    1.951291    3.857356
     38          6           0       -6.129719    2.744081    0.441641
     39          8           0       -6.684047    3.834291    0.588799
     40          6           0       -6.038731    2.179549   -1.044579
     41          6           0       -5.472548    3.270984   -1.911479
     42          8           0       -4.295465    3.658698   -1.764781
     43          8           0       -6.318242    3.518714   -2.923394
     44          6           0       -5.802347    4.571776   -3.838309
     45          1           0       -3.901868   -3.936570   -3.543627
     46          1           0       -1.678151   -5.379085    2.105111
     47          1           0       -4.469565   -0.318854    4.563010
     48          1           0       -6.216504    0.427861   -3.648536
     49          1           0       -4.787637   -1.778471   -4.667302
     50          1           0       -7.338533   -1.537854   -3.117813
     51          1           0       -6.449597   -3.074580   -2.884289
     52          1           0       -6.945392   -2.644530   -4.496687
     53          1           0       -3.296288    0.061456   -4.348102
     54          1           0       -3.799571    1.636351   -3.614013
     55          1           0       -5.539927    1.056811   -5.787096
     56          1           0       -4.019931    0.405443   -6.269989
     57          1           0       -2.389689   -5.325521   -4.020063
     58          1           0       -1.965310   -6.752546   -3.154316
     59          1           0       -0.662817   -5.617251   -3.592419
     60          1           0       -0.349813   -7.649458   -1.888416
     61          1           0        1.126161   -7.749217   -0.774852
     62          1           0        0.867126   -6.398673   -1.911451
     63          1           0       -1.646478   -4.240646    4.386212
     64          1           0       -4.119302   -2.874582    5.328019
     65          1           0       -2.869686   -5.977632    5.155649
     66          1           0       -3.987155   -5.718622    3.772569
     67          1           0       -4.314771   -4.987731    5.257642
     68          1           0       -1.900669   -2.762591    6.525282
     69          1           0       -2.718838   -1.215995    6.334275
     70          1           0       -0.379590   -2.373092    5.016805
     71          1           0       -0.560948   -0.709739    5.670301
     72          1           0       -1.262622   -1.193010    4.061323
     73          1           0       -5.743708    3.020023    3.775244
     74          1           0       -5.475557    1.529622    4.747801
     75          1           0       -6.994834    1.685695    3.771582
     76          1           0       -7.051738    1.906968   -1.338924
     77          1           0       -6.563894    5.349698   -3.894138
     78          1           0       -5.524277    4.068525   -4.764495
     79          1           0       -4.947592    5.145956   -3.479074
     80         12           0        3.526127    2.020217    0.240011
     81          6           0        4.871368   -0.857165   -1.430323
     82          6           0        3.613478    0.201226    3.124137
     83          6           0        1.928946    4.369598    1.653115
     84          6           0        2.492797    3.176345   -2.881102
     85          7           0        4.179743   -0.049743    0.664617
     86          6           0        4.730611   -1.028549   -0.037391
     87          6           0        5.228080   -2.228470    0.812482
     88          6           0        4.274680   -2.030367    2.089456
     89          6           0        4.030264   -0.526640    1.981074
     90          6           0        2.938351   -2.742096    1.958985
     91          6           0        6.742779   -2.098645    1.200887
     92          6           0        7.373992   -3.374080    1.763548
     93          1           0        8.769473   -3.660277    1.442302
     94          7           0        3.311206    2.450435    2.165442
     95          6           0        3.401712    1.595097    3.205380
     96          6           0        3.143893    2.398344    4.410575
     97          6           0        2.731395    3.763446    3.985087
     98          6           0        2.618617    3.570450    2.553263
     99          6           0        3.372314    1.877501    5.799811
    100          6           0        2.467995    5.029319    4.742969
    101          8           0        1.889706    6.033800    4.195775
    102          6           0        2.822423    5.024995    6.169805
    103          7           0        2.193251    3.447412   -0.473394
    104          6           0        1.683706    4.386604    0.342821
    105          6           0        0.972561    5.463373   -0.441550
    106          6           0        1.320137    5.177545   -1.976180
    107          6           0        2.134745    3.875576   -1.812898
    108          6           0       -0.544716    5.522099   -0.266044
    109          6           0        1.947823    6.345661   -2.784987
    110          6           0        3.334407    6.647680   -2.263875
    111          7           0        3.802847    1.410539   -1.814192
    112          6           0        3.260950    2.022167   -2.965865
    113          6           0        3.633667    1.181071   -4.121749
    114          6           0        4.352660    0.117756   -3.555275
    115          6           0        4.405797    0.273748   -2.143773
    116          6           0        3.266242    1.418590   -5.476269
    117          6           0        5.069665   -1.106780   -3.829362
    118          8           0        5.425254   -1.695491   -4.849514
    119          6           0        5.329145   -1.859218   -2.453535
    120          6           0        6.771649   -2.284269   -2.421435
    121          8           0        7.680091   -1.435541   -2.389816
    122          8           0        6.835206   -3.612238   -2.214497
    123          6           0        8.246100   -4.079810   -2.163747
    124          1           0        3.385730   -0.351063    4.036281
    125          1           0        1.453062    5.256302    2.078280
    126          1           0        2.292410    3.520332   -3.898052
    127          1           0        5.057084   -3.201689    0.368206
    128          1           0        4.797210   -2.266147    3.012884
    129          1           0        2.802783   -3.167541    0.975746
    130          1           0        2.184507   -1.990387    2.153187
    131          1           0        2.830179   -3.488975    2.750685
    132          1           0        6.833028   -1.442452    2.076098
    133          1           0        7.320633   -1.746229    0.368714
    134          1           0        6.749210   -4.257327    1.583356
    135          1           0        7.412813   -3.290868    2.852397
    136          1           0        3.516799    0.790070    5.803020
    137          1           0        2.440611    2.029355    6.355457
    138          1           0        4.181132    2.397983    6.317098
    139          1           0        2.277614    4.230903    6.674836
    140          1           0        2.644154    6.044150    6.518283
    141          1           0        3.887473    4.785798    6.265004
    142          1           0        1.343339    6.445304   -0.174258
    143          1           0        0.422393    4.915991   -2.555393
    144          1           0       -0.905783    6.507551    0.084087
    145          1           0       -0.838966    4.742278    0.423755
    146          1           0       -1.122358    5.274298   -1.154935
    147          1           0        1.360559    7.257465   -2.651188
    148          1           0        2.003495    6.151996   -3.851000
    149          1           0        3.139358    7.297953   -1.405860
    150          1           0        3.925061    7.159625   -3.020900
    151          1           0        3.819226    5.739996   -1.886093
    152          1           0        4.148663    1.235630   -6.074888
    153          1           0        2.893454    2.431239   -5.615373
    154          1           0        2.478263    0.670668   -5.598638
    155          1           0        4.650133   -2.711804   -2.413278
    156          1           0        8.347884   -4.870292   -2.913722
    157          1           0        8.430529   -4.359070   -1.109349
    158          1           0        9.015701   -3.386233   -2.481711
 ---------------------------------------------------------------------

 SCF Done:  E(RCAM-B3LYP) =  -4069.81318920     A.U. after   19 cycles

 Excitation energies and oscillator strengths:

 Excited State   1:      Singlet-A      1.6476 eV  752.53 nm  f=0.1053  <S**2>=0.000
     309 -> 315        0.10767
     310 -> 316        0.12767
     311 -> 313       -0.44486
     312 -> 314        0.52424
 This state for optimization and/or second-order correction.
 Total Energy, E(TD-HF/TD-DFT) =  -4069.75264249
 Copying the excited state density for this state as the 1-particle RhoCI density.

 Excited State   2:      Singlet-A      1.6948 eV  731.58 nm  f=0.5587  <S**2>=0.000
     309 -> 315       -0.13640
     310 -> 316        0.11533
     311 -> 313        0.52167
     312 -> 314        0.44272

 Excited State   3:      Singlet-A      2.1790 eV  569.01 nm  f=0.0487  <S**2>=0.000
     309 -> 313        0.29701
     310 -> 314        0.57328
     311 -> 315        0.12205
     312 -> 316       -0.23600

 Excited State   4:      Singlet-A      2.1963 eV  564.52 nm  f=0.1341  <S**2>=0.000
     309 -> 313        0.56740
     310 -> 314       -0.29280
     311 -> 315        0.24957
     312 -> 316        0.13014

 Excited State   5:      Singlet-A      2.2210 eV  558.23 nm  f=0.0001  <S**2>=0.000
     312 -> 313        0.70687

 The electronic state is 1-A.
 Alpha  occ. eigenvalues --  -46.87952 -46.87370 -19.26543 -19.26246 -19.19353
 Alpha  occ. eigenvalues --  -19.19033 -19.18999 -19.18466 -19.18322 -19.17891
 Alpha  occ. eigenvalues --  -14.42600 -14.42206 -14.41625 -14.41017 -14.39557
 Alpha  occ. eigenvalues --  -14.39073 -14.38738 -14.38333 -10.39373 -10.38960
 Alpha  occ. eigenvalues --  -10.35625 -10.35146 -10.34548 -10.34071 -10.31928
 Alpha  occ. eigenvalues --  -10.31675 -10.31549 -10.31061 -10.31047 -10.30744
 Alpha  occ. eigenvalues --  -10.30715 -10.30678 -10.30389 -10.30125 -10.30121
 Alpha  occ. eigenvalues --  -10.30113 -10.29782 -10.29767 -10.29520 -10.29402
 Alpha  occ. eigenvalues --  -10.29169 -10.29144 -10.28892 -10.28687 -10.28516
 Alpha  occ. eigenvalues --  -10.28454 -10.28450 -10.28241 -10.28147 -10.27934
 Alpha  occ. eigenvalues --  -10.27867 -10.27827 -10.27759 -10.27758 -10.27732
 Alpha  occ. eigenvalues --  -10.27708 -10.27569 -10.27529 -10.27386 -10.27348
 Alpha  occ. eigenvalues --  -10.27304 -10.27231 -10.27212 -10.26967 -10.26896
 Alpha  occ. eigenvalues --  -10.26860 -10.26712 -10.26535 -10.26527 -10.26469
 Alpha  occ. eigenvalues --  -10.26344 -10.26222 -10.26189 -10.25948 -10.25728
 Alpha  occ. eigenvalues --  -10.25726 -10.25665 -10.25619 -10.25603 -10.25146
 Alpha  occ. eigenvalues --  -10.24976 -10.24972 -10.24643 -10.24381 -10.24344
 Alpha  occ. eigenvalues --  -10.24247  -3.16694  -3.16120  -1.91576  -1.91163
 Alpha  occ. eigenvalues --   -1.91005  -1.91003  -1.90590  -1.90429  -1.16898
 Alpha  occ. eigenvalues --   -1.16534  -1.08787  -1.08513  -1.07404  -1.06935
 Alpha  occ. eigenvalues --   -1.06820  -1.06715  -1.04733  -1.04215  -1.03931
 Alpha  occ. eigenvalues --   -1.03393  -1.03367  -1.02721  -1.02573  -1.01807
 Alpha  occ. eigenvalues --   -0.92139  -0.91744  -0.89754  -0.89328  -0.89141
 Alpha  occ. eigenvalues --   -0.88853  -0.88517  -0.88003  -0.87826  -0.87765
 Alpha  occ. eigenvalues --   -0.87579  -0.87402  -0.87360  -0.86898  -0.85137
 Alpha  occ. eigenvalues --   -0.84713  -0.84200  -0.83415  -0.83134  -0.82813
 Alpha  occ. eigenvalues --   -0.82642  -0.82358  -0.81781  -0.81395  -0.80771
 Alpha  occ. eigenvalues --   -0.80204  -0.78927  -0.78405  -0.77404  -0.77114
 Alpha  occ. eigenvalues --   -0.76862  -0.76580  -0.76088  -0.75578  -0.75111
 Alpha  occ. eigenvalues --   -0.74250  -0.72934  -0.72420  -0.71843  -0.71179
 Alpha  occ. eigenvalues --   -0.70195  -0.69293  -0.69027  -0.68551  -0.67807
 Alpha  occ. eigenvalues --   -0.67368  -0.67313  -0.66964  -0.65450  -0.65040
 Alpha  occ. eigenvalues --   -0.65013  -0.64820  -0.64503  -0.64484  -0.64377
 Alpha  occ. eigenvalues --   -0.63794  -0.62518  -0.62057  -0.60599  -0.60046
 Alpha  occ. eigenvalues --   -0.59945  -0.59524  -0.59166  -0.58684  -0.58682
 Alpha  occ. eigenvalues --   -0.58143  -0.57783  -0.57509  -0.57380  -0.56904
 Alpha  occ. eigenvalues --   -0.56461  -0.56186  -0.55976  -0.55688  -0.55677
 Alpha  occ. eigenvalues --   -0.55582  -0.55244  -0.54897  -0.54778  -0.54115
 Alpha  occ. eigenvalues --   -0.54042  -0.53623  -0.53473  -0.53381  -0.53129
 Alpha  occ. eigenvalues --   -0.52960  -0.52898  -0.52884  -0.52738  -0.52657
 Alpha  occ. eigenvalues --   -0.52435  -0.52049  -0.52012  -0.51759  -0.51711
 Alpha  occ. eigenvalues --   -0.51424  -0.51384  -0.50952  -0.50694  -0.50261
 Alpha  occ. eigenvalues --   -0.50240  -0.50064  -0.49700  -0.49673  -0.49381
 Alpha  occ. eigenvalues --   -0.49372  -0.49242  -0.49225  -0.48975  -0.48824
 Alpha  occ. eigenvalues --   -0.48775  -0.48670  -0.48608  -0.48325  -0.48113
 Alpha  occ. eigenvalues --   -0.47887  -0.47869  -0.47456  -0.47299  -0.46984
 Alpha  occ. eigenvalues --   -0.46782  -0.46710  -0.46532  -0.46394  -0.46354
 Alpha  occ. eigenvalues --   -0.46237  -0.45996  -0.45993  -0.45723  -0.45550
 Alpha  occ. eigenvalues --   -0.45422  -0.44758  -0.44677  -0.44640  -0.44349
 Alpha  occ. eigenvalues --   -0.44254  -0.44247  -0.44180  -0.44173  -0.43866
 Alpha  occ. eigenvalues --   -0.43744  -0.43720  -0.43688  -0.43557  -0.43338
 Alpha  occ. eigenvalues --   -0.43209  -0.43045  -0.42945  -0.42923  -0.42761
 Alpha  occ. eigenvalues --   -0.42573  -0.42238  -0.42144  -0.41878  -0.41694
 Alpha  occ. eigenvalues --   -0.41640  -0.41375  -0.41307  -0.41149  -0.41061
 Alpha  occ. eigenvalues --   -0.40994  -0.40789  -0.40631  -0.40465  -0.40397
 Alpha  occ. eigenvalues --   -0.40385  -0.40023  -0.39984  -0.39758  -0.38991
 Alpha  occ. eigenvalues --   -0.38694  -0.37908  -0.37869  -0.37528  -0.37416
 Alpha  occ. eigenvalues --   -0.37386  -0.36971  -0.36959  -0.36862  -0.36564
 Alpha  occ. eigenvalues --   -0.36419  -0.35817  -0.34448  -0.34056  -0.33961
 Alpha  occ. eigenvalues --   -0.33702  -0.33358  -0.32887  -0.31528  -0.31208
 Alpha  occ. eigenvalues --   -0.31014  -0.30673  -0.30185  -0.29801  -0.29596
 Alpha  occ. eigenvalues --   -0.29465  -0.29090  -0.28984  -0.24244  -0.23747
 Alpha  occ. eigenvalues --   -0.21284  -0.20822
 Alpha virt. eigenvalues --   -0.08928  -0.08529  -0.01921  -0.01365  -0.00214
 Alpha virt. eigenvalues --    0.00212   0.02031   0.02328   0.02544   0.03624
 Alpha virt. eigenvalues --    0.04560   0.04837   0.05058   0.05309   0.05981

 Mulliken charges:
               1
     1  Mg   0.838998
     2  C   -0.003266
     3  C   -0.092896
     4  C   -0.047089
     5  C   -0.063706
     6  N   -0.256706
     7  C   -0.052225
     8  C   -0.014216
     9  C   -0.087206
    10  C    0.046332
    11  C    0.104658
    12  C    0.053472
    13  C   -0.071828
    14  H    0.034740
    15  N   -0.433335
    16  C    0.168731
    17  C   -0.176114
    18  C   -0.004412
    19  C    0.148920
    20  C    0.109663
    21  C    0.010783
    22  O   -0.251418
    23  C    0.062336
    24  N   -0.340948
    25  C    0.041606
    26  C   -0.028047
    27  C   -0.023694
    28  C    0.074227
    29  C    0.076129
    30  C    0.035354
    31  C   -0.005535
    32  N   -0.310656
    33  C    0.080585
    34  C   -0.168879
    35  C    0.008534
    36  C    0.083038
    37  C    0.127251
    38  C    0.046018
    39  O   -0.188020
    40  C   -0.005702
    41  C    0.214844
    42  O   -0.259162
    43  O   -0.303907
    44  C    0.157759
    45  H   -0.016796
    46  H   -0.017811
    47  H   -0.041672
    48  H    0.001024
    49  H   -0.003212
    50  H    0.025483
    51  H    0.016551
    52  H    0.017281
    53  H    0.012270
    54  H    0.042523
    55  H    0.018345
    56  H    0.019126
    57  H    0.006620
    58  H    0.027000
    59  H    0.042231
    60  H    0.038418
    61  H    0.035100
    62  H    0.033081
    63  H    0.014301
    64  H    0.010053
    65  H    0.022698
    66  H    0.013369
    67  H    0.005159
    68  H    0.005513
    69  H    0.005581
    70  H    0.005632
    71  H    0.015632
    72  H    0.032168
    73  H    0.048668
    74  H    0.008968
    75  H    0.046070
    76  H    0.035813
    77  H    0.043893
    78  H    0.046981
    79  H    0.051983
    80  Mg   0.836619
    81  C   -0.017663
    82  C   -0.089099
    83  C   -0.044764
    84  C   -0.063916
    85  N   -0.255092
    86  C   -0.050159
    87  C   -0.014837
    88  C   -0.090895
    89  C    0.045930
    90  C    0.115012
    91  C    0.062544
    92  C   -0.077623
    93  H    0.033479
    94  N   -0.423806
    95  C    0.163851
    96  C   -0.175157
    97  C   -0.007279
    98  C    0.152384
    99  C    0.099418
   100  C    0.015281
   101  O   -0.251692
   102  C    0.061426
   103  N   -0.350532
   104  C    0.040169
   105  C   -0.021962
   106  C   -0.033247
   107  C    0.089443
   108  C    0.069546
   109  C    0.034388
   110  C   -0.007245
   111  N   -0.323830
   112  C    0.078090
   113  C   -0.164179
   114  C    0.001077
   115  C    0.096234
   116  C    0.131933
   117  C    0.040732
   118  O   -0.190596
   119  C    0.001683
   120  C    0.211219
   121  O   -0.250938
   122  O   -0.306132
   123  C    0.152217
   124  H   -0.019608
   125  H   -0.013720
   126  H   -0.041439
   127  H   -0.001247
   128  H   -0.005064
   129  H    0.022752
   130  H    0.013597
   131  H    0.020425
   132  H    0.013638
   133  H    0.037033
   134  H    0.021527
   135  H    0.019519
   136  H    0.008442
   137  H    0.024620
   138  H    0.039415
   139  H    0.037170
   140  H    0.036302
   141  H    0.033459
   142  H    0.012335
   143  H    0.015548
   144  H    0.022977
   145  H    0.016574
   146  H    0.020236
   147  H    0.006592
   148  H    0.001480
   149  H    0.011017
   150  H    0.016216
   151  H    0.029237
   152  H    0.045033
   153  H    0.008446
   154  H    0.044141
   155  H    0.032094
   156  H    0.042771
   157  H    0.049991
   158  H    0.053402
 Sum of Mulliken charges =  -0.00000

 Dipole moment (field-independent basis, Debye):
    X=             -2.4953    Y=             -4.6150    Z=              0.9942  Tot=              5.3398
 Quadrupole moment (field-independent basis, Debye-Ang):
   XX=           -529.2292   YY=           -524.2030   ZZ=           -467.0370
   XY=             12.8721   XZ=             46.9184   YZ=            -15.8901

 Normal termination of Gaussian 16 at Wed Sep  8 21:24:10 2021.
