 Gaussian 16, Revision A.03,
 Gaussian 16:  ES64L-G16RevA.03 25-Dec-2016

 -----------------------------------
 #p cam-b3lyp/Def2SVP td=(nstates=5)
 -----------------------------------

 --------------------------------
 TDDFT excited states in gaussian
 --------------------------------
 Symbolic Z-matrix:
 Charge =  0 Multiplicity = 1

                         Standard orientation:
 ---------------------------------------------------------------------
 Center     Atomic      Atomic             Coordinates (Angstroms)
 Number     Number       Type             X           Y           Z
 ---------------------------------------------------------------------
      1         12           0        4.058588   -1.742706   -0.047098
      2          6           0        5.613050    1.427589   -0.634539
      3          6           0        5.205429   -1.543261    3.160400
      4          6           0        3.090457   -4.733611    0.369838
      5          6           0        4.028590   -2.202090   -3.501621
      6          7           0        5.245796   -0.202054    1.010056
      7          6           0        5.728034    0.994196    0.688183
      8          6           0        6.300913    1.777729    1.906896
      9          6           0        6.627089    0.547052    2.866604
     10          6           0        5.608851   -0.448564    2.339474
     11          6           0        8.025563   -0.027923    2.666163
     12          6           0        5.242845    2.738408    2.546677
     13          6           0        5.806654    3.772367    3.525658
     14          1           0        5.203202    5.095670    3.571060
     15          7           0        3.704340   -2.755194    1.611885
     16          6           0        4.245974   -2.525395    2.832176
     17          6           0        3.667518   -3.545104    3.733432
     18          6           0        2.891901   -4.503437    2.897902
     19          6           0        3.223754   -4.044863    1.573152
     20          6           0        3.833218   -3.516772    5.221885
     21          6           0        2.002455   -5.656986    3.238992
     22          8           0        1.613326   -6.499172    2.359290
     23          6           0        1.666146   -5.828293    4.663980
     24          7           0        3.819184   -3.353001   -1.353725
     25          6           0        3.328743   -4.521594   -0.926122
     26          6           0        2.982848   -5.421771   -2.075025
     27          6           0        3.112969   -4.527854   -3.391739
     28          6           0        3.618687   -3.217907   -2.738625
     29          6           0        3.849882   -6.679533   -2.224350
     30          6           0        1.874466   -4.458849   -4.320052
     31          6           0        0.750784   -3.725115   -3.622864
     32          7           0        4.533774   -0.541473   -1.791312
     33          6           0        4.469852   -0.941995   -3.133762
     34          6           0        4.989438    0.175553   -3.943198
     35          6           0        5.337232    1.148514   -3.008194
     36          6           0        5.077383    0.659004   -1.696268
     37          6           0        5.144125    0.178720   -5.357586
     38          6           0        5.890901    2.478330   -2.810971
     39          8           0        6.207653    3.405302   -3.557887
     40          6           0        6.205285    2.665402   -1.261135
     41          6           0        5.650391    3.999664   -0.842629
     42          8           0        4.419570    4.205335   -0.830580
     43          8           0        6.630477    4.738340   -0.300106
     44          6           0        6.140483    6.063961    0.163348
     45          1           0        5.709338   -1.700072    4.116133
     46          1           0        2.654566   -5.730631    0.461414
     47          1           0        3.970887   -2.240630   -4.590950
     48          1           0        7.211901    2.339155    1.698745
     49          1           0        6.423055    0.780515    3.911394
     50          1           0        8.521464    0.421282    1.805803
     51          1           0        7.880796   -1.096660    2.506990
     52          1           0        8.615739    0.061898    3.578524
     53          1           0        4.604731    2.170530    3.223718
     54          1           0        4.668594    3.249775    1.773330
     55          1           0        6.891123    3.849736    3.442884
     56          1           0        5.637528    3.410253    4.539793
     57          1           0        4.588560   -2.793678    5.527071
     58          1           0        4.246867   -4.481607    5.514625
     59          1           0        2.886952   -3.350911    5.737057
     60          1           0        2.584346   -5.956743    5.237529
     61          1           0        0.950699   -6.648712    4.707571
     62          1           0        1.201820   -4.912039    5.029806
     63          1           0        1.960277   -5.787481   -1.991176
     64          1           0        3.915038   -4.874486   -4.043817
     65          1           0        3.279054   -7.608397   -2.215862
     66          1           0        4.595272   -6.671324   -1.429606
     67          1           0        4.480563   -6.697108   -3.112803
     68          1           0        1.512289   -5.461608   -4.544212
     69          1           0        2.074348   -3.958843   -5.267835
     70          1           0        0.289549   -4.504770   -3.017693
     71          1           0        0.044592   -3.328673   -4.353163
     72          1           0        1.133980   -2.966525   -2.940084
     73          1           0        4.787155    1.149495   -5.701300
     74          1           0        4.584940   -0.634979   -5.818898
     75          1           0        6.222444    0.045396   -5.443085
     76          1           0        7.288566    2.620528   -1.153382
     77          1           0        6.752179    6.821527   -0.326708
     78          1           0        6.149104    6.033851    1.253038
     79          1           0        5.144586    6.354319   -0.173137
     80         12           0       -4.217869    1.790442    0.227889
     81          6           0       -5.439422   -1.576945    0.009679
     82          6           0       -3.468854    1.575319   -3.092845
     83          6           0       -2.727115    4.579511    0.485082
     84          6           0       -4.001379    1.340931    3.677064
     85          7           0       -4.469553    0.157788   -1.242953
     86          6           0       -5.002037   -1.054855   -1.225450
     87          6           0       -5.143156   -1.715579   -2.622968
     88          6           0       -3.994054   -0.899015   -3.392167
     89          6           0       -3.994920    0.375575   -2.550670
     90          6           0       -2.621942   -1.542908   -3.282356
     91          6           0       -6.553324   -1.464049   -3.263406
     92          6           0       -6.870212   -2.333008   -4.482528
     93          1           0       -8.245694   -2.782742   -4.678111
     94          7           0       -3.689524    3.097819   -1.168591
     95          6           0       -3.447961    2.843446   -2.471755
     96          6           0       -3.074544    4.133988   -3.071096
     97          6           0       -2.955392    5.140344   -1.981245
     98          6           0       -3.102265    4.288176   -0.818348
     99          6           0       -2.945532    4.336016   -4.552972
    100          6           0       -2.731827    6.622310   -1.984727
    101          8           0       -2.424204    7.259367   -0.915918
    102          6           0       -2.791844    7.291299   -3.292527
    103          7           0       -3.272449    2.742688    1.815890
    104          6           0       -2.751661    3.974020    1.672560
    105          6           0       -2.372684    4.565012    3.009528
    106          6           0       -2.972901    3.567392    4.105910
    107          6           0       -3.542986    2.477782    3.171494
    108          6           0       -0.875292    4.749292    3.254985
    109          6           0       -3.909925    4.183870    5.180439
    110          6           0       -5.194338    4.654149    4.536635
    111          7           0       -4.805857    0.261946    1.637158
    112          6           0       -4.596892    0.263487    3.033732
    113          6           0       -5.066475   -1.040301    3.545654
    114          6           0       -5.498228   -1.724218    2.399211
    115          6           0       -5.292252   -0.912330    1.251209
    116          6           0       -5.013065   -1.469682    4.901714
    117          6           0       -6.071567   -2.952490    1.897878
    118          8           0       -6.533949   -3.969308    2.413656
    119          6           0       -5.942011   -2.960989    0.313724
    120          6           0       -7.273033   -3.364579   -0.259001
    121          8           0       -8.269618   -2.634231   -0.117552
    122          8           0       -7.102565   -4.431981   -1.060228
    123          6           0       -8.393112   -4.862916   -1.660718
    124          1           0       -2.987681    1.535632   -4.070484
    125          1           0       -2.308974    5.576235    0.643791
    126          1           0       -4.058281    1.161406    4.752794
    127          1           0       -4.925474   -2.776603   -2.647879
    128          1           0       -4.283594   -0.679773   -4.416593
    129          1           0       -2.624309   -2.383106   -2.603982
    130          1           0       -1.960705   -0.766413   -2.920587
    131          1           0       -2.252593   -1.814828   -4.275316
    132          1           0       -6.561663   -0.471835   -3.732628
    133          1           0       -7.329327   -1.572516   -2.530806
    134          1           0       -6.173149   -3.173969   -4.581699
    135          1           0       -6.703875   -1.739193   -5.384591
    136          1           0       -2.928538    3.379282   -5.089410
    137          1           0       -1.953877    4.765467   -4.732009
    138          1           0       -3.701984    5.014568   -4.952993
    139          1           0       -2.049232    6.854514   -3.956011
    140          1           0       -2.696517    8.357858   -3.079827
    141          1           0       -3.771141    7.093040   -3.742297
    142          1           0       -2.820406    5.542414    3.141179
    143          1           0       -2.179773    3.089068    4.699200
    144          1           0       -0.597565    5.792951    3.495224
    145          1           0       -0.341003    4.405589    2.379229
    146          1           0       -0.455897    4.124288    4.041552
    147          1           0       -3.445196    5.066460    5.626790
    148          1           0       -4.147455    3.501109    5.989392
    149          1           0       -4.928616    5.642068    4.148692
    150          1           0       -5.990781    4.721195    5.275019
    151          1           0       -5.458867    4.023748    3.679736
    152          1           0       -5.960996   -1.945442    5.115209
    153          1           0       -4.824919   -0.636381    5.575493
    154          1           0       -4.165779   -2.159009    4.854791
    155          1           0       -5.153065   -3.667617    0.053343
    156          1           0       -8.526824   -5.919004   -1.406771
    157          1           0       -8.322627   -4.608169   -2.734907
    158          1           0       -9.302111   -4.431790   -1.257839
 ---------------------------------------------------------------------

 SCF Done:  E(RCAM-B3LYP) =  -4069.81164270     A.U. after   19 cycles

 Excitation energies and oscillator strengths:

 Excited State   1:      Singlet-A      1.6486 eV  752.05 nm  f=0.0126  <S**2>=0.000
     309 -> 315        0.11374
     310 -> 316        0.12263
     311 -> 313        0.46658
     312 -> 314        0.50508
 This state for optimization and/or second-order correction.
 Total Energy, E(TD-HF/TD-DFT) =  -4069.75105729
 Copying the excited state density for this state as the 1-particle RhoCI density.

 Excited State   2:      Singlet-A      1.7050 eV  727.18 nm  f=0.6836  <S**2>=0.000
     309 -> 315        0.13367
     310 -> 316       -0.12324
     311 -> 313        0.50251
     312 -> 314       -0.46429

 Excited State   3:      Singlet-A      2.1830 eV  567.95 nm  f=0.0118  <S**2>=0.000
     309 -> 313        0.34921
     310 -> 314        0.54226
     311 -> 315       -0.14505
     312 -> 316       -0.22641

 Excited State   4:      Singlet-A      2.1971 eV  564.31 nm  f=0.1633  <S**2>=0.000
     309 -> 313        0.53747
     310 -> 314       -0.34484
     311 -> 315       -0.23723
     312 -> 316        0.15324

 Excited State   5:      Singlet-A      2.3507 eV  527.43 nm  f=0.0000  <S**2>=0.000
     312 -> 313        0.70707

 The electronic state is 1-A.
 Alpha  occ. eigenvalues --  -46.87898 -46.87441 -19.26310 -19.26189 -19.19053
 Alpha  occ. eigenvalues --  -19.18993 -19.18840 -19.18431 -19.18263 -19.17839
 Alpha  occ. eigenvalues --  -14.42548 -14.42282 -14.41562 -14.41146 -14.39496
 Alpha  occ. eigenvalues --  -14.39119 -14.38693 -14.38386 -10.39117 -10.38918
 Alpha  occ. eigenvalues --  -10.35469 -10.35104 -10.34482 -10.34020 -10.31676
 Alpha  occ. eigenvalues --  -10.31620 -10.31512 -10.31114 -10.30988 -10.30788
 Alpha  occ. eigenvalues --  -10.30681 -10.30612 -10.30320 -10.30178 -10.30155
 Alpha  occ. eigenvalues --  -10.30044 -10.29918 -10.29729 -10.29693 -10.29350
 Alpha  occ. eigenvalues --  -10.29196 -10.29178 -10.28824 -10.28598 -10.28534
 Alpha  occ. eigenvalues --  -10.28529 -10.28453 -10.28200 -10.28170 -10.27958
 Alpha  occ. eigenvalues --  -10.27893 -10.27828 -10.27774 -10.27673 -10.27671
 Alpha  occ. eigenvalues --  -10.27593 -10.27545 -10.27496 -10.27448 -10.27365
 Alpha  occ. eigenvalues --  -10.27264 -10.27232 -10.27224 -10.27194 -10.27159
 Alpha  occ. eigenvalues --  -10.26841 -10.26775 -10.26533 -10.26445 -10.26380
 Alpha  occ. eigenvalues --  -10.26310 -10.26147 -10.26099 -10.26031 -10.26012
 Alpha  occ. eigenvalues --  -10.25843 -10.25741 -10.25733 -10.25550 -10.25183
 Alpha  occ. eigenvalues --  -10.25031 -10.24934 -10.24888 -10.24652 -10.24620
 Alpha  occ. eigenvalues --  -10.24457  -3.16641  -3.16191  -1.91523  -1.91109
 Alpha  occ. eigenvalues --   -1.91074  -1.90951  -1.90662  -1.90499  -1.16661
 Alpha  occ. eigenvalues --   -1.16481  -1.08720  -1.08453  -1.07236  -1.06777
 Alpha  occ. eigenvalues --   -1.06677  -1.06677  -1.04677  -1.04278  -1.03867
 Alpha  occ. eigenvalues --   -1.03443  -1.03337  -1.02821  -1.02516  -1.01892
 Alpha  occ. eigenvalues --   -0.92065  -0.91773  -0.89675  -0.89307  -0.89273
 Alpha  occ. eigenvalues --   -0.88968  -0.88432  -0.88035  -0.87993  -0.87773
 Alpha  occ. eigenvalues --   -0.87609  -0.87478  -0.87340  -0.86851  -0.85067
 Alpha  occ. eigenvalues --   -0.84807  -0.84102  -0.83700  -0.83033  -0.82719
 Alpha  occ. eigenvalues --   -0.82680  -0.82436  -0.81659  -0.81414  -0.80675
 Alpha  occ. eigenvalues --   -0.80237  -0.78885  -0.78399  -0.77340  -0.77029
 Alpha  occ. eigenvalues --   -0.76949  -0.76719  -0.76005  -0.75644  -0.75020
 Alpha  occ. eigenvalues --   -0.74606  -0.72889  -0.72496  -0.71770  -0.71377
 Alpha  occ. eigenvalues --   -0.70107  -0.69600  -0.68957  -0.68629  -0.67729
 Alpha  occ. eigenvalues --   -0.67389  -0.67286  -0.66992  -0.65378  -0.65082
 Alpha  occ. eigenvalues --   -0.64954  -0.64720  -0.64571  -0.64463  -0.64405
 Alpha  occ. eigenvalues --   -0.64019  -0.62367  -0.62097  -0.60528  -0.60097
 Alpha  occ. eigenvalues --   -0.59893  -0.59601  -0.59093  -0.58787  -0.58604
 Alpha  occ. eigenvalues --   -0.58220  -0.57665  -0.57411  -0.57361  -0.57027
 Alpha  occ. eigenvalues --   -0.56405  -0.56031  -0.55999  -0.55702  -0.55597
 Alpha  occ. eigenvalues --   -0.55467  -0.55228  -0.55071  -0.54636  -0.54316
 Alpha  occ. eigenvalues --   -0.53976  -0.53737  -0.53397  -0.53283  -0.53033
 Alpha  occ. eigenvalues --   -0.53003  -0.52925  -0.52818  -0.52717  -0.52628
 Alpha  occ. eigenvalues --   -0.52400  -0.52256  -0.52052  -0.51732  -0.51684
 Alpha  occ. eigenvalues --   -0.51449  -0.51309  -0.51012  -0.50625  -0.50209
 Alpha  occ. eigenvalues --   -0.50185  -0.49982  -0.49763  -0.49661  -0.49580
 Alpha  occ. eigenvalues --   -0.49300  -0.49260  -0.49180  -0.48987  -0.48915
 Alpha  occ. eigenvalues --   -0.48683  -0.48571  -0.48494  -0.48369  -0.48187
 Alpha  occ. eigenvalues --   -0.48083  -0.47785  -0.47383  -0.47380  -0.46927
 Alpha  occ. eigenvalues --   -0.46887  -0.46633  -0.46526  -0.46468  -0.46363
 Alpha  occ. eigenvalues --   -0.46270  -0.46059  -0.45922  -0.45899  -0.45654
 Alpha  occ. eigenvalues --   -0.45330  -0.44996  -0.44684  -0.44591  -0.44331
 Alpha  occ. eigenvalues --   -0.44290  -0.44269  -0.44169  -0.44086  -0.43931
 Alpha  occ. eigenvalues --   -0.43874  -0.43704  -0.43579  -0.43486  -0.43381
 Alpha  occ. eigenvalues --   -0.43208  -0.43124  -0.42854  -0.42747  -0.42727
 Alpha  occ. eigenvalues --   -0.42692  -0.42358  -0.42149  -0.41805  -0.41793
 Alpha  occ. eigenvalues --   -0.41622  -0.41466  -0.41273  -0.41236  -0.40991
 Alpha  occ. eigenvalues --   -0.40862  -0.40787  -0.40704  -0.40534  -0.40458
 Alpha  occ. eigenvalues --   -0.40315  -0.40302  -0.40030  -0.39650  -0.39273
 Alpha  occ. eigenvalues --   -0.38607  -0.38170  -0.37828  -0.37479  -0.37452
 Alpha  occ. eigenvalues --   -0.37347  -0.37077  -0.36996  -0.36785  -0.36602
 Alpha  occ. eigenvalues --   -0.36282  -0.36029  -0.34390  -0.34043  -0.33815
 Alpha  occ. eigenvalues --   -0.33682  -0.33285  -0.32959  -0.31374  -0.31128
 Alpha  occ. eigenvalues --   -0.30996  -0.30750  -0.30123  -0.29749  -0.29535
 Alpha  occ. eigenvalues --   -0.29423  -0.29082  -0.28988  -0.24183  -0.23817
 Alpha  occ. eigenvalues --   -0.21234  -0.20896
 Alpha virt. eigenvalues --   -0.08870  -0.08561  -0.01849  -0.01460  -0.00123
 Alpha virt. eigenvalues --    0.00224   0.02098   0.02408   0.02843   0.03489
 Alpha virt. eigenvalues --    0.04623   0.04919   0.05051   0.05343   0.06104

 Mulliken charges:
               1
     1  Mg   0.838840
     2  C   -0.002478
     3  C   -0.094125
     4  C   -0.045819
     5  C   -0.064851
     6  N   -0.256726
     7  C   -0.052582
     8  C   -0.013942
     9  C   -0.087052
    10  C    0.046488
    11  C    0.104755
    12  C    0.053456
    13  C   -0.072086
    14  H    0.036794
    15  N   -0.433336
    16  C    0.168768
    17  C   -0.176898
    18  C   -0.003382
    19  C    0.149039
    20  C    0.110187
    21  C    0.013096
    22  O   -0.248675
    23  C    0.062206
    24  N   -0.341010
    25  C    0.041115
    26  C   -0.028621
    27  C   -0.023644
    28  C    0.074289
    29  C    0.076023
    30  C    0.036720
    31  C   -0.009201
    32  N   -0.310267
    33  C    0.079838
    34  C   -0.171083
    35  C    0.008262
    36  C    0.082684
    37  C    0.127608
    38  C    0.045804
    39  O   -0.188759
    40  C   -0.005163
    41  C    0.212543
    42  O   -0.256428
    43  O   -0.305011
    44  C    0.157230
    45  H   -0.017240
    46  H   -0.016328
    47  H   -0.042624
    48  H    0.001160
    49  H   -0.003980
    50  H    0.025608
    51  H    0.016481
    52  H    0.016923
    53  H    0.010554
    54  H    0.044672
    55  H    0.018074
    56  H    0.017583
    57  H    0.005812
    58  H    0.027390
    59  H    0.039872
    60  H    0.037071
    61  H    0.037568
    62  H    0.031634
    63  H    0.016657
    64  H    0.009693
    65  H    0.023715
    66  H    0.013044
    67  H    0.004750
    68  H    0.006390
    69  H    0.003190
    70  H    0.009942
    71  H    0.016558
    72  H    0.030402
    73  H    0.046318
    74  H    0.007953
    75  H    0.046394
    76  H    0.035250
    77  H    0.042970
    78  H    0.046395
    79  H    0.055026
    80  Mg   0.837686
    81  C   -0.016689
    82  C   -0.087089
    83  C   -0.042799
    84  C   -0.065677
    85  N   -0.254507
    86  C   -0.050296
    87  C   -0.014933
    88  C   -0.091384
    89  C    0.045596
    90  C    0.110601
    91  C    0.062760
    92  C   -0.077543
    93  H    0.034365
    94  N   -0.424147
    95  C    0.163293
    96  C   -0.171866
    97  C   -0.005884
    98  C    0.152624
    99  C    0.098185
   100  C    0.017341
   101  O   -0.252958
   102  C    0.060774
   103  N   -0.349962
   104  C    0.037754
   105  C   -0.020044
   106  C   -0.034109
   107  C    0.088552
   108  C    0.072772
   109  C    0.034966
   110  C   -0.007491
   111  N   -0.323867
   112  C    0.078013
   113  C   -0.164187
   114  C    0.002246
   115  C    0.095633
   116  C    0.131570
   117  C    0.042239
   118  O   -0.188665
   119  C    0.000826
   120  C    0.211047
   121  O   -0.251390
   122  O   -0.305445
   123  C    0.152211
   124  H   -0.018930
   125  H   -0.014768
   126  H   -0.042119
   127  H   -0.000943
   128  H   -0.005096
   129  H    0.024448
   130  H    0.016267
   131  H    0.017910
   132  H    0.013877
   133  H    0.037558
   134  H    0.020233
   135  H    0.019302
   136  H    0.008346
   137  H    0.030013
   138  H    0.039135
   139  H    0.040680
   140  H    0.035923
   141  H    0.032772
   142  H    0.013906
   143  H    0.010574
   144  H    0.023993
   145  H    0.017271
   146  H    0.003087
   147  H    0.005347
   148  H    0.002597
   149  H    0.010904
   150  H    0.017250
   151  H    0.030618
   152  H    0.045536
   153  H    0.007421
   154  H    0.045315
   155  H    0.035851
   156  H    0.043692
   157  H    0.049165
   158  H    0.053266
 Sum of Mulliken charges =  -0.00000

 Dipole moment (field-independent basis, Debye):
    X=              4.2170    Y=             -0.7040    Z=              0.2147  Tot=              4.2808
 Quadrupole moment (field-independent basis, Debye-Ang):
   XX=           -529.8552   YY=           -540.2411   ZZ=           -450.0689
   XY=            -21.6872   XZ=             55.8316   YZ=             32.5195

 Normal termination of Gaussian 16 at Fri Sep  3 20:10:52 2021.
