 Gaussian 16, Revision A.03,
 Gaussian 16:  ES64L-G16RevA.03 25-Dec-2016

 -----------------------------------
 #p cam-b3lyp/Def2SVP td=(nstates=5)
 -----------------------------------

 --------------------------------
 TDDFT excited states in gaussian
 --------------------------------
 Symbolic Z-matrix:
 Charge =  0 Multiplicity = 1

                         Standard orientation:
 ---------------------------------------------------------------------
 Center     Atomic      Atomic             Coordinates (Angstroms)
 Number     Number       Type             X           Y           Z
 ---------------------------------------------------------------------
      1         12           0       15.773324   -0.813488    0.105441
      2          6           0       16.142239    2.589252   -0.942165
      3          6           0       16.717295    0.200226    3.223833
      4          6           0       15.895253   -3.869535    0.943492
      5          6           0       15.971568   -1.714944   -3.255175
      6          7           0       16.331455    1.170230    0.914144
      7          6           0       16.374794    2.404586    0.422556
      8          6           0       16.616464    3.494338    1.509482
      9          6           0       17.330731    2.593784    2.614391
     10          6           0       16.731643    1.245888    2.253567
     11          6           0       18.845432    2.517362    2.452088
     12          6           0       15.278601    4.105835    2.046068
     13          6           0       15.429520    5.392706    2.862487
     14          1           0       14.403634    6.418391    2.749013
     15          7           0       15.760312   -1.653091    1.893666
     16          6           0       16.164792   -1.088045    3.056595
     17          6           0       15.958743   -2.113905    4.101504
     18          6           0       15.580196   -3.384631    3.423233
     19          6           0       15.757928   -3.022100    2.040352
     20          6           0       16.075428   -1.830044    5.567641
     21          6           0       15.139841   -4.717791    3.939861
     22          8           0       15.084247   -5.752767    3.191323
     23          6           0       14.856308   -4.801681    5.384026
     24          7           0       16.132922   -2.567148   -0.968338
     25          6           0       16.070245   -3.764448   -0.375440
     26          6           0       16.080531   -4.874492   -1.384218
     27          6           0       15.917893   -4.176569   -2.811175
     28          6           0       15.924895   -2.697407   -2.352591
     29          6           0       17.332843   -5.762013   -1.389964
     30          6           0       14.750638   -4.666290   -3.704545
     31          6           0       13.428884   -4.280497   -3.079062
     32          7           0       15.835897    0.231774   -1.795758
     33          6           0       15.940960   -0.342750   -3.070732
     34          6           0       16.056079    0.765904   -4.035979
     35          6           0       16.026466    1.915415   -3.248837
     36          6           0       15.927232    1.547377   -1.876615
     37          6           0       16.227447    0.632212   -5.442106
     38          6           0       16.080375    3.368323   -3.245930
     39          8           0       16.070218    4.238201   -4.118112
     40          6           0       16.280205    3.859312   -1.744323
     41          6           0       15.288815    4.962163   -1.490999
     42          8           0       14.063112    4.728447   -1.471099
     43          8           0       15.940984    6.060369   -1.079706
     44          6           0       15.012576    7.183720   -0.782565
     45          1           0       17.225678    0.357693    4.177086
     46          1           0       15.830707   -4.933841    1.179130
     47          1           0       15.951952   -1.917204   -4.327629
     48          1           0       17.279900    4.303097    1.202586
     49          1           0       17.038151    2.880374    3.624334
     50          1           0       19.171236    2.990462    1.525832
     51          1           0       19.083610    1.453581    2.440483
     52          1           0       19.349968    2.927851    3.327142
     53          1           0       14.864180    3.448649    2.810544
     54          1           0       14.577698    4.277710    1.228437
     55          1           0       16.421152    5.829003    2.739121
     56          1           0       15.376923    5.134319    3.920159
     57          1           0       16.526870   -0.856061    5.752310
     58          1           0       16.792402   -2.543183    5.973953
     59          1           0       15.120603   -1.934507    6.083131
     60          1           0       15.750728   -4.525793    5.942997
     61          1           0       14.469283   -5.805300    5.556682
     62          1           0       14.095905   -4.062632    5.638079
     63          1           0       15.246967   -5.556908   -1.223266
     64          1           0       16.802887   -4.308290   -3.434159
     65          1           0       17.119732   -6.820949   -1.241828
     66          1           0       18.013517   -5.389354   -0.625046
     67          1           0       17.947537   -5.679378   -2.285921
     68          1           0       14.763324   -5.752853   -3.783065
     69          1           0       14.782942   -4.260305   -4.715675
     70          1           0       13.255195   -5.082706   -2.362734
     71          1           0       12.643307   -4.255228   -3.834999
     72          1           0       13.511739   -3.351670   -2.514349
     73          1           0       15.562546    1.363641   -5.901332
     74          1           0       15.994400   -0.378949   -5.775042
     75          1           0       17.286473    0.870400   -5.540013
     76          1           0       17.309447    4.207327   -1.662660
     77          1           0       15.332781    8.033012   -1.386224
     78          1           0       15.009982    7.305293    0.300772
     79          1           0       13.984527    7.063122   -1.125947
     80         12           0      -15.943792    0.785770    0.265576
     81          6           0      -15.918942   -2.745396   -0.374224
     82          6           0      -15.060299    1.232169   -2.998585
     83          6           0      -15.517622    3.864164    0.905316
     84          6           0      -15.696264    0.032012    3.659139
     85          7           0      -15.568478   -0.649176   -1.375262
     86          6           0      -15.649444   -1.963609   -1.516854
     87          6           0      -15.508591   -2.462791   -2.979916
     88          6           0      -14.688319   -1.219558   -3.580260
     89          6           0      -15.156572   -0.130095   -2.617726
     90          6           0      -13.182526   -1.367234   -3.438470
     91          6           0      -16.897473   -2.631407   -3.690260
     92          6           0      -16.855257   -3.405678   -5.009530
     93          1           0      -17.983592   -4.269442   -5.346051
     94          7           0      -15.855139    2.350267   -0.952233
     95          6           0      -15.498823    2.349075   -2.253895
     96          6           0      -15.575256    3.750967   -2.693223
     97          6           0      -15.846250    4.601569   -1.502525
     98          6           0      -15.726919    3.619030   -0.444003
     99          6           0      -15.476468    4.158539   -4.134595
    100          6           0      -16.148510    6.060697   -1.341957
    101          8           0      -16.114459    6.633229   -0.195710
    102          6           0      -16.393925    6.819174   -2.577264
    103          7           0      -15.437165    1.807661    2.003796
    104          6           0      -15.369584    3.150435    2.021551
    105          6           0      -15.261304    3.672518    3.434382
    106          6           0      -15.514754    2.408119    4.380237
    107          6           0      -15.642919    1.308282    3.303530
    108          6           0      -13.928525    4.324100    3.802493
    109          6           0      -16.641090    2.537964    5.441937
    110          6           0      -17.987501    2.616582    4.759017
    111          7           0      -16.012402   -1.006814    1.469741
    112          6           0      -15.861826   -1.099537    2.870742
    113          6           0      -15.868196   -2.536116    3.215173
    114          6           0      -15.999984   -3.185362    1.978405
    115          6           0      -16.050435   -2.222089    0.934826
    116          6           0      -15.713321   -3.078980    4.521863
    117          6           0      -16.097195   -4.466902    1.317416
    118          8           0      -16.196082   -5.633725    1.694889
    119          6           0      -15.921859   -4.243491   -0.246460
    120          6           0      -17.012317   -5.004495   -0.949512
    121          8           0      -18.203873   -4.678296   -0.806707
    122          8           0      -16.457892   -5.847799   -1.839358
    123          6           0      -17.500061   -6.617282   -2.569834
    124          1           0      -14.563903    1.474208   -3.938747
    125          1           0      -15.474950    4.917447    1.192106
    126          1           0      -15.722164   -0.282037    4.704792
    127          1           0      -14.937036   -3.375903   -3.095303
    128          1           0      -15.002704   -0.992212   -4.595562
    129          1           0      -12.916235   -2.232225   -2.849381
    130          1           0      -12.842293   -0.460876   -2.954946
    131          1           0      -12.710264   -1.378072   -4.424964
    132          1           0      -17.233044   -1.652935   -4.057335
    133          1           0      -17.611310   -3.082848   -3.028998
    134          1           0      -15.907754   -3.941831   -5.142664
    135          1           0      -16.875444   -2.688438   -5.833650
    136          1           0      -15.112709    3.335047   -4.761439
    137          1           0      -14.689055    4.917283   -4.199093
    138          1           0      -16.407507    4.582006   -4.517337
    139          1           0      -15.525229    6.742349   -3.226810
    140          1           0      -16.679879    7.821584   -2.252775
    141          1           0      -17.229422    6.354701   -3.112832
    142          1           0      -16.023148    4.416837    3.631065
    143          1           0      -14.624706    2.161078    4.977416
    144          1           0      -14.036378    5.363846    4.164947
    145          1           0      -13.280547    4.288470    2.936820
    146          1           0      -13.344508    3.790388    4.550345
    147          1           0      -16.524529    3.466569    6.006086
    148          1           0      -16.653947    1.724550    6.159698
    149          1           0      -18.067166    3.674514    4.491604
    150          1           0      -18.781340    2.321267    5.442131
    151          1           0      -17.990237    2.039834    3.826808
    152          1           0      -16.444816   -3.870151    4.619032
    153          1           0      -15.846427   -2.317203    5.287215
    154          1           0      -14.678994   -3.428789    4.466398
    155          1           0      -14.929412   -4.604028   -0.519656
    156          1           0      -17.268721   -7.678135   -2.432871
    157          1           0      -17.487462   -6.228618   -3.605465
    158          1           0      -18.514472   -6.571443   -2.191275
 ---------------------------------------------------------------------

 SCF Done:  E(RCAM-B3LYP) =  -4069.81178833     A.U. after   19 cycles

 Excitation energies and oscillator strengths:

 Excited State   1:      Singlet-A      1.6754 eV  740.03 nm  f=0.2485  <S**2>=0.000
     310 -> 316        0.16950
     311 -> 314        0.14727
     312 -> 313        0.67006
     310 <- 316        0.10218
 This state for optimization and/or second-order correction.
 Total Energy, E(TD-HF/TD-DFT) =  -4069.75021894
 Copying the excited state density for this state as the 1-particle RhoCI density.

 Excited State   2:      Singlet-A      1.6801 eV  737.96 nm  f=0.5285  <S**2>=0.000
     309 -> 315        0.17152
     311 -> 314        0.66970
     312 -> 313       -0.14723
     309 <- 315        0.10270

 Excited State   3:      Singlet-A      2.1861 eV  567.14 nm  f=0.0969  <S**2>=0.000
     310 -> 313        0.64220
     312 -> 316       -0.27299

 Excited State   4:      Singlet-A      2.1926 eV  565.47 nm  f=0.1034  <S**2>=0.000
     309 -> 314        0.64042
     311 -> 315       -0.27820

 Excited State   5:      Singlet-A      3.0660 eV  404.39 nm  f=0.0000  <S**2>=0.000
     311 -> 313        0.70711

 The electronic state is 1-A.
 Alpha  occ. eigenvalues --  -46.87796 -46.87660 -19.26349 -19.26286 -19.19161
 Alpha  occ. eigenvalues --  -19.19022 -19.18812 -19.18712 -19.18171 -19.18052
 Alpha  occ. eigenvalues --  -14.42497 -14.42449 -14.41449 -14.41360 -14.39402
 Alpha  occ. eigenvalues --  -14.39352 -14.38600 -14.38587 -10.39090 -10.39081
 Alpha  occ. eigenvalues --  -10.35445 -10.35389 -10.34391 -10.34229 -10.31755
 Alpha  occ. eigenvalues --  -10.31681 -10.31405 -10.31308 -10.31021 -10.30908
 Alpha  occ. eigenvalues --  -10.30570 -10.30508 -10.30398 -10.30361 -10.30206
 Alpha  occ. eigenvalues --  -10.30141 -10.29921 -10.29896 -10.29630 -10.29436
 Alpha  occ. eigenvalues --  -10.29400 -10.29254 -10.28748 -10.28716 -10.28650
 Alpha  occ. eigenvalues --  -10.28536 -10.28404 -10.28364 -10.28136 -10.28115
 Alpha  occ. eigenvalues --  -10.28001 -10.27793 -10.27727 -10.27668 -10.27583
 Alpha  occ. eigenvalues --  -10.27521 -10.27502 -10.27483 -10.27478 -10.27466
 Alpha  occ. eigenvalues --  -10.27461 -10.27450 -10.27403 -10.27378 -10.27159
 Alpha  occ. eigenvalues --  -10.27050 -10.26703 -10.26690 -10.26411 -10.26404
 Alpha  occ. eigenvalues --  -10.26233 -10.26186 -10.26142 -10.26020 -10.26019
 Alpha  occ. eigenvalues --  -10.25935 -10.25855 -10.25847 -10.25435 -10.25400
 Alpha  occ. eigenvalues --  -10.24873 -10.24833 -10.24787 -10.24736 -10.24690
 Alpha  occ. eigenvalues --  -10.24690  -3.16539  -3.16410  -1.91421  -1.91292
 Alpha  occ. eigenvalues --   -1.91007  -1.90881  -1.90849  -1.90718  -1.16643
 Alpha  occ. eigenvalues --   -1.16635  -1.08659  -1.08629  -1.07213  -1.06965
 Alpha  occ. eigenvalues --   -1.06945  -1.06644  -1.04581  -1.04494  -1.03760
 Alpha  occ. eigenvalues --   -1.03663  -1.03234  -1.03039  -1.02411  -1.02111
 Alpha  occ. eigenvalues --   -0.91987  -0.91972  -0.89520  -0.89496  -0.89187
 Alpha  occ. eigenvalues --   -0.89148  -0.88287  -0.88222  -0.87871  -0.87795
 Alpha  occ. eigenvalues --   -0.87683  -0.87672  -0.87272  -0.87118  -0.84998
 Alpha  occ. eigenvalues --   -0.84981  -0.83937  -0.83878  -0.82965  -0.82930
 Alpha  occ. eigenvalues --   -0.82651  -0.82648  -0.81596  -0.81587  -0.80596
 Alpha  occ. eigenvalues --   -0.80442  -0.78796  -0.78635  -0.77218  -0.77144
 Alpha  occ. eigenvalues --   -0.76934  -0.76898  -0.75923  -0.75837  -0.74898
 Alpha  occ. eigenvalues --   -0.74804  -0.72774  -0.72699  -0.71672  -0.71580
 Alpha  occ. eigenvalues --   -0.69908  -0.69760  -0.68872  -0.68825  -0.67641
 Alpha  occ. eigenvalues --   -0.67601  -0.67218  -0.67197  -0.65286  -0.65270
 Alpha  occ. eigenvalues --   -0.64854  -0.64770  -0.64653  -0.64621  -0.64270
 Alpha  occ. eigenvalues --   -0.64205  -0.62299  -0.62279  -0.60441  -0.60339
 Alpha  occ. eigenvalues --   -0.59804  -0.59794  -0.58993  -0.58987  -0.58504
 Alpha  occ. eigenvalues --   -0.58426  -0.57585  -0.57555  -0.57309  -0.57237
 Alpha  occ. eigenvalues --   -0.56310  -0.56204  -0.55979  -0.55885  -0.55519
 Alpha  occ. eigenvalues --   -0.55451  -0.55340  -0.55249  -0.54525  -0.54489
 Alpha  occ. eigenvalues --   -0.53910  -0.53894  -0.53298  -0.53228  -0.53221
 Alpha  occ. eigenvalues --   -0.53140  -0.52915  -0.52901  -0.52754  -0.52665
 Alpha  occ. eigenvalues --   -0.52440  -0.52404  -0.51917  -0.51887  -0.51656
 Alpha  occ. eigenvalues --   -0.51615  -0.51202  -0.51197  -0.50569  -0.50472
 Alpha  occ. eigenvalues --   -0.50031  -0.49978  -0.49917  -0.49868  -0.49513
 Alpha  occ. eigenvalues --   -0.49486  -0.49214  -0.49201  -0.49103  -0.49096
 Alpha  occ. eigenvalues --   -0.48593  -0.48558  -0.48461  -0.48444  -0.48377
 Alpha  occ. eigenvalues --   -0.48337  -0.47694  -0.47593  -0.47296  -0.47117
 Alpha  occ. eigenvalues --   -0.46797  -0.46709  -0.46554  -0.46552  -0.46359
 Alpha  occ. eigenvalues --   -0.46271  -0.46163  -0.46087  -0.45823  -0.45823
 Alpha  occ. eigenvalues --   -0.45210  -0.45201  -0.44578  -0.44514  -0.44505
 Alpha  occ. eigenvalues --   -0.44475  -0.44145  -0.44126  -0.44087  -0.44078
 Alpha  occ. eigenvalues --   -0.44019  -0.43937  -0.43553  -0.43496  -0.43385
 Alpha  occ. eigenvalues --   -0.43385  -0.43027  -0.42930  -0.42902  -0.42700
 Alpha  occ. eigenvalues --   -0.42656  -0.42555  -0.42010  -0.41965  -0.41704
 Alpha  occ. eigenvalues --   -0.41669  -0.41533  -0.41457  -0.41141  -0.40989
 Alpha  occ. eigenvalues --   -0.40869  -0.40821  -0.40720  -0.40697  -0.40572
 Alpha  occ. eigenvalues --   -0.40495  -0.40232  -0.40224  -0.39442  -0.39429
 Alpha  occ. eigenvalues --   -0.38469  -0.38351  -0.37747  -0.37652  -0.37320
 Alpha  occ. eigenvalues --   -0.37267  -0.37263  -0.37198  -0.36771  -0.36714
 Alpha  occ. eigenvalues --   -0.36218  -0.36193  -0.34286  -0.34253  -0.33862
 Alpha  occ. eigenvalues --   -0.33772  -0.33186  -0.33176  -0.31342  -0.31271
 Alpha  occ. eigenvalues --   -0.31035  -0.30973  -0.30030  -0.29956  -0.29448
 Alpha  occ. eigenvalues --   -0.29327  -0.29322  -0.29212  -0.24080  -0.24036
 Alpha  occ. eigenvalues --   -0.21127  -0.21117
 Alpha virt. eigenvalues --   -0.08792  -0.08774  -0.01749  -0.01684  -0.00057
 Alpha virt. eigenvalues --   -0.00027   0.02200   0.02206   0.03121   0.03227
 Alpha virt. eigenvalues --    0.04719   0.04731   0.05096   0.05165   0.06178

 Mulliken charges:
               1
     1  Mg   0.838712
     2  C   -0.002978
     3  C   -0.094099
     4  C   -0.045866
     5  C   -0.063950
     6  N   -0.256773
     7  C   -0.052489
     8  C   -0.014004
     9  C   -0.087027
    10  C    0.046323
    11  C    0.104813
    12  C    0.053471
    13  C   -0.071820
    14  H    0.036132
    15  N   -0.433148
    16  C    0.168444
    17  C   -0.177127
    18  C   -0.003979
    19  C    0.148713
    20  C    0.110172
    21  C    0.012299
    22  O   -0.249601
    23  C    0.062465
    24  N   -0.341129
    25  C    0.041270
    26  C   -0.028193
    27  C   -0.023959
    28  C    0.074811
    29  C    0.076167
    30  C    0.035134
    31  C   -0.004502
    32  N   -0.310452
    33  C    0.080384
    34  C   -0.169762
    35  C    0.008339
    36  C    0.082988
    37  C    0.127323
    38  C    0.046090
    39  O   -0.188501
    40  C   -0.005319
    41  C    0.212877
    42  O   -0.257123
    43  O   -0.304793
    44  C    0.157700
    45  H   -0.017571
    46  H   -0.016817
    47  H   -0.041534
    48  H    0.000931
    49  H   -0.004001
    50  H    0.025465
    51  H    0.016449
    52  H    0.016681
    53  H    0.011226
    54  H    0.044104
    55  H    0.017869
    56  H    0.017984
    57  H    0.005893
    58  H    0.026855
    59  H    0.039608
    60  H    0.037360
    61  H    0.035701
    62  H    0.031532
    63  H    0.016565
    64  H    0.009445
    65  H    0.023230
    66  H    0.012560
    67  H    0.004743
    68  H    0.006362
    69  H    0.004687
    70  H    0.008808
    71  H    0.018089
    72  H    0.028994
    73  H    0.047510
    74  H    0.009078
    75  H    0.045996
    76  H    0.035147
    77  H    0.042924
    78  H    0.046429
    79  H    0.053662
    80  Mg   0.837822
    81  C   -0.016811
    82  C   -0.087750
    83  C   -0.045476
    84  C   -0.064884
    85  N   -0.254564
    86  C   -0.049840
    87  C   -0.015081
    88  C   -0.090512
    89  C    0.045751
    90  C    0.114356
    91  C    0.062509
    92  C   -0.077911
    93  H    0.034893
    94  N   -0.423492
    95  C    0.162926
    96  C   -0.174569
    97  C   -0.007798
    98  C    0.152111
    99  C    0.099341
   100  C    0.015593
   101  O   -0.253182
   102  C    0.061193
   103  N   -0.350047
   104  C    0.037527
   105  C   -0.019847
   106  C   -0.034828
   107  C    0.088916
   108  C    0.073651
   109  C    0.034750
   110  C   -0.007671
   111  N   -0.324091
   112  C    0.078424
   113  C   -0.163172
   114  C    0.002262
   115  C    0.096160
   116  C    0.131493
   117  C    0.042357
   118  O   -0.187908
   119  C    0.000927
   120  C    0.211266
   121  O   -0.251028
   122  O   -0.305627
   123  C    0.152039
   124  H   -0.019565
   125  H   -0.015561
   126  H   -0.040498
   127  H   -0.000630
   128  H   -0.004281
   129  H    0.022465
   130  H    0.014457
   131  H    0.016377
   132  H    0.013925
   133  H    0.037656
   134  H    0.020816
   135  H    0.019629
   136  H    0.008817
   137  H    0.026236
   138  H    0.039826
   139  H    0.038314
   140  H    0.036420
   141  H    0.033899
   142  H    0.014397
   143  H    0.012399
   144  H    0.025138
   145  H    0.011691
   146  H    0.005656
   147  H    0.006239
   148  H    0.003616
   149  H    0.010938
   150  H    0.017907
   151  H    0.030120
   152  H    0.045977
   153  H    0.008478
   154  H    0.046928
   155  H    0.035049
   156  H    0.043906
   157  H    0.049519
   158  H    0.053563
 Sum of Mulliken charges =  -0.00000

 Dipole moment (field-independent basis, Debye):
    X=              4.0854    Y=              1.4857    Z=              0.6608  Tot=              4.3971
 Quadrupole moment (field-independent basis, Debye-Ang):
   XX=           -518.7902   YY=           -545.7816   ZZ=           -452.9500
   XY=            -39.0325   XZ=            122.3095   YZ=             42.6934

 Normal termination of Gaussian 16 at Sun Sep 12 11:53:29 2021.
