 Gaussian 16, Revision A.03,
 Gaussian 16:  ES64L-G16RevA.03 25-Dec-2016

 -----------------------------------
 #p cam-b3lyp/Def2SVP td=(nstates=5)
 -----------------------------------

 --------------------------------
 TDDFT excited states in gaussian
 --------------------------------
 Symbolic Z-matrix:
 Charge =  0 Multiplicity = 1

                         Standard orientation:
 ---------------------------------------------------------------------
 Center     Atomic      Atomic             Coordinates (Angstroms)
 Number     Number       Type             X           Y           Z
 ---------------------------------------------------------------------
      1         12           0        4.795377    1.246830    0.711473
      2          6           0        5.539772   -2.102588   -0.308081
      3          6           0        5.873447    2.263550   -2.362142
      4          6           0        4.576308    4.237221    1.744038
      5          6           0        4.862890    0.102847    4.002735
      6          7           0        5.581619    0.127575   -1.029141
      7          6           0        5.760852   -1.158600   -1.313395
      8          6           0        6.133439   -1.415764   -2.804173
      9          6           0        6.749731    0.011128   -3.159366
     10          6           0        5.998596    0.858761   -2.147813
     11          6           0        8.244604    0.116947   -2.875359
     12          6           0        4.878022   -1.732826   -3.684588
     13          6           0        5.180646   -2.312681   -5.069341
     14          1           0        4.276960   -3.309187   -5.624027
     15          7           0        4.701545    2.945424   -0.292930
     16          6           0        5.176925    3.175939   -1.540392
     17          6           0        4.864170    4.589630   -1.840966
     18          6           0        4.338345    5.214101   -0.595318
     19          6           0        4.544931    4.150574    0.354213
     20          6           0        5.024146    5.196525   -3.201052
     21          6           0        3.753659    6.560070   -0.304385
     22          8           0        3.574887    6.980292    0.889780
     23          6           0        3.474089    7.420385   -1.468318
     24          7           0        4.944881    2.109315    2.606572
     25          6           0        4.751459    3.420687    2.785115
     26          6           0        4.627518    3.761136    4.240680
     27          6           0        4.533668    2.367378    5.014233
     28          6           0        4.712256    1.414661    3.806464
     29          6           0        5.770882    4.597113    4.832180
     30          6           0        3.311196    2.159601    5.943109
     31          6           0        2.046875    2.079300    5.117190
     32          7           0        4.960885   -0.679856    1.697136
     33          6           0        4.989758   -0.920572    3.078402
     34          6           0        5.222216   -2.365188    3.260379
     35          6           0        5.329649   -2.865071    1.964069
     36          6           0        5.200339   -1.796063    1.031978
     37          6           0        5.365953   -3.035596    4.507106
     38          6           0        5.548184   -4.049808    1.150129
     39          8           0        5.629821   -5.257187    1.380487
     40          6           0        5.814567   -3.585258   -0.349558
     41          6           0        4.956872   -4.434502   -1.247585
     42          8           0        3.712760   -4.340841   -1.219645
     43          8           0        5.732802   -5.044149   -2.156873
     44          6           0        4.940360   -5.879804   -3.098080
     45          1           0        6.404090    2.718893   -3.200606
     46          1           0        4.393248    5.237327    2.142428
     47          1           0        4.811792   -0.339640    4.999252
     48          1           0        6.881910   -2.193299   -2.957973
     49          1           0        6.499733    0.321305   -4.173769
     50          1           0        8.614534   -0.765777   -2.353947
     51          1           0        8.360365    1.003759   -2.251935
     52          1           0        8.799520    0.320276   -3.791603
     53          1           0        4.397846   -0.798572   -3.975555
     54          1           0        4.194595   -2.398631   -3.156423
     55          1           0        6.214373   -2.651804   -5.142222
     56          1           0        5.107583   -1.507321   -5.800270
     57          1           0        5.584723    4.542664   -3.867958
     58          1           0        5.658772    6.074888   -3.085131
     59          1           0        4.067823    5.488649   -3.635151
     60          1           0        4.398526    7.590034   -2.020753
     61          1           0        2.977028    8.306382   -1.074886
     62          1           0        2.804582    6.890403   -2.146425
     63          1           0        3.723192    4.337385    4.431881
     64          1           0        5.392933    2.201873    5.664576
     65          1           0        5.440126    5.530089    5.289193
     66          1           0        6.495609    4.784858    4.040465
     67          1           0        6.383739    4.077392    5.568192
     68          1           0        3.199806    3.007153    6.618530
     69          1           0        3.381230    1.257747    6.551389
     70          1           0        1.789013    3.126670    4.964361
     71          1           0        1.263177    1.561041    5.670756
     72          1           0        2.239198    1.644566    4.136117
     73          1           0        4.784712   -3.954241    4.428244
     74          1           0        5.016937   -2.415651    5.332611
     75          1           0        6.444350   -3.191893    4.529179
     76          1           0        6.877290   -3.732690   -0.539309
     77          1           0        5.350040   -6.888998   -3.054210
     78          1           0        4.960321   -5.366989   -4.059863
     79          1           0        3.902532   -6.066742   -2.820041
     80         12           0       -5.642233   -0.101870   -0.392715
     81          6           0       -3.099364   -2.619576   -0.120632
     82          6           0       -3.285963    1.911980   -1.816438
     83          6           0       -7.729439    2.282813   -0.236897
     84          6           0       -7.435591   -1.848352    2.032035
     85          7           0       -3.503854   -0.425436   -0.856263
     86          6           0       -2.661466   -1.443403   -0.764286
     87          6           0       -1.297375   -1.215151   -1.469063
     88          6           0       -1.278042    0.390385   -1.441295
     89          6           0       -2.782274    0.652332   -1.404504
     90          6           0       -0.662397    0.963026   -0.175439
     91          6           0       -1.284648   -1.764412   -2.938809
     92          6           0        0.102067   -1.854707   -3.579613
     93          1           0        0.376683   -2.961734   -4.491516
     94          7           0       -5.691089    1.627646   -1.364808
     95          6           0       -4.643700    2.292069   -1.896580
     96          6           0       -5.202297    3.519725   -2.483938
     97          6           0       -6.640573    3.605577   -2.111499
     98          6           0       -6.739878    2.495104   -1.185709
     99          6           0       -4.407569    4.430585   -3.373976
    100          6           0       -7.741070    4.541131   -2.511285
    101          8           0       -8.857184    4.575814   -1.882059
    102          6           0       -7.439487    5.480199   -3.601561
    103          7           0       -7.236567    0.295462    0.881078
    104          6           0       -8.015819    1.375676    0.697136
    105          6           0       -9.255214    1.307024    1.557110
    106          6           0       -9.264847   -0.165876    2.180059
    107          6           0       -7.923638   -0.686830    1.618681
    108          6           0       -9.340999    2.336402    2.683796
    109          6           0      -10.542929   -1.018425    1.951267
    110          6           0      -10.677861   -1.363104    0.485536
    111          7           0       -5.440572   -1.995338    0.628147
    112          6           0       -6.290172   -2.521105    1.626057
    113          6           0       -5.679960   -3.781056    2.097845
    114          6           0       -4.496576   -3.890015    1.352049
    115          6           0       -4.367546   -2.766345    0.491689
    116          6           0       -6.196137   -4.622417    3.123416
    117          6           0       -3.321887   -4.694738    1.104610
    118          8           0       -2.932664   -5.801042    1.476539
    119          6           0       -2.301718   -3.844572    0.231194
    120          6           0       -1.819177   -4.714370   -0.897135
    121          8           0       -2.606340   -5.099215   -1.779676
    122          8           0       -0.475052   -4.768071   -0.868324
    123          6           0        0.051503   -5.610407   -1.975122
    124          1           0       -2.573891    2.700233   -2.062386
    125          1           0       -8.533345    3.022365   -0.220475
    126          1           0       -7.982213   -2.501010    2.716073
    127          1           0       -0.439402   -1.606604   -0.935752
    128          1           0       -0.842511    0.795941   -2.350802
    129          1           0       -0.446143    0.193838    0.551011
    130          1           0       -1.391399    1.659871    0.217019
    131          1           0        0.221360    1.558420   -0.422044
    132          1           0       -1.750155   -1.023858   -3.601862
    133          1           0       -1.770609   -2.719157   -2.992972
    134          1           0        0.905392   -1.758488   -2.839101
    135          1           0        0.237868   -0.991754   -4.236036
    136          1           0       -3.336006    4.199522   -3.332054
    137          1           0       -4.484927    5.438134   -2.951224
    138          1           0       -4.781217    4.448184   -4.400008
    139          1           0       -6.584421    6.092333   -3.324764
    140          1           0       -8.375920    6.003753   -3.803710
    141          1           0       -7.142137    4.905670   -4.485925
    142          1           0      -10.148478    1.441708    0.959572
    143          1           0       -9.160729   -0.145922    3.274861
    144          1           0      -10.251697    2.962701    2.634397
    145          1           0       -8.452903    2.953437    2.650739
    146          1           0       -9.298393    1.923930    3.690401
    147          1           0      -11.433748   -0.444661    2.218466
    148          1           0      -10.562102   -1.933097    2.534368
    149          1           0      -11.152830   -0.471617    0.065102
    150          1           0      -11.304623   -2.242981    0.355050
    151          1           0       -9.693992   -1.466191    0.013285
    152          1           0       -6.098875   -5.640167    2.769548
    153          1           0       -7.230857   -4.378280    3.354728
    154          1           0       -5.520657   -4.366436    3.944079
    155          1           0       -1.487003   -3.535706    0.887263
    156          1           0        0.681299   -6.380370   -1.518811
    157          1           0        0.541508   -4.909526   -2.676843
    158          1           0       -0.658731   -6.216672   -2.525084
 ---------------------------------------------------------------------

 SCF Done:  E(RCAM-B3LYP) =  -4069.81233498     A.U. after   19 cycles

 Excitation energies and oscillator strengths:

 Excited State   1:      Singlet-A      1.6532 eV  749.95 nm  f=0.0018  <S**2>=0.000
     309 -> 315       -0.11845
     310 -> 316       -0.11924
     311 -> 313       -0.48176
     312 -> 314        0.49029
 This state for optimization and/or second-order correction.
 Total Energy, E(TD-HF/TD-DFT) =  -4069.75157976
 Copying the excited state density for this state as the 1-particle RhoCI density.

 Excited State   2:      Singlet-A      1.6977 eV  730.30 nm  f=0.7078  <S**2>=0.000
     309 -> 315        0.12867
     310 -> 316       -0.12518
     311 -> 313        0.48818
     312 -> 314        0.47979

 Excited State   3:      Singlet-A      2.1824 eV  568.11 nm  f=0.0812  <S**2>=0.000
     309 -> 313        0.15952
     310 -> 314        0.62352
     312 -> 316        0.26226

 Excited State   4:      Singlet-A      2.1944 eV  565.01 nm  f=0.1157  <S**2>=0.000
     309 -> 313        0.62031
     310 -> 314       -0.15754
     311 -> 315       -0.27090

 Excited State   5:      Singlet-A      2.3650 eV  524.25 nm  f=0.0000  <S**2>=0.000
     312 -> 313        0.70644

 The electronic state is 1-A.
 Alpha  occ. eigenvalues --  -46.88151 -46.87402 -19.26681 -19.25430 -19.19477
 Alpha  occ. eigenvalues --  -19.19145 -19.18509 -19.18470 -19.18443 -19.17671
 Alpha  occ. eigenvalues --  -14.42790 -14.42232 -14.41772 -14.41103 -14.39752
 Alpha  occ. eigenvalues --  -14.39098 -14.38918 -14.38332 -10.39495 -10.38387
 Alpha  occ. eigenvalues --  -10.35779 -10.35192 -10.34671 -10.33827 -10.32090
 Alpha  occ. eigenvalues --  -10.31725 -10.31264 -10.31019 -10.30889 -10.30827
 Alpha  occ. eigenvalues --  -10.30724 -10.30669 -10.30524 -10.30215 -10.30135
 Alpha  occ. eigenvalues --  -10.30081 -10.29942 -10.29925 -10.29638 -10.29583
 Alpha  occ. eigenvalues --  -10.29208 -10.29143 -10.29100 -10.28897 -10.28703
 Alpha  occ. eigenvalues --  -10.28440 -10.28311 -10.28175 -10.28120 -10.28099
 Alpha  occ. eigenvalues --  -10.28051 -10.27911 -10.27853 -10.27822 -10.27755
 Alpha  occ. eigenvalues --  -10.27739 -10.27738 -10.27704 -10.27488 -10.27422
 Alpha  occ. eigenvalues --  -10.27328 -10.27305 -10.27215 -10.27178 -10.27177
 Alpha  occ. eigenvalues --  -10.27120 -10.26766 -10.26537 -10.26513 -10.26405
 Alpha  occ. eigenvalues --  -10.26325 -10.26287 -10.26265 -10.26029 -10.25971
 Alpha  occ. eigenvalues --  -10.25827 -10.25693 -10.25659 -10.25617 -10.25223
 Alpha  occ. eigenvalues --  -10.25136 -10.25104 -10.24921 -10.24594 -10.24569
 Alpha  occ. eigenvalues --  -10.24432  -3.16892  -3.16152  -1.91775  -1.91360
 Alpha  occ. eigenvalues --   -1.91202  -1.91035  -1.90623  -1.90460  -1.17034
 Alpha  occ. eigenvalues --   -1.15779  -1.08902  -1.08244  -1.07547  -1.07060
 Alpha  occ. eigenvalues --   -1.06765  -1.06229  -1.04919  -1.04218  -1.04085
 Alpha  occ. eigenvalues --   -1.03561  -1.03400  -1.02786  -1.02735  -1.01850
 Alpha  occ. eigenvalues --   -0.92298  -0.91647  -0.89808  -0.89523  -0.89249
 Alpha  occ. eigenvalues --   -0.88833  -0.88566  -0.88144  -0.87999  -0.87994
 Alpha  occ. eigenvalues --   -0.87607  -0.87534  -0.87403  -0.86905  -0.85316
 Alpha  occ. eigenvalues --   -0.84683  -0.84210  -0.83631  -0.83291  -0.82981
 Alpha  occ. eigenvalues --   -0.82731  -0.82331  -0.81927  -0.81074  -0.80930
 Alpha  occ. eigenvalues --   -0.79995  -0.79114  -0.78399  -0.77521  -0.77257
 Alpha  occ. eigenvalues --   -0.76867  -0.76506  -0.76247  -0.75433  -0.75180
 Alpha  occ. eigenvalues --   -0.74501  -0.73074  -0.72439  -0.71980  -0.71286
 Alpha  occ. eigenvalues --   -0.70168  -0.69550  -0.69200  -0.68515  -0.67961
 Alpha  occ. eigenvalues --   -0.67571  -0.67303  -0.66867  -0.65624  -0.65183
 Alpha  occ. eigenvalues --   -0.64946  -0.64908  -0.64559  -0.64479  -0.64234
 Alpha  occ. eigenvalues --   -0.63925  -0.62650  -0.61661  -0.60762  -0.60133
 Alpha  occ. eigenvalues --   -0.60112  -0.59483  -0.59300  -0.58821  -0.58689
 Alpha  occ. eigenvalues --   -0.58097  -0.57923  -0.57616  -0.57123  -0.56877
 Alpha  occ. eigenvalues --   -0.56620  -0.56341  -0.55939  -0.55840  -0.55636
 Alpha  occ. eigenvalues --   -0.55369  -0.55071  -0.54854  -0.54839  -0.54236
 Alpha  occ. eigenvalues --   -0.54010  -0.53618  -0.53590  -0.53550  -0.53259
 Alpha  occ. eigenvalues --   -0.53097  -0.52935  -0.52809  -0.52694  -0.52475
 Alpha  occ. eigenvalues --   -0.52413  -0.52171  -0.52148  -0.51956  -0.51614
 Alpha  occ. eigenvalues --   -0.51497  -0.51315  -0.50913  -0.50835  -0.50316
 Alpha  occ. eigenvalues --   -0.50288  -0.50233  -0.49844  -0.49741  -0.49646
 Alpha  occ. eigenvalues --   -0.49535  -0.49399  -0.49222  -0.48918  -0.48867
 Alpha  occ. eigenvalues --   -0.48776  -0.48771  -0.48737  -0.48188  -0.48134
 Alpha  occ. eigenvalues --   -0.48020  -0.48015  -0.47613  -0.47274  -0.47100
 Alpha  occ. eigenvalues --   -0.46895  -0.46825  -0.46673  -0.46465  -0.46427
 Alpha  occ. eigenvalues --   -0.46242  -0.46117  -0.46004  -0.45725  -0.45480
 Alpha  occ. eigenvalues --   -0.45378  -0.44955  -0.44885  -0.44817  -0.44452
 Alpha  occ. eigenvalues --   -0.44401  -0.44332  -0.44189  -0.44142  -0.43847
 Alpha  occ. eigenvalues --   -0.43826  -0.43805  -0.43702  -0.43584  -0.43334
 Alpha  occ. eigenvalues --   -0.43145  -0.43064  -0.42950  -0.42936  -0.42610
 Alpha  occ. eigenvalues --   -0.42340  -0.42300  -0.42107  -0.42009  -0.41858
 Alpha  occ. eigenvalues --   -0.41677  -0.41448  -0.41335  -0.41192  -0.41158
 Alpha  occ. eigenvalues --   -0.41136  -0.40850  -0.40709  -0.40609  -0.40471
 Alpha  occ. eigenvalues --   -0.40419  -0.40221  -0.39821  -0.39699  -0.39223
 Alpha  occ. eigenvalues --   -0.38756  -0.38117  -0.38096  -0.37616  -0.37608
 Alpha  occ. eigenvalues --   -0.37308  -0.37078  -0.37015  -0.36872  -0.36522
 Alpha  occ. eigenvalues --   -0.36234  -0.35708  -0.34611  -0.34182  -0.33979
 Alpha  occ. eigenvalues --   -0.33516  -0.33279  -0.32868  -0.31673  -0.31362
 Alpha  occ. eigenvalues --   -0.31066  -0.30687  -0.30305  -0.29783  -0.29627
 Alpha  occ. eigenvalues --   -0.29555  -0.29082  -0.28937  -0.24413  -0.23759
 Alpha  occ. eigenvalues --   -0.21447  -0.20862
 Alpha virt. eigenvalues --   -0.09096  -0.08530  -0.02080  -0.01436  -0.00390
 Alpha virt. eigenvalues --    0.00200   0.01897   0.02188   0.02526   0.03477
 Alpha virt. eigenvalues --    0.04336   0.04623   0.05006   0.05526   0.05822

 Mulliken charges:
               1
     1  Mg   0.831319
     2  C   -0.004209
     3  C   -0.094431
     4  C   -0.045162
     5  C   -0.063211
     6  N   -0.256608
     7  C   -0.053698
     8  C   -0.013146
     9  C   -0.086628
    10  C    0.045212
    11  C    0.104651
    12  C    0.048701
    13  C   -0.071847
    14  H    0.036161
    15  N   -0.433585
    16  C    0.166738
    17  C   -0.178258
    18  C   -0.004927
    19  C    0.147582
    20  C    0.110267
    21  C    0.011349
    22  O   -0.248951
    23  C    0.063115
    24  N   -0.340444
    25  C    0.040606
    26  C   -0.028239
    27  C   -0.024263
    28  C    0.074775
    29  C    0.075927
    30  C    0.034936
    31  C   -0.004644
    32  N   -0.311062
    33  C    0.080457
    34  C   -0.168254
    35  C    0.009428
    36  C    0.082887
    37  C    0.126824
    38  C    0.047637
    39  O   -0.186335
    40  C   -0.006051
    41  C    0.213873
    42  O   -0.258184
    43  O   -0.303803
    44  C    0.157960
    45  H   -0.017265
    46  H   -0.016474
    47  H   -0.040186
    48  H    0.001643
    49  H   -0.004079
    50  H    0.025903
    51  H    0.016866
    52  H    0.017294
    53  H    0.010303
    54  H    0.046487
    55  H    0.018966
    56  H    0.018349
    57  H    0.006147
    58  H    0.027645
    59  H    0.037845
    60  H    0.038200
    61  H    0.036167
    62  H    0.029141
    63  H    0.016748
    64  H    0.010275
    65  H    0.023753
    66  H    0.012691
    67  H    0.005393
    68  H    0.007171
    69  H    0.005718
    70  H    0.008802
    71  H    0.019427
    72  H    0.027547
    73  H    0.049917
    74  H    0.009901
    75  H    0.046575
    76  H    0.036147
    77  H    0.044784
    78  H    0.046978
    79  H    0.050211
    80  Mg   0.836991
    81  C   -0.016926
    82  C   -0.087837
    83  C   -0.045980
    84  C   -0.065823
    85  N   -0.254278
    86  C   -0.050195
    87  C   -0.016841
    88  C   -0.091234
    89  C    0.045532
    90  C    0.109293
    91  C    0.063306
    92  C   -0.079256
    93  H    0.031396
    94  N   -0.423360
    95  C    0.162483
    96  C   -0.175012
    97  C   -0.008406
    98  C    0.151943
    99  C    0.099815
   100  C    0.015190
   101  O   -0.253833
   102  C    0.061371
   103  N   -0.350233
   104  C    0.037285
   105  C   -0.019642
   106  C   -0.034781
   107  C    0.089269
   108  C    0.073887
   109  C    0.034883
   110  C   -0.007575
   111  N   -0.324228
   112  C    0.078880
   113  C   -0.163736
   114  C    0.002849
   115  C    0.095812
   116  C    0.131596
   117  C    0.041735
   118  O   -0.185899
   119  C    0.002592
   120  C    0.209525
   121  O   -0.254804
   122  O   -0.299337
   123  C    0.158375
   124  H   -0.020664
   125  H   -0.016308
   126  H   -0.041031
   127  H    0.007612
   128  H   -0.005697
   129  H    0.025060
   130  H    0.014617
   131  H    0.018895
   132  H    0.011219
   133  H    0.038064
   134  H    0.032413
   135  H    0.014287
   136  H    0.007365
   137  H    0.025515
   138  H    0.038558
   139  H    0.037864
   140  H    0.035710
   141  H    0.033357
   142  H    0.013928
   143  H    0.011983
   144  H    0.024574
   145  H    0.011634
   146  H    0.005136
   147  H    0.005760
   148  H    0.003427
   149  H    0.010677
   150  H    0.017532
   151  H    0.030454
   152  H    0.046148
   153  H    0.007872
   154  H    0.046762
   155  H    0.038786
   156  H    0.046927
   157  H    0.051780
   158  H    0.045531
 Sum of Mulliken charges =  -0.00000

 Dipole moment (field-independent basis, Debye):
    X=              4.7913    Y=              6.0417    Z=             -3.4587  Tot=              8.4511
 Quadrupole moment (field-independent basis, Debye-Ang):
   XX=           -497.9036   YY=           -563.3228   ZZ=           -460.4440
   XY=             14.7836   XZ=            -37.1409   YZ=             -4.5178

 Normal termination of Gaussian 16 at Fri Sep 10 20:25:21 2021.
