 Gaussian 16, Revision A.03,
 Gaussian 16:  ES64L-G16RevA.03 25-Dec-2016

 -----------------------------------
 #p cam-b3lyp/Def2SVP td=(nstates=5)
 -----------------------------------

 --------------------------------
 TDDFT excited states in gaussian
 --------------------------------
 Symbolic Z-matrix:
 Charge =  0 Multiplicity = 1

                         Standard orientation:
 ---------------------------------------------------------------------
 Center     Atomic      Atomic             Coordinates (Angstroms)
 Number     Number       Type             X           Y           Z
 ---------------------------------------------------------------------
      1         12           0        4.707887   -0.284885    0.171579
      2          6           0        4.649230    2.872894   -1.512822
      3          6           0        5.399492    1.426774    3.041243
      4          6           0        5.212907   -3.077499    1.586810
      5          6           0        5.140444   -1.774796   -2.949113
      6          7           0        4.965057    1.874725    0.584609
      7          6           0        4.857975    2.986334   -0.136522
      8          6           0        4.913055    4.286364    0.720369
      9          6           0        5.704372    3.721594    1.984035
     10          6           0        5.305497    2.259615    1.886873
     11          6           0        7.220154    3.827079    1.850695
     12          6           0        3.487356    4.796866    1.118493
     13          6           0        3.435157    6.224171    1.671150
     14          1           0        2.284585    7.056444    1.353573
     15          7           0        4.747507   -0.761163    2.088462
     16          6           0        5.032100    0.066169    3.122780
     17          6           0        4.931045   -0.759851    4.345138
     18          6           0        4.750950   -2.176763    3.923213
     19          6           0        4.925083   -2.063759    2.497631
     20          6           0        4.958306   -0.187902    5.729291
     21          6           0        4.477382   -3.434833    4.685153
     22          8           0        4.587637   -4.591151    4.150974
     23          6           0        4.158753   -3.280102    6.116089
     24          7           0        5.337447   -2.143875   -0.539367
     25          6           0        5.416924   -3.202826    0.273830
     26          6           0        5.611422   -4.472603   -0.500622
     27          6           0        5.404698   -4.089466   -2.036924
     28          6           0        5.196197   -2.563644   -1.873623
     29          6           0        6.971608   -5.161881   -0.325119
     30          6           0        4.345411   -4.898263   -2.826972
     31          6           0        2.963125   -4.587868   -2.297784
     32          7           0        4.693411    0.376561   -1.895623
     33          6           0        4.918488   -0.410482   -3.034297
     34          6           0        4.915603    0.498546   -4.195214
     35          6           0        4.704183    1.761673   -3.645981
     36          6           0        4.608891    1.652204   -2.229214
     37          6           0        5.151256    0.124047   -5.547490
     38          6           0        4.561201    3.181520   -3.924277
     39          8           0        4.463345    3.858867   -4.948542
     40          6           0        4.641608    3.973073   -2.544855
     41          6           0        3.502278    4.955150   -2.517298
     42          8           0        2.319421    4.561325   -2.461447
     43          8           0        3.985726    6.191524   -2.321853
     44          6           0        2.904501    7.210648   -2.254821
     45          1           0        5.849175    1.832488    3.949605
     46          1           0        5.284736   -4.075682    2.023743
     47          1           0        5.184874   -2.178794   -3.962160
     48          1           0        5.471223    5.105948    0.267428
     49          1           0        5.341529    4.152169    2.917133
     50          1           0        7.510423    4.155293    0.852727
     51          1           0        7.600105    2.824323    2.047190
     52          1           0        7.634511    4.463192    2.633284
     53          1           0        3.139713    4.246562    1.992776
     54          1           0        2.797922    4.710279    0.277952
     55          1           0        4.362384    6.762527    1.472830
     56          1           0        3.381949    6.167689    2.758430
     57          1           0        5.267484    0.856576    5.725019
     58          1           0        5.750782   -0.703548    6.271324
     59          1           0        4.009345   -0.323838    6.248258
     60          1           0        4.988142   -2.780880    6.617527
     61          1           0        3.905196   -4.276202    6.477117
     62          1           0        3.297277   -2.619257    6.216547
     63          1           0        4.872689   -5.220948   -0.216581
     64          1           0        6.320076   -4.213265   -2.616087
     65          1           0        6.898576   -6.192218    0.023846
     66          1           0        7.569248   -4.559048    0.358042
     67          1           0        7.599664   -5.167106   -1.215588
     68          1           0        4.507426   -5.967302   -2.693357
     69          1           0        4.356999   -4.692299   -3.897344
     70          1           0        2.875096   -5.254790   -1.440873
     71          1           0        2.207545   -4.816914   -3.050013
     72          1           0        2.900465   -3.565994   -1.923171
     73          1           0        4.409676    0.654608   -6.144595
     74          1           0        5.068416   -0.954478   -5.679869
     75          1           0        6.171114    0.484138   -5.681952
     76          1           0        5.611020    4.470018   -2.524656
     77          1           0        3.127420    7.965214   -3.009255
     78          1           0        2.848608    7.535230   -1.215625
     79          1           0        1.914466    6.884887   -2.575832
     80         12           0       -4.249990   -1.080577    0.074019
     81          6           0       -6.880561    1.359902    0.130701
     82          6           0       -2.043422    1.511713    0.287750
     83          6           0       -1.908498   -3.162636   -0.425839
     84          6           0       -6.553062   -3.328481   -1.263332
     85          7           0       -4.545523    1.108419    0.188989
     86          6           0       -5.591767    1.917079    0.264960
     87          6           0       -5.240057    3.396162    0.578269
     88          6           0       -3.729050    3.404403    0.034547
     89          6           0       -3.397777    1.923905    0.210815
     90          6           0       -3.622843    3.745021   -1.442628
     91          6           0       -5.299632    3.712318    2.114007
     92          6           0       -5.271213    5.201394    2.465613
     93          1           0       -6.050834    5.660945    3.611685
     94          7           0       -2.303237   -0.934003    0.430710
     95          6           0       -1.572732    0.198248    0.505912
     96          6           0       -0.190139   -0.231546    0.766447
     97          6           0       -0.135250   -1.715924    0.675087
     98          6           0       -1.471709   -1.999888    0.192055
     99          6           0        0.902221    0.726278    1.144232
    100          6           0        0.945837   -2.713675    0.961318
    101          8           0        0.851336   -3.935360    0.585315
    102          6           0        2.158841   -2.197409    1.612146
    103          7           0       -4.173256   -2.903853   -0.922037
    104          6           0       -3.043142   -3.632018   -0.945052
    105          6           0       -3.300236   -5.021463   -1.477716
    106          6           0       -4.890572   -5.154329   -1.581531
    107          6           0       -5.292203   -3.724780   -1.156713
    108          6           0       -2.673516   -5.340103   -2.834949
    109          6           0       -5.545928   -6.355480   -0.846392
    110          6           0       -5.403650   -6.185293    0.648991
    111          7           0       -6.376999   -1.087121   -0.305269
    112          6           0       -7.134976   -2.122016   -0.895648
    113          6           0       -8.515122   -1.617866   -1.048798
    114          6           0       -8.458606   -0.306149   -0.554115
    115          6           0       -7.132068   -0.006565   -0.141759
    116          6           0       -9.601739   -2.331147   -1.628973
    117          6           0       -9.217164    0.896801   -0.296839
    118          8           0      -10.406496    1.204714   -0.363419
    119          6           0       -8.201703    2.072030    0.040880
    120          6           0       -8.701719    2.778815    1.270910
    121          8           0       -8.739592    2.190987    2.366191
    122          8           0       -8.846228    4.088485    0.998457
    123          6           0       -9.329770    4.833850    2.191120
    124          1           0       -1.264262    2.256680    0.123973
    125          1           0       -1.162461   -3.955054   -0.520651
    126          1           0       -7.351744   -4.001980   -1.581414
    127          1           0       -5.832379    4.127448    0.041461
    128          1           0       -3.086645    4.016264    0.662482
    129          1           0       -4.593258    3.809772   -1.911942
    130          1           0       -3.040065    2.948793   -1.886962
    131          1           0       -3.036995    4.658749   -1.577621
    132          1           0       -4.360576    3.390702    2.582478
    133          1           0       -6.156493    3.250823    2.565046
    134          1           0       -5.463172    5.835108    1.591252
    135          1           0       -4.256131    5.466501    2.771112
    136          1           0        0.602735    1.767083    0.969746
    137          1           0        1.728810    0.560590    0.444830
    138          1           0        1.264628    0.571386    2.162731
    139          1           0        2.597991   -1.419361    0.992267
    140          1           0        2.777233   -3.073942    1.815045
    141          1           0        1.873585   -1.722906    2.557711
    142          1           0       -2.928783   -5.773293   -0.792239
    143          1           0       -5.222035   -5.277455   -2.623068
    144          1           0       -2.007374   -6.223159   -2.811585
    145          1           0       -2.134492   -4.466082   -3.175661
    146          1           0       -3.383044   -5.503976   -3.644217
    147          1           0       -5.030231   -7.283961   -1.103546
    148          1           0       -6.594317   -6.491228   -1.090175
    149          1           0       -4.397206   -6.566482    0.846106
    150          1           0       -6.156755   -6.769132    1.174362
    151          1           0       -5.414932   -5.125061    0.927277
    152          1           0      -10.460871   -2.160104   -0.994043
    153          1           0       -9.377983   -3.392078   -1.719144
    154          1           0       -9.659474   -1.839519   -2.603770
    155          1           0       -8.166417    2.733588   -0.825534
    156          1           0      -10.242094    5.358823    1.891551
    157          1           0       -8.476272    5.455402    2.521227
    158          1           0       -9.686684    4.253648    3.033992
 ---------------------------------------------------------------------

 SCF Done:  E(RCAM-B3LYP) =  -4069.80497744     A.U. after   19 cycles

 Excitation energies and oscillator strengths:

 Excited State   1:      Singlet-A      1.6471 eV  752.74 nm  f=0.3443  <S**2>=0.000
     309 -> 315       -0.13553
     311 -> 313        0.55282
     312 -> 314       -0.40850
 This state for optimization and/or second-order correction.
 Total Energy, E(TD-HF/TD-DFT) =  -4069.74444734
 Copying the excited state density for this state as the 1-particle RhoCI density.

 Excited State   2:      Singlet-A      1.6738 eV  740.75 nm  f=0.4567  <S**2>=0.000
     309 -> 315       -0.10645
     310 -> 316       -0.13734
     311 -> 313        0.40571
     312 -> 314        0.55089

 Excited State   3:      Singlet-A      2.1681 eV  571.86 nm  f=0.0043  <S**2>=0.000
     309 -> 313        0.51881
     310 -> 314       -0.38022
     311 -> 315        0.21438
     312 -> 316       -0.15379

 Excited State   4:      Singlet-A      2.1876 eV  566.76 nm  f=0.1651  <S**2>=0.000
     309 -> 313        0.36847
     310 -> 314        0.51895
     311 -> 315        0.16449
     312 -> 316        0.21851

 Excited State   5:      Singlet-A      2.2380 eV  554.00 nm  f=0.0019  <S**2>=0.000
     312 -> 313        0.69775

 The electronic state is 1-A.
 Alpha  occ. eigenvalues --  -46.88194 -46.87474 -19.26753 -19.26233 -19.19526
 Alpha  occ. eigenvalues --  -19.19095 -19.19039 -19.18686 -19.18514 -19.17896
 Alpha  occ. eigenvalues --  -14.42795 -14.42291 -14.41667 -14.41175 -14.39591
 Alpha  occ. eigenvalues --  -14.39169 -14.38932 -14.38423 -10.39565 -10.38965
 Alpha  occ. eigenvalues --  -10.35686 -10.35142 -10.34737 -10.34073 -10.32150
 Alpha  occ. eigenvalues --  -10.31724 -10.31664 -10.31290 -10.31066 -10.30874
 Alpha  occ. eigenvalues --  -10.30824 -10.30648 -10.30406 -10.30218 -10.30166
 Alpha  occ. eigenvalues --  -10.30076 -10.29971 -10.29907 -10.29727 -10.29578
 Alpha  occ. eigenvalues --  -10.29259 -10.29258 -10.29178 -10.29069 -10.28725
 Alpha  occ. eigenvalues --  -10.28551 -10.28493 -10.28480 -10.28223 -10.28112
 Alpha  occ. eigenvalues --  -10.28041 -10.27859 -10.27833 -10.27826 -10.27755
 Alpha  occ. eigenvalues --  -10.27750 -10.27537 -10.27459 -10.27391 -10.27385
 Alpha  occ. eigenvalues --  -10.27383 -10.27320 -10.27305 -10.27287 -10.27286
 Alpha  occ. eigenvalues --  -10.27250 -10.26892 -10.26617 -10.26544 -10.26533
 Alpha  occ. eigenvalues --  -10.26215 -10.26068 -10.26064 -10.26026 -10.25760
 Alpha  occ. eigenvalues --  -10.25736 -10.25707 -10.25549 -10.25365 -10.25305
 Alpha  occ. eigenvalues --  -10.25168 -10.24920 -10.24703 -10.24622 -10.24509
 Alpha  occ. eigenvalues --  -10.23758  -3.16923  -3.16223  -1.91820  -1.91385
 Alpha  occ. eigenvalues --   -1.91227  -1.91105  -1.90694  -1.90531  -1.17106
 Alpha  occ. eigenvalues --   -1.16526  -1.08976  -1.08507  -1.07475  -1.07136
 Alpha  occ. eigenvalues --   -1.06854  -1.06823  -1.04920  -1.04289  -1.04021
 Alpha  occ. eigenvalues --   -1.03523  -1.03475  -1.02862  -1.02684  -1.01932
 Alpha  occ. eigenvalues --   -0.92307  -0.91809  -0.89651  -0.89528  -0.89337
 Alpha  occ. eigenvalues --   -0.88897  -0.88287  -0.88158  -0.88073  -0.87960
 Alpha  occ. eigenvalues --   -0.87630  -0.87551  -0.87479  -0.86996  -0.85361
 Alpha  occ. eigenvalues --   -0.84789  -0.83909  -0.83744  -0.83114  -0.82943
 Alpha  occ. eigenvalues --   -0.82746  -0.82454  -0.81919  -0.81445  -0.80893
 Alpha  occ. eigenvalues --   -0.80280  -0.79075  -0.78494  -0.77486  -0.77149
 Alpha  occ. eigenvalues --   -0.76977  -0.76723  -0.76227  -0.75632  -0.74931
 Alpha  occ. eigenvalues --   -0.74660  -0.73025  -0.72519  -0.71921  -0.71381
 Alpha  occ. eigenvalues --   -0.69673  -0.69621  -0.69178  -0.68639  -0.67932
 Alpha  occ. eigenvalues --   -0.67599  -0.67440  -0.67057  -0.65653  -0.65155
 Alpha  occ. eigenvalues --   -0.65071  -0.64880  -0.64593  -0.64477  -0.64246
 Alpha  occ. eigenvalues --   -0.64049  -0.62610  -0.62130  -0.60763  -0.60275
 Alpha  occ. eigenvalues --   -0.60130  -0.59576  -0.59237  -0.58812  -0.58761
 Alpha  occ. eigenvalues --   -0.58257  -0.57958  -0.57456  -0.57405  -0.57165
 Alpha  occ. eigenvalues --   -0.56604  -0.56353  -0.56059  -0.55841  -0.55739
 Alpha  occ. eigenvalues --   -0.55489  -0.55392  -0.55109  -0.54628  -0.54364
 Alpha  occ. eigenvalues --   -0.54275  -0.53725  -0.53569  -0.53527  -0.53266
 Alpha  occ. eigenvalues --   -0.53183  -0.53023  -0.52905  -0.52776  -0.52666
 Alpha  occ. eigenvalues --   -0.52283  -0.52226  -0.52063  -0.51983  -0.51744
 Alpha  occ. eigenvalues --   -0.51562  -0.51359  -0.51051  -0.50808  -0.50504
 Alpha  occ. eigenvalues --   -0.50371  -0.50069  -0.49897  -0.49781  -0.49627
 Alpha  occ. eigenvalues --   -0.49516  -0.49410  -0.49262  -0.49022  -0.48934
 Alpha  occ. eigenvalues --   -0.48920  -0.48672  -0.48516  -0.48373  -0.48243
 Alpha  occ. eigenvalues --   -0.48195  -0.47837  -0.47589  -0.47193  -0.47101
 Alpha  occ. eigenvalues --   -0.46933  -0.46881  -0.46551  -0.46522  -0.46335
 Alpha  occ. eigenvalues --   -0.46258  -0.46163  -0.46082  -0.45926  -0.45662
 Alpha  occ. eigenvalues --   -0.45233  -0.45045  -0.44880  -0.44736  -0.44461
 Alpha  occ. eigenvalues --   -0.44376  -0.44357  -0.44224  -0.44124  -0.43938
 Alpha  occ. eigenvalues --   -0.43900  -0.43795  -0.43761  -0.43536  -0.43410
 Alpha  occ. eigenvalues --   -0.43267  -0.43198  -0.43087  -0.42794  -0.42734
 Alpha  occ. eigenvalues --   -0.42641  -0.42407  -0.42038  -0.41959  -0.41816
 Alpha  occ. eigenvalues --   -0.41727  -0.41495  -0.41396  -0.41263  -0.41120
 Alpha  occ. eigenvalues --   -0.41078  -0.40798  -0.40698  -0.40657  -0.40516
 Alpha  occ. eigenvalues --   -0.40333  -0.40321  -0.40058  -0.39296  -0.38990
 Alpha  occ. eigenvalues --   -0.38501  -0.38198  -0.38129  -0.37602  -0.37500
 Alpha  occ. eigenvalues --   -0.37294  -0.37093  -0.37083  -0.37000  -0.36645
 Alpha  occ. eigenvalues --   -0.36317  -0.36057  -0.34572  -0.34214  -0.34069
 Alpha  occ. eigenvalues --   -0.33728  -0.33436  -0.32984  -0.31586  -0.31255
 Alpha  occ. eigenvalues --   -0.31097  -0.30783  -0.30372  -0.29802  -0.29710
 Alpha  occ. eigenvalues --   -0.29629  -0.29172  -0.29045  -0.24361  -0.23838
 Alpha  occ. eigenvalues --   -0.21386  -0.20933
 Alpha virt. eigenvalues --   -0.09104  -0.08621  -0.02067  -0.01520  -0.00396
 Alpha virt. eigenvalues --    0.00087   0.01903   0.02308   0.03270   0.03465
 Alpha virt. eigenvalues --    0.04366   0.04610   0.04932   0.05294   0.05539

 Mulliken charges:
               1
     1  Mg   0.735864
     2  C   -0.000148
     3  C   -0.093275
     4  C   -0.043683
     5  C   -0.060882
     6  N   -0.254498
     7  C   -0.055989
     8  C   -0.012173
     9  C   -0.085910
    10  C    0.043508
    11  C    0.104594
    12  C    0.050162
    13  C   -0.071322
    14  H    0.034178
    15  N   -0.428800
    16  C    0.167215
    17  C   -0.179897
    18  C   -0.007251
    19  C    0.125224
    20  C    0.111333
    21  C    0.012318
    22  O   -0.247224
    23  C    0.063734
    24  N   -0.334310
    25  C    0.049398
    26  C   -0.026407
    27  C   -0.024825
    28  C    0.081570
    29  C    0.077418
    30  C    0.033912
    31  C   -0.001637
    32  N   -0.306767
    33  C    0.083060
    34  C   -0.169248
    35  C    0.009596
    36  C    0.079317
    37  C    0.127131
    38  C    0.046575
    39  O   -0.187502
    40  C   -0.008150
    41  C    0.213681
    42  O   -0.260937
    43  O   -0.303800
    44  C    0.157597
    45  H   -0.018366
    46  H   -0.013579
    47  H   -0.039822
    48  H    0.001542
    49  H   -0.004632
    50  H    0.025807
    51  H    0.017921
    52  H    0.017236
    53  H    0.010607
    54  H    0.041051
    55  H    0.019911
    56  H    0.018828
    57  H    0.005718
    58  H    0.027690
    59  H    0.038495
    60  H    0.037854
    61  H    0.037986
    62  H    0.029616
    63  H    0.023933
    64  H    0.008286
    65  H    0.024159
    66  H    0.011319
    67  H    0.004286
    68  H    0.005072
    69  H    0.000682
    70  H    0.020724
    71  H    0.013579
    72  H    0.028889
    73  H    0.047900
    74  H    0.010890
    75  H    0.046571
    76  H    0.036104
    77  H    0.044535
    78  H    0.046283
    79  H    0.051955
    80  Mg   0.838203
    81  C   -0.016935
    82  C   -0.090692
    83  C   -0.046201
    84  C   -0.065155
    85  N   -0.254533
    86  C   -0.049429
    87  C   -0.015261
    88  C   -0.089786
    89  C    0.044172
    90  C    0.113917
    91  C    0.062776
    92  C   -0.077119
    93  H    0.033319
    94  N   -0.424029
    95  C    0.164283
    96  C   -0.183279
    97  C   -0.001082
    98  C    0.152729
    99  C    0.100378
   100  C    0.040079
   101  O   -0.249180
   102  C    0.038480
   103  N   -0.350020
   104  C    0.037680
   105  C   -0.019849
   106  C   -0.034796
   107  C    0.089035
   108  C    0.073433
   109  C    0.034879
   110  C   -0.007611
   111  N   -0.323992
   112  C    0.078425
   113  C   -0.163485
   114  C    0.002232
   115  C    0.096080
   116  C    0.131534
   117  C    0.042114
   118  O   -0.188496
   119  C    0.001033
   120  C    0.211208
   121  O   -0.251487
   122  O   -0.305409
   123  C    0.152252
   124  H   -0.009544
   125  H   -0.015255
   126  H   -0.040992
   127  H   -0.000779
   128  H   -0.004798
   129  H    0.020768
   130  H    0.019275
   131  H    0.019352
   132  H    0.013077
   133  H    0.037035
   134  H    0.021107
   135  H    0.018795
   136  H    0.014401
   137  H    0.038385
   138  H    0.048298
   139  H    0.047047
   140  H    0.068032
   141  H    0.035659
   142  H    0.014132
   143  H    0.012221
   144  H    0.023706
   145  H    0.012341
   146  H    0.005564
   147  H    0.005728
   148  H    0.003434
   149  H    0.010958
   150  H    0.017518
   151  H    0.030258
   152  H    0.045527
   153  H    0.008150
   154  H    0.046918
   155  H    0.035370
   156  H    0.043642
   157  H    0.049312
   158  H    0.053164
 Sum of Mulliken charges =  -0.00000

 Dipole moment (field-independent basis, Debye):
    X=              5.7746    Y=              2.4660    Z=              3.1941  Tot=              7.0448
 Quadrupole moment (field-independent basis, Debye-Ang):
   XX=           -553.3103   YY=           -476.2763   ZZ=           -506.1277
   XY=             15.8925   XZ=             25.4026   YZ=             47.4158

 Normal termination of Gaussian 16 at Fri Sep 10 07:38:34 2021.
