 Gaussian 16, Revision A.03,
 Gaussian 16:  ES64L-G16RevA.03 25-Dec-2016

 -----------------------------------
 #p cam-b3lyp/Def2SVP td=(nstates=5)
 -----------------------------------

 --------------------------------
 TDDFT excited states in gaussian
 --------------------------------
 Symbolic Z-matrix:
 Charge =  0 Multiplicity = 1

                         Standard orientation:
 ---------------------------------------------------------------------
 Center     Atomic      Atomic             Coordinates (Angstroms)
 Number     Number       Type             X           Y           Z
 ---------------------------------------------------------------------
      1         12           0        8.025686   -0.613046    0.678953
      2          6           0        8.399130    2.247258   -1.440342
      3          6           0        8.666849    1.447311    3.322228
      4          6           0        8.150670   -3.192493    2.519456
      5          6           0        8.540377   -2.588879   -2.145376
      6          7           0        8.460615    1.554268    0.798249
      7          6           0        8.515752    2.549162   -0.081704
      8          6           0        8.633683    3.954264    0.580984
      9          6           0        9.270825    3.521519    1.976971
     10          6           0        8.739829    2.101077    2.056410
     11          6           0       10.795365    3.475915    1.962867
     12          6           0        7.238953    4.638836    0.775459
     13          6           0        7.285253    6.132457    1.110581
     14          1           0        6.247739    7.002280    0.577363
     15          7           0        7.877150   -0.795783    2.640431
     16          6           0        8.163774    0.151025    3.566004
     17          6           0        7.892851   -0.469106    4.880812
     18          6           0        7.607356   -1.912913    4.652763
     19          6           0        7.896421   -2.031927    3.246471
     20          6           0        7.873390    0.301021    6.165443
     21          6           0        7.157152   -3.013399    5.560716
     22          8           0        7.193482   -4.242306    5.209944
     23          6           0        6.750335   -2.617574    6.921181
     24          7           0        8.522096   -2.604987    0.300296
     25          6           0        8.437887   -3.531754    1.261023
     26          6           0        8.564525   -4.915898    0.697068
     27          6           0        8.510048   -4.753114   -0.890473
     28          6           0        8.439548   -3.207977   -0.966980
     29          6           0        9.834488   -5.684253    1.088010
     30          6           0        7.438302   -5.578650   -1.645636
     31          6           0        6.057511   -5.075045   -1.289414
     32          7           0        8.228294   -0.272814   -1.455113
     33          6           0        8.459149   -1.239204   -2.444796
     34          6           0        8.630453   -0.519171   -3.720051
     35          6           0        8.503000    0.825832   -3.378629
     36          6           0        8.293180    0.940267   -1.974645
     37          6           0        8.927721   -1.112461   -4.978650
     38          6           0        8.519813    2.194274   -3.869487
     39          8           0        8.564223    2.714897   -4.985046
     40          6           0        8.574822    3.175423   -2.616432
     41          6           0        7.537566    4.243977   -2.829976
     42          8           0        6.321117    3.965498   -2.821722
     43          8           0        8.123291    5.449875   -2.772721
     44          6           0        7.144397    6.555921   -2.947598
     45          1           0        9.085593    1.945777    4.198656
     46          1           0        8.092561   -4.115624    3.099879
     47          1           0        8.619942   -3.143637   -3.082055
     48          1           0        9.300871    4.645332    0.065513
     49          1           0        8.883720    4.117537    2.803188
     50          1           0       11.189074    3.623560    0.957324
     51          1           0       11.060376    2.485652    2.333866
     52          1           0       11.210755    4.185290    2.679118
     53          1           0        6.775816    4.258675    1.685977
     54          1           0        6.608305    4.485362   -0.100928
     55          1           0        8.272571    6.553555    0.918774
     56          1           0        7.146683    6.245691    2.185838
     57          1           0        8.282218    1.302623    6.038168
     58          1           0        8.569735   -0.192503    6.843119
     59          1           0        6.879995    0.326550    6.613602
     60          1           0        7.585081   -2.120916    7.416236
     61          1           0        6.375083   -3.522363    7.398040
     62          1           0        5.952207   -1.878070    6.849946
     63          1           0        7.737525   -5.546927    1.020025
     64          1           0        9.449277   -5.040668   -1.363584
     65          1           0        9.635968   -6.639985    1.573676
     66          1           0       10.435889   -5.038318    1.727053
     67          1           0       10.523068   -5.877564    0.265875
     68          1           0        7.485201   -6.625097   -1.346145
     69          1           0        7.548865   -5.538563   -2.729342
     70          1           0        5.841977   -5.594832   -0.356570
     71          1           0        5.340829   -5.349826   -2.064057
     72          1           0        6.067116   -4.006718   -1.072455
     73          1           0        8.287409   -0.616914   -5.708309
     74          1           0        8.750311   -2.187556   -4.961403
     75          1           0        9.984913   -0.865176   -5.073795
     76          1           0        9.583847    3.585164   -2.583194
     77          1           0        7.494775    7.166000   -3.780228
     78          1           0        7.043796    7.037398   -1.974734
     79          1           0        6.153769    6.271066   -3.303763
     80         12           0       -7.782841   -0.676737   -0.683488
     81          6           0       -9.551668    1.657627    1.390414
     82          6           0       -7.026071    1.944379   -2.730834
     83          6           0       -6.604702   -2.767151   -2.759440
     84          6           0       -9.603115   -3.215666    0.861231
     85          7           0       -8.280954    1.475663   -0.577127
     86          6           0       -8.906479    2.258209    0.289287
     87          6           0       -8.768545    3.777093    0.000288
     88          6           0       -8.470077    3.695901   -1.575531
     89          6           0       -7.853715    2.299793   -1.635947
     90          6           0       -9.728516    3.699690   -2.427380
     91          6           0       -7.571485    4.427385    0.778874
     92          6           0       -7.565420    5.957625    0.787469
     93          1           0       -7.086212    6.645055    1.983411
     94          7           0       -6.537030   -0.412386   -2.205544
     95          6           0       -6.338676    0.723392   -2.906927
     96          6           0       -5.338898    0.392510   -3.934119
     97          6           0       -5.085317   -1.073160   -3.886965
     98          6           0       -6.103440   -1.486567   -2.942184
     99          6           0       -4.669126    1.433768   -4.783003
    100          6           0       -4.099161   -1.958205   -4.587245
    101          8           0       -4.213420   -3.234785   -4.575848
    102          6           0       -3.049215   -1.283561   -5.364402
    103          7           0       -8.209929   -2.674534   -1.069181
    104          6           0       -7.514248   -3.364996   -1.989625
    105          6           0       -7.807530   -4.843561   -1.899002
    106          6           0       -8.664833   -5.030346   -0.561939
    107          6           0       -8.800621   -3.550937   -0.139648
    108          6           0       -8.569683   -5.444186   -3.079999
    109          6           0       -8.130045   -6.050404    0.480242
    110          6           0       -6.835973   -5.547048    1.078066
    111          7           0       -9.166567   -0.813555    0.970177
    112          6           0       -9.831777   -1.970278    1.432301
    113          6           0      -10.755200   -1.542867    2.503298
    114          6           0      -10.578549   -0.152845    2.574773
    115          6           0       -9.628020    0.259753    1.602269
    116          6           0      -11.642178   -2.390979    3.224472
    117          6           0      -10.987873    1.060631    3.244571
    118          8           0      -11.702817    1.320280    4.211624
    119          6           0      -10.434712    2.303115    2.422006
    120          6           0       -9.795212    3.256221    3.394196
    121          8           0       -8.773212    2.927598    4.022003
    122          8           0      -10.363985    4.468379    3.261731
    123          6           0       -9.755509    5.451067    4.197616
    124          1           0       -6.925255    2.650381   -3.555640
    125          1           0       -6.148809   -3.544519   -3.376980
    126          1           0      -10.133491   -3.960213    1.458745
    127          1           0       -9.666047    4.356911    0.179336
    128          1           0       -7.744899    4.446346   -1.879365
    129          1           0      -10.622779    3.637010   -1.825281
    130          1           0       -9.647587    2.836936   -3.075555
    131          1           0       -9.734829    4.572426   -3.086647
    132          1           0       -6.641229    4.238905    0.227653
    133          1           0       -7.527510    4.060190    1.785780
    134          1           0       -8.526202    6.375460    0.463022
    135          1           0       -6.853827    6.306056    0.034972
    136          1           0       -5.178342    2.402502   -4.707836
    137          1           0       -4.809138    1.133603   -5.827107
    138          1           0       -3.599401    1.518405   -4.580028
    139          1           0       -3.509124   -0.654650   -6.122959
    140          1           0       -2.389796   -2.079040   -5.716895
    141          1           0       -2.493885   -0.615822   -4.696321
    142          1           0       -6.891509   -5.414879   -1.811795
    143          1           0       -9.681693   -5.390388   -0.776878
    144          1           0       -8.035963   -6.285149   -3.561648
    145          1           0       -8.764366   -4.657157   -3.796395
    146          1           0       -9.572409   -5.800081   -2.849590
    147          1           0       -7.898352   -7.001609   -0.005227
    148          1           0       -8.832835   -6.259684    1.279794
    149          1           0       -6.087975   -5.852832    0.340436
    150          1           0       -6.652534   -6.014602    2.043354
    151          1           0       -6.823955   -4.451929    1.125216
    152          1           0      -11.573787   -2.100717    4.264456
    153          1           0      -11.389369   -3.440156    3.086288
    154          1           0      -12.591153   -2.131188    2.747795
    155          1           0      -11.280595    2.754726    1.902284
    156          1           0      -10.571830    5.876049    4.789820
    157          1           0       -9.176956    6.148866    3.563511
    158          1           0       -9.107244    5.066570    4.976307
 ---------------------------------------------------------------------

 SCF Done:  E(RCAM-B3LYP) =  -4069.81196871     A.U. after   19 cycles

 Excitation energies and oscillator strengths:

 Excited State   1:      Singlet-A      1.6702 eV  742.31 nm  f=0.0866  <S**2>=0.000
     309 -> 315        0.10542
     310 -> 316       -0.13696
     311 -> 313        0.41737
     312 -> 314        0.54485
 This state for optimization and/or second-order correction.
 Total Energy, E(TD-HF/TD-DFT) =  -4069.75058834
 Copying the excited state density for this state as the 1-particle RhoCI density.

 Excited State   2:      Singlet-A      1.6853 eV  735.67 nm  f=0.6774  <S**2>=0.000
     309 -> 315        0.14055
     310 -> 316        0.10715
     311 -> 313        0.54406
     312 -> 314       -0.41690

 Excited State   3:      Singlet-A      2.1868 eV  566.96 nm  f=0.0566  <S**2>=0.000
     309 -> 313        0.14536
     310 -> 314        0.62586
     312 -> 316        0.26642

 Excited State   4:      Singlet-A      2.1933 eV  565.28 nm  f=0.1367  <S**2>=0.000
     309 -> 313        0.62411
     310 -> 314       -0.14444
     311 -> 315       -0.27147

 Excited State   5:      Singlet-A      2.7889 eV  444.56 nm  f=0.0000  <S**2>=0.000
     312 -> 313        0.70707

 The electronic state is 1-A.
 Alpha  occ. eigenvalues --  -46.87788 -46.87581 -19.26340 -19.26312 -19.19118
 Alpha  occ. eigenvalues --  -19.19073 -19.18785 -19.18595 -19.18185 -19.17985
 Alpha  occ. eigenvalues --  -14.42444 -14.42419 -14.41438 -14.41282 -14.39392
 Alpha  occ. eigenvalues --  -14.39268 -14.38582 -14.38523 -10.39129 -10.39046
 Alpha  occ. eigenvalues --  -10.35417 -10.35267 -10.34406 -10.34165 -10.31750
 Alpha  occ. eigenvalues --  -10.31731 -10.31406 -10.31237 -10.30940 -10.30904
 Alpha  occ. eigenvalues --  -10.30567 -10.30499 -10.30319 -10.30284 -10.30187
 Alpha  occ. eigenvalues --  -10.30056 -10.29911 -10.29824 -10.29622 -10.29348
 Alpha  occ. eigenvalues --  -10.29313 -10.29241 -10.28759 -10.28652 -10.28604
 Alpha  occ. eigenvalues --  -10.28568 -10.28360 -10.28323 -10.28121 -10.28070
 Alpha  occ. eigenvalues --  -10.27919 -10.27788 -10.27720 -10.27588 -10.27572
 Alpha  occ. eigenvalues --  -10.27472 -10.27455 -10.27449 -10.27423 -10.27407
 Alpha  occ. eigenvalues --  -10.27402 -10.27372 -10.27322 -10.27308 -10.27179
 Alpha  occ. eigenvalues --  -10.26991 -10.26726 -10.26630 -10.26362 -10.26238
 Alpha  occ. eigenvalues --  -10.26237 -10.26142 -10.26074 -10.26007 -10.25960
 Alpha  occ. eigenvalues --  -10.25857 -10.25848 -10.25792 -10.25409 -10.25335
 Alpha  occ. eigenvalues --  -10.24831 -10.24794 -10.24776 -10.24665 -10.24633
 Alpha  occ. eigenvalues --  -10.24612  -3.16531  -3.16331  -1.91413  -1.91213
 Alpha  occ. eigenvalues --   -1.90999  -1.90841  -1.90802  -1.90639  -1.16687
 Alpha  occ. eigenvalues --   -1.16605  -1.08647  -1.08596  -1.07185  -1.06902
 Alpha  occ. eigenvalues --   -1.06846  -1.06695  -1.04577  -1.04417  -1.03750
 Alpha  occ. eigenvalues --   -1.03584  -1.03225  -1.02960  -1.02403  -1.02033
 Alpha  occ. eigenvalues --   -0.91975  -0.91914  -0.89501  -0.89421  -0.89194
 Alpha  occ. eigenvalues --   -0.89082  -0.88267  -0.88149  -0.87869  -0.87721
 Alpha  occ. eigenvalues --   -0.87668  -0.87607  -0.87254  -0.87005  -0.84985
 Alpha  occ. eigenvalues --   -0.84927  -0.83916  -0.83808  -0.82938  -0.82816
 Alpha  occ. eigenvalues --   -0.82647  -0.82565  -0.81606  -0.81537  -0.80599
 Alpha  occ. eigenvalues --   -0.80368  -0.78784  -0.78538  -0.77210  -0.77067
 Alpha  occ. eigenvalues --   -0.76942  -0.76835  -0.75932  -0.75769  -0.74885
 Alpha  occ. eigenvalues --   -0.74734  -0.72767  -0.72622  -0.71668  -0.71509
 Alpha  occ. eigenvalues --   -0.69878  -0.69689  -0.68873  -0.68751  -0.67636
 Alpha  occ. eigenvalues --   -0.67522  -0.67220  -0.67114  -0.65292  -0.65203
 Alpha  occ. eigenvalues --   -0.64856  -0.64698  -0.64621  -0.64585  -0.64253
 Alpha  occ. eigenvalues --   -0.64133  -0.62322  -0.62222  -0.60423  -0.60239
 Alpha  occ. eigenvalues --   -0.59806  -0.59723  -0.58983  -0.58919  -0.58501
 Alpha  occ. eigenvalues --   -0.58352  -0.57605  -0.57494  -0.57300  -0.57155
 Alpha  occ. eigenvalues --   -0.56307  -0.56123  -0.56009  -0.55827  -0.55510
 Alpha  occ. eigenvalues --   -0.55361  -0.55336  -0.55183  -0.54530  -0.54428
 Alpha  occ. eigenvalues --   -0.53901  -0.53842  -0.53288  -0.53219  -0.53145
 Alpha  occ. eigenvalues --   -0.53058  -0.52924  -0.52832  -0.52740  -0.52549
 Alpha  occ. eigenvalues --   -0.52408  -0.52332  -0.51918  -0.51820  -0.51619
 Alpha  occ. eigenvalues --   -0.51574  -0.51197  -0.51133  -0.50541  -0.50345
 Alpha  occ. eigenvalues --   -0.50008  -0.49902  -0.49890  -0.49786  -0.49510
 Alpha  occ. eigenvalues --   -0.49392  -0.49215  -0.49119  -0.49102  -0.49036
 Alpha  occ. eigenvalues --   -0.48604  -0.48491  -0.48451  -0.48431  -0.48309
 Alpha  occ. eigenvalues --   -0.48231  -0.47688  -0.47511  -0.47288  -0.47029
 Alpha  occ. eigenvalues --   -0.46789  -0.46637  -0.46561  -0.46479  -0.46353
 Alpha  occ. eigenvalues --   -0.46191  -0.46162  -0.46018  -0.45837  -0.45763
 Alpha  occ. eigenvalues --   -0.45183  -0.45137  -0.44587  -0.44492  -0.44446
 Alpha  occ. eigenvalues --   -0.44399  -0.44133  -0.44087  -0.44053  -0.44017
 Alpha  occ. eigenvalues --   -0.43999  -0.43838  -0.43512  -0.43497  -0.43380
 Alpha  occ. eigenvalues --   -0.43315  -0.43025  -0.42874  -0.42834  -0.42731
 Alpha  occ. eigenvalues --   -0.42638  -0.42475  -0.41999  -0.41896  -0.41703
 Alpha  occ. eigenvalues --   -0.41598  -0.41535  -0.41388  -0.41137  -0.40917
 Alpha  occ. eigenvalues --   -0.40864  -0.40801  -0.40642  -0.40599  -0.40555
 Alpha  occ. eigenvalues --   -0.40425  -0.40243  -0.40149  -0.39408  -0.39356
 Alpha  occ. eigenvalues --   -0.38452  -0.38281  -0.37759  -0.37588  -0.37305
 Alpha  occ. eigenvalues --   -0.37268  -0.37194  -0.37125  -0.36743  -0.36723
 Alpha  occ. eigenvalues --   -0.36199  -0.36152  -0.34281  -0.34178  -0.33813
 Alpha  occ. eigenvalues --   -0.33813  -0.33183  -0.33098  -0.31316  -0.31157
 Alpha  occ. eigenvalues --   -0.31029  -0.30893  -0.30046  -0.29892  -0.29438
 Alpha  occ. eigenvalues --   -0.29318  -0.29236  -0.29132  -0.24074  -0.23959
 Alpha  occ. eigenvalues --   -0.21119  -0.21036
 Alpha virt. eigenvalues --   -0.08766  -0.08708  -0.01738  -0.01602  -0.00044
 Alpha virt. eigenvalues --    0.00069   0.02199   0.02281   0.03131   0.03307
 Alpha virt. eigenvalues --    0.04718   0.04800   0.05055   0.05212   0.06158

 Mulliken charges:
               1
     1  Mg   0.838706
     2  C   -0.003163
     3  C   -0.094125
     4  C   -0.045704
     5  C   -0.063831
     6  N   -0.256806
     7  C   -0.052577
     8  C   -0.014017
     9  C   -0.087031
    10  C    0.046363
    11  C    0.104797
    12  C    0.053468
    13  C   -0.071669
    14  H    0.035520
    15  N   -0.433181
    16  C    0.168553
    17  C   -0.177013
    18  C   -0.003789
    19  C    0.148776
    20  C    0.110142
    21  C    0.012503
    22  O   -0.249396
    23  C    0.062361
    24  N   -0.341134
    25  C    0.041318
    26  C   -0.028229
    27  C   -0.023970
    28  C    0.074819
    29  C    0.076158
    30  C    0.035084
    31  C   -0.004577
    32  N   -0.310361
    33  C    0.080236
    34  C   -0.169882
    35  C    0.008142
    36  C    0.082840
    37  C    0.127377
    38  C    0.045808
    39  O   -0.188986
    40  C   -0.005236
    41  C    0.212841
    42  O   -0.257651
    43  O   -0.304618
    44  C    0.157924
    45  H   -0.017528
    46  H   -0.016617
    47  H   -0.041458
    48  H    0.000802
    49  H   -0.003981
    50  H    0.025416
    51  H    0.016550
    52  H    0.016694
    53  H    0.011399
    54  H    0.043737
    55  H    0.017905
    56  H    0.018179
    57  H    0.005860
    58  H    0.026939
    59  H    0.039974
    60  H    0.037298
    61  H    0.035964
    62  H    0.031845
    63  H    0.016827
    64  H    0.009404
    65  H    0.023360
    66  H    0.012480
    67  H    0.004745
    68  H    0.006519
    69  H    0.004682
    70  H    0.009033
    71  H    0.018642
    72  H    0.028720
    73  H    0.047153
    74  H    0.009242
    75  H    0.045960
    76  H    0.035141
    77  H    0.042803
    78  H    0.046510
    79  H    0.053011
    80  Mg   0.837797
    81  C   -0.016892
    82  C   -0.087568
    83  C   -0.045483
    84  C   -0.064935
    85  N   -0.254557
    86  C   -0.050028
    87  C   -0.015090
    88  C   -0.090554
    89  C    0.045784
    90  C    0.114376
    91  C    0.062471
    92  C   -0.077761
    93  H    0.034366
    94  N   -0.423581
    95  C    0.163062
    96  C   -0.174274
    97  C   -0.007512
    98  C    0.152183
    99  C    0.099207
   100  C    0.015737
   101  O   -0.253390
   102  C    0.061057
   103  N   -0.350032
   104  C    0.037571
   105  C   -0.019855
   106  C   -0.034690
   107  C    0.088758
   108  C    0.073707
   109  C    0.034767
   110  C   -0.007658
   111  N   -0.324004
   112  C    0.078220
   113  C   -0.163376
   114  C    0.002081
   115  C    0.096038
   116  C    0.131543
   117  C    0.042173
   118  O   -0.188380
   119  C    0.000993
   120  C    0.211202
   121  O   -0.251160
   122  O   -0.305605
   123  C    0.152148
   124  H   -0.019446
   125  H   -0.015528
   126  H   -0.040704
   127  H   -0.000859
   128  H   -0.004148
   129  H    0.022318
   130  H    0.014469
   131  H    0.016283
   132  H    0.014237
   133  H    0.037498
   134  H    0.020675
   135  H    0.019807
   136  H    0.008757
   137  H    0.026325
   138  H    0.041418
   139  H    0.038346
   140  H    0.036716
   141  H    0.035249
   142  H    0.014445
   143  H    0.012220
   144  H    0.025089
   145  H    0.011665
   146  H    0.005522
   147  H    0.006122
   148  H    0.003468
   149  H    0.011027
   150  H    0.017794
   151  H    0.030194
   152  H    0.045717
   153  H    0.008366
   154  H    0.046719
   155  H    0.034866
   156  H    0.043696
   157  H    0.049477
   158  H    0.053341
 Sum of Mulliken charges =  -0.00000

 Dipole moment (field-independent basis, Debye):
    X=              2.5927    Y=              3.0988    Z=              0.2723  Tot=              4.0495
 Quadrupole moment (field-independent basis, Debye-Ang):
   XX=           -508.1003   YY=           -462.3527   ZZ=           -529.0665
   XY=              6.9808   XZ=             72.6482   YZ=             14.6315

 Normal termination of Gaussian 16 at Sat Sep 11 20:32:42 2021.
