 Gaussian 16, Revision A.03,
 Gaussian 16:  ES64L-G16RevA.03 25-Dec-2016

 -----------------------------------
 #p cam-b3lyp/Def2SVP td=(nstates=5)
 -----------------------------------

 --------------------------------
 TDDFT excited states in gaussian
 --------------------------------
 Symbolic Z-matrix:
 Charge =  0 Multiplicity = 1

                         Standard orientation:
 ---------------------------------------------------------------------
 Center     Atomic      Atomic             Coordinates (Angstroms)
 Number     Number       Type             X           Y           Z
 ---------------------------------------------------------------------
      1         12           0       -3.482403    1.066587   -0.178026
      2          6           0       -4.222697   -1.993044    1.525747
      3          6           0       -4.179314    2.687947    2.742346
      4          6           0       -3.277520    3.799788   -1.773099
      5          6           0       -3.951755   -0.657923   -3.169921
      6          7           0       -4.109052    0.330652    1.813546
      7          6           0       -4.299271   -0.869723    2.352143
      8          6           0       -4.513417   -0.827815    3.894790
      9          6           0       -5.038000    0.671190    4.035480
     10          6           0       -4.374900    1.276533    2.810823
     11          6           0       -6.550646    0.803433    3.890856
     12          6           0       -3.179907   -1.044768    4.686252
     13          6           0       -3.347203   -1.342844    6.179074
     14          1           0       -2.422070   -2.267586    6.816514
     15          7           0       -3.220703    2.913369    0.472942
     16          6           0       -3.547304    3.394702    1.696435
     17          6           0       -3.155542    4.820598    1.691346
     18          6           0       -2.749661    5.176010    0.303168
     19          6           0       -3.095781    3.968693   -0.402498
     20          6           0       -3.143657    5.675037    2.921607
     21          6           0       -2.155417    6.411974   -0.294661
     22          8           0       -2.095500    6.595113   -1.558561
     23          6           0       -1.720008    7.455347    0.651296
     24          7           0       -3.810998    1.572566   -2.176436
     25          6           0       -3.594156    2.816349   -2.617988
     26          6           0       -3.620279    2.876070   -4.116550
     27          6           0       -3.659726    1.360811   -4.618730
     28          6           0       -3.736000    0.657543   -3.241099
     29          6           0       -4.792992    3.649414   -4.735173
     30          6           0       -2.555077    0.920100   -5.611677
     31          6           0       -1.210719    0.925014   -4.919019
     32          7           0       -3.820958   -0.996746   -0.760334
     33          6           0       -4.010358   -1.485505   -2.061071
     34          6           0       -4.310310   -2.924269   -1.942517
     35          6           0       -4.290782   -3.170651   -0.571109
     36          6           0       -4.023163   -1.956994    0.124384
     37          6           0       -4.613505   -3.803811   -3.019045
     38          6           0       -4.458097   -4.171921    0.469718
     39          8           0       -4.605544   -5.394880    0.480852
     40          6           0       -4.541312   -3.425772    1.874056
     41          6           0       -3.618948   -4.140347    2.823758
     42          8           0       -2.383080   -4.120663    2.651686
     43          8           0       -4.309907   -4.529591    3.906166
     44          6           0       -3.447130   -5.219369    4.902145
     45          1           0       -4.598365    3.317690    3.529595
     46          1           0       -3.105800    4.698198   -2.369596
     47          1           0       -4.026061   -1.278257   -4.064972
     48          1           0       -5.266235   -1.522276    4.268172
     49          1           0       -4.667122    1.148717    4.942199
     50          1           0       -7.005601   -0.138878    3.585918
     51          1           0       -6.704441    1.565374    3.126471
     52          1           0       -6.993755    1.201450    4.804099
     53          1           0       -2.639151   -0.100217    4.745126
     54          1           0       -2.581954   -1.832236    4.226172
     55          1           0       -4.377450   -1.606520    6.419855
     56          1           0       -3.166607   -0.421914    6.733577
     57          1           0       -3.648975    5.186201    3.753616
     58          1           0       -3.757073    6.550018    2.707513
     59          1           0       -2.135892    5.990012    3.192776
     60          1           0       -2.571488    7.773322    1.253311
     61          1           0       -1.239708    8.225741    0.049087
     62          1           0       -0.998044    7.023811    1.345194
     63          1           0       -2.723601    3.357691   -4.504411
     64          1           0       -4.590677    1.125097   -5.134911
     65          1           0       -4.483314    4.463191   -5.391353
     66          1           0       -5.419058    4.018391   -3.923269
     67          1           0       -5.500650    3.037006   -5.293378
     68          1           0       -2.490315    1.621695   -6.442650
     69          1           0       -2.722387   -0.073139   -6.028492
     70          1           0       -0.902213    1.967166   -4.993694
     71          1           0       -0.510973    0.272276   -5.441990
     72          1           0       -1.308123    0.689168   -3.859125
     73          1           0       -4.058574   -4.722265   -2.828093
     74          1           0       -4.336998   -3.366026   -3.977946
     75          1           0       -5.692415   -3.903107   -2.900936
     76          1           0       -5.580956   -3.478250    2.195783
     77          1           0       -3.893109   -6.195823    5.091550
     78          1           0       -3.343349   -4.538080    5.746822
     79          1           0       -2.453296   -5.509956    4.559813
     80         12           0        4.344105   -0.193788    0.020797
     81          6           0        1.537764   -1.979545   -1.326271
     82          6           0        2.576348    2.676778   -0.498284
     83          6           0        6.958943    1.435924    0.778454
     84          6           0        6.276818   -3.020605   -0.626870
     85          7           0        2.327321    0.172100   -0.810451
     86          6           0        1.327955   -0.587933   -1.232304
     87          6           0        0.004163    0.178462   -1.496480
     88          6           0        0.619480    1.638950   -1.755792
     89          6           0        1.906977    1.509323   -0.944473
     90          6           0        0.992859    1.885520   -3.208069
     91          6           0       -0.950130    0.170066   -0.250987
     92          6           0       -2.381881    0.629799   -0.534734
     93          1           0       -3.475385   -0.011459    0.190197
     94          7           0        4.560987    1.696912    0.583632
     95          6           0        3.737046    2.728647    0.304485
     96          6           0        4.349224    3.912361    0.927542
     97          6           0        5.685387    3.525791    1.456655
     98          6           0        5.798184    2.180341    0.930232
     99          6           0        3.637383    5.228520    1.047729
    100          6           0        6.699998    4.252046    2.286902
    101          8           0        7.894401    3.809536    2.429855
    102          6           0        6.282156    5.543831    2.850995
    103          7           0        6.370948   -0.633472   -0.123853
    104          6           0        7.299269    0.228964    0.325982
    105          6           0        8.664926   -0.413965    0.370808
    106          6           0        8.417763   -1.967984    0.085294
    107          6           0        6.895647   -1.938509   -0.174867
    108          6           0        9.689109    0.129605   -0.625167
    109          6           0        8.969098   -2.972578    1.133854
    110          6           0        8.210063   -2.830595    2.433505
    111          7           0        3.969909   -2.214159   -0.647135
    112          6           0        4.926076   -3.227846   -0.875757
    113          6           0        4.203710   -4.390289   -1.431937
    114          6           0        2.870359   -3.960766   -1.510440
    115          6           0        2.772179   -2.618039   -1.055554
    116          6           0        4.793494   -5.622184   -1.832822
    117          6           0        1.525319   -4.334340   -1.884653
    118          8           0        0.983796   -5.375657   -2.253644
    119          6           0        0.623343   -3.025693   -1.900752
    120          6           0       -0.648614   -3.329074   -1.157383
    121          8           0       -0.625332   -3.572655    0.061930
    122          8           0       -1.699027   -3.069197   -1.957054
    123          6           0       -2.983899   -3.344263   -1.260441
    124          1           0        2.203089    3.646812   -0.827832
    125          1           0        7.875621    1.914872    1.130302
    126          1           0        6.792259   -3.973691   -0.763336
    127          1           0       -0.546482   -0.153220   -2.368571
    128          1           0       -0.017047    2.415357   -1.339400
    129          1           0        0.892079    0.992719   -3.807136
    130          1           0        2.022610    2.217922   -3.194700
    131          1           0        0.411853    2.720449   -3.610144
    132          1           0       -0.635072    0.956544    0.446804
    133          1           0       -0.966236   -0.798307    0.210124
    134          1           0       -2.599421    0.661158   -1.609277
    135          1           0       -2.483637    1.668249   -0.210258
    136          1           0        2.737145    5.257587    0.421525
    137          1           0        4.295330    5.988765    0.612987
    138          1           0        3.422343    5.497994    2.083970
    139          1           0        5.991082    6.212794    2.044634
    140          1           0        7.109753    5.867097    3.485381
    141          1           0        5.389190    5.384717    3.465737
    142          1           0        9.112341   -0.303562    1.350982
    143          1           0        8.890929   -2.289972   -0.854002
    144          1           0       10.612403    0.501824   -0.142423
    145          1           0        9.219614    0.914139   -1.203628
    146          1           0       10.000015   -0.572185   -1.397200
    147          1           0       10.014783   -2.749098    1.359132
    148          1           0        8.923802   -4.006153    0.807264
    149          1           0        8.711509   -1.989478    2.921525
    150          1           0        8.293990   -3.738572    3.027300
    151          1           0        7.170471   -2.534179    2.251765
    152          1           0        4.150551   -6.409979   -1.463352
    153          1           0        5.806499   -5.721651   -1.448515
    154          1           0        4.776610   -5.502037   -2.919347
    155          1           0        0.436463   -2.769440   -2.944299
    156          1           0       -3.541047   -4.049761   -1.884571
    157          1           0       -3.445650   -2.354692   -1.083577
    158          1           0       -2.939405   -3.882534   -0.320892
 ---------------------------------------------------------------------

 SCF Done:  E(RCAM-B3LYP) =  -4068.23837605     A.U. after   27 cycles

 Excitation energies and oscillator strengths:

 Excited State   1:      Singlet-A      0.7798 eV 1589.96 nm  f=0.0640  <S**2>=0.000
     310 -> 314        0.13113
     312 -> 314        0.66466
     312 -> 315        0.15847
     312 <- 314       -0.10359
 This state for optimization and/or second-order correction.
 Total Energy, E(TD-HF/TD-DFT) =  -4068.20971911
 Copying the excited state density for this state as the 1-particle RhoCI density.

 Excited State   2:      Singlet-A      1.3793 eV  898.92 nm  f=0.0016  <S**2>=0.000
     312 -> 313        0.70414

 Excited State   3:      Singlet-A      1.6475 eV  752.57 nm  f=0.2475  <S**2>=0.000
     309 -> 316        0.14848
     311 -> 313        0.66114
     312 -> 315        0.18407

 Excited State   4:      Singlet-A      1.7541 eV  706.81 nm  f=0.1024  <S**2>=0.000
     308 -> 314       -0.18770
     310 -> 314       -0.22221
     311 -> 313       -0.17216
     312 -> 315        0.58423

 Excited State   5:      Singlet-A      2.1339 eV  581.03 nm  f=0.1950  <S**2>=0.000
     308 -> 315       -0.10927
     309 -> 313        0.10085
     309 -> 314        0.17283
     310 -> 314        0.56889
     312 -> 314       -0.19996
     312 -> 315        0.20163
     312 -> 317       -0.12137

 The electronic state is 1-A.
 Alpha  occ. eigenvalues --  -46.87038 -46.83502 -19.26479 -19.25820 -19.20145
 Alpha  occ. eigenvalues --  -19.19282 -19.19155 -19.18239 -19.17785 -19.17067
 Alpha  occ. eigenvalues --  -14.43680 -14.41703 -14.41376 -14.41165 -14.40794
 Alpha  occ. eigenvalues --  -14.38750 -14.38031 -14.37723 -10.40451 -10.39326
 Alpha  occ. eigenvalues --  -10.39301 -10.35969 -10.35544 -10.35295 -10.34919
 Alpha  occ. eigenvalues --  -10.33972 -10.33748 -10.33184 -10.32308 -10.31821
 Alpha  occ. eigenvalues --  -10.31730 -10.31720 -10.31552 -10.30566 -10.30213
 Alpha  occ. eigenvalues --  -10.30125 -10.29856 -10.29766 -10.29579 -10.29380
 Alpha  occ. eigenvalues --  -10.28855 -10.28853 -10.28700 -10.28571 -10.28319
 Alpha  occ. eigenvalues --  -10.28318 -10.28278 -10.28251 -10.28092 -10.27971
 Alpha  occ. eigenvalues --  -10.27855 -10.27536 -10.27490 -10.27428 -10.27318
 Alpha  occ. eigenvalues --  -10.27086 -10.26951 -10.26925 -10.26921 -10.26894
 Alpha  occ. eigenvalues --  -10.26891 -10.26880 -10.26871 -10.26825 -10.26820
 Alpha  occ. eigenvalues --  -10.26442 -10.26209 -10.25974 -10.25769 -10.25669
 Alpha  occ. eigenvalues --  -10.25586 -10.25497 -10.25412 -10.25389 -10.25384
 Alpha  occ. eigenvalues --  -10.25332 -10.25138 -10.25115 -10.25025 -10.24748
 Alpha  occ. eigenvalues --  -10.24386 -10.24372 -10.24144 -10.24139 -10.24122
 Alpha  occ. eigenvalues --  -10.22583  -3.23143  -3.15788  -2.00427  -1.97194
 Alpha  occ. eigenvalues --   -1.95038  -1.90671  -1.90257  -1.90097  -1.26355
 Alpha  occ. eigenvalues --   -1.16838  -1.16685  -1.10865  -1.08522  -1.07787
 Alpha  occ. eigenvalues --   -1.06811  -1.06504  -1.06496  -1.05574  -1.04356
 Alpha  occ. eigenvalues --   -1.03900  -1.03767  -1.03015  -1.02482  -1.01629
 Alpha  occ. eigenvalues --   -1.01534  -0.96967  -0.92508  -0.91498  -0.90710
 Alpha  occ. eigenvalues --   -0.89318  -0.89017  -0.88844  -0.88208  -0.87754
 Alpha  occ. eigenvalues --   -0.87362  -0.87232  -0.86898  -0.86568  -0.86028
 Alpha  occ. eigenvalues --   -0.85416  -0.84375  -0.84204  -0.83933  -0.83473
 Alpha  occ. eigenvalues --   -0.82551  -0.82351  -0.82174  -0.81971  -0.81409
 Alpha  occ. eigenvalues --   -0.80710  -0.80032  -0.79004  -0.78537  -0.78060
 Alpha  occ. eigenvalues --   -0.77506  -0.76965  -0.76474  -0.76381  -0.75889
 Alpha  occ. eigenvalues --   -0.74801  -0.74478  -0.73725  -0.72651  -0.72167
 Alpha  occ. eigenvalues --   -0.71953  -0.71112  -0.70199  -0.69595  -0.69153
 Alpha  occ. eigenvalues --   -0.68776  -0.68142  -0.67413  -0.67056  -0.66917
 Alpha  occ. eigenvalues --   -0.66226  -0.65326  -0.65034  -0.64742  -0.64497
 Alpha  occ. eigenvalues --   -0.64163  -0.63993  -0.63711  -0.63513  -0.62582
 Alpha  occ. eigenvalues --   -0.61953  -0.61425  -0.60150  -0.59809  -0.59167
 Alpha  occ. eigenvalues --   -0.58999  -0.58549  -0.58511  -0.58171  -0.57855
 Alpha  occ. eigenvalues --   -0.57560  -0.57322  -0.57056  -0.56834  -0.56716
 Alpha  occ. eigenvalues --   -0.56409  -0.55816  -0.55629  -0.55322  -0.55094
 Alpha  occ. eigenvalues --   -0.54864  -0.54705  -0.54480  -0.54105  -0.53815
 Alpha  occ. eigenvalues --   -0.53695  -0.53634  -0.53344  -0.53084  -0.53012
 Alpha  occ. eigenvalues --   -0.52814  -0.52733  -0.52352  -0.52317  -0.52014
 Alpha  occ. eigenvalues --   -0.51731  -0.51590  -0.51458  -0.51357  -0.51100
 Alpha  occ. eigenvalues --   -0.50484  -0.50403  -0.50159  -0.50068  -0.49868
 Alpha  occ. eigenvalues --   -0.49671  -0.49435  -0.49259  -0.49073  -0.49051
 Alpha  occ. eigenvalues --   -0.48764  -0.48663  -0.48543  -0.48418  -0.48240
 Alpha  occ. eigenvalues --   -0.48186  -0.47957  -0.47807  -0.47651  -0.47479
 Alpha  occ. eigenvalues --   -0.47147  -0.47048  -0.46817  -0.46585  -0.46442
 Alpha  occ. eigenvalues --   -0.46235  -0.46144  -0.45932  -0.45790  -0.45660
 Alpha  occ. eigenvalues --   -0.45513  -0.45170  -0.45093  -0.44940  -0.44669
 Alpha  occ. eigenvalues --   -0.44487  -0.44452  -0.44192  -0.43960  -0.43830
 Alpha  occ. eigenvalues --   -0.43763  -0.43709  -0.43515  -0.43282  -0.43231
 Alpha  occ. eigenvalues --   -0.43122  -0.42878  -0.42768  -0.42720  -0.42551
 Alpha  occ. eigenvalues --   -0.42351  -0.42084  -0.42013  -0.41736  -0.41573
 Alpha  occ. eigenvalues --   -0.41404  -0.41308  -0.41123  -0.40912  -0.40756
 Alpha  occ. eigenvalues --   -0.40627  -0.40384  -0.40182  -0.40106  -0.40018
 Alpha  occ. eigenvalues --   -0.39903  -0.39418  -0.39257  -0.39031  -0.38736
 Alpha  occ. eigenvalues --   -0.38356  -0.38053  -0.37619  -0.37436  -0.37048
 Alpha  occ. eigenvalues --   -0.36776  -0.36646  -0.36595  -0.36303  -0.35827
 Alpha  occ. eigenvalues --   -0.35262  -0.34497  -0.34142  -0.33606  -0.33373
 Alpha  occ. eigenvalues --   -0.32730  -0.32597  -0.32392  -0.31850  -0.30798
 Alpha  occ. eigenvalues --   -0.30377  -0.29736  -0.29714  -0.28814  -0.28702
 Alpha  occ. eigenvalues --   -0.27639  -0.26764  -0.24353  -0.23484  -0.23157
 Alpha  occ. eigenvalues --   -0.20471  -0.17341
 Alpha virt. eigenvalues --   -0.08235  -0.07597  -0.02312  -0.01094   0.00335
 Alpha virt. eigenvalues --    0.00567   0.01876   0.02216   0.02682   0.03610
 Alpha virt. eigenvalues --    0.03809   0.04319   0.04953   0.05371   0.05643

 Mulliken charges:
               1
     1  Mg   0.731668
     2  C   -0.020934
     3  C   -0.114345
     4  C   -0.041291
     5  C   -0.078899
     6  N   -0.334073
     7  C   -0.019499
     8  C   -0.020471
     9  C   -0.073631
    10  C    0.055846
    11  C    0.107944
    12  C    0.052290
    13  C   -0.072000
    14  H    0.036520
    15  N   -0.448773
    16  C    0.174059
    17  C   -0.196809
    18  C   -0.012864
    19  C    0.141850
    20  C    0.116213
    21  C   -0.000907
    22  O   -0.266032
    23  C    0.066834
    24  N   -0.323367
    25  C    0.050141
    26  C   -0.014806
    27  C   -0.009746
    28  C    0.046407
    29  C    0.079595
    30  C    0.076171
    31  C   -0.052150
    32  N   -0.286298
    33  C    0.117304
    34  C   -0.173485
    35  C    0.180556
    36  C   -0.069444
    37  C    0.142249
    38  C   -0.108191
    39  O   -0.179401
    40  C    0.041903
    41  C    0.206262
    42  O   -0.234186
    43  O   -0.307516
    44  C    0.157294
    45  H   -0.029199
    46  H   -0.021499
    47  H   -0.055225
    48  H   -0.000933
    49  H   -0.004225
    50  H    0.016054
    51  H    0.018611
    52  H    0.014313
    53  H    0.019089
    54  H    0.049329
    55  H    0.016335
    56  H    0.019912
    57  H   -0.003482
    58  H    0.013987
    59  H    0.025009
    60  H    0.036448
    61  H    0.026574
    62  H    0.026030
    63  H    0.009910
    64  H    0.003371
    65  H    0.022031
    66  H    0.015721
    67  H   -0.001800
    68  H    0.008615
    69  H   -0.005520
    70  H    0.017222
    71  H    0.028695
    72  H    0.037111
    73  H    0.085245
    74  H    0.065542
    75  H    0.070168
    76  H    0.038522
    77  H    0.042362
    78  H    0.048276
    79  H    0.058282
    80  Mg   0.837451
    81  C   -0.017758
    82  C   -0.087728
    83  C   -0.046801
    84  C   -0.066314
    85  N   -0.258454
    86  C   -0.030153
    87  C   -0.044087
    88  C   -0.105734
    89  C    0.054865
    90  C    0.116284
    91  C    0.223089
    92  C   -0.464424
    93  H    0.194262
    94  N   -0.423553
    95  C    0.163158
    96  C   -0.173804
    97  C   -0.008683
    98  C    0.152601
    99  C    0.097828
   100  C    0.014930
   101  O   -0.254497
   102  C    0.061620
   103  N   -0.350189
   104  C    0.037560
   105  C   -0.019585
   106  C   -0.034265
   107  C    0.088306
   108  C    0.074159
   109  C    0.035193
   110  C   -0.007444
   111  N   -0.323500
   112  C    0.077744
   113  C   -0.164432
   114  C    0.001680
   115  C    0.096088
   116  C    0.131495
   117  C    0.042950
   118  O   -0.194644
   119  C    0.006499
   120  C    0.241394
   121  O   -0.224484
   122  O   -0.297974
   123  C    0.226012
   124  H   -0.012666
   125  H   -0.016966
   126  H   -0.042687
   127  H   -0.020945
   128  H    0.026931
   129  H    0.026986
   130  H    0.003101
   131  H    0.021143
   132  H    0.008673
   133  H    0.026622
   134  H    0.180259
   135  H   -0.047546
   136  H    0.015071
   137  H    0.025714
   138  H    0.038113
   139  H    0.038546
   140  H    0.034894
   141  H    0.033547
   142  H    0.013456
   143  H    0.010957
   144  H    0.024037
   145  H    0.011598
   146  H    0.004524
   147  H    0.004933
   148  H    0.002614
   149  H    0.010347
   150  H    0.016585
   151  H    0.031221
   152  H    0.044709
   153  H    0.007802
   154  H    0.044281
   155  H    0.026586
   156  H   -0.011523
   157  H    0.119661
   158  H    0.089894
 Sum of Mulliken charges =  -0.00000

 Dipole moment (field-independent basis, Debye):
    X=             -4.7173    Y=             -0.5313    Z=             -1.7040  Tot=              5.0436
 Quadrupole moment (field-independent basis, Debye-Ang):
   XX=           -490.1506   YY=           -546.9678   ZZ=           -470.8141
   XY=             -2.8118   XZ=             -0.7135   YZ=             15.3823

 Normal termination of Gaussian 16 at Thu Sep  9 01:11:54 2021.
