 Gaussian 16, Revision A.03,
 Gaussian 16:  ES64L-G16RevA.03 25-Dec-2016

 -----------------------------------
 #p cam-b3lyp/Def2SVP td=(nstates=5)
 -----------------------------------

 --------------------------------
 TDDFT excited states in gaussian
 --------------------------------
 Symbolic Z-matrix:
 Charge =  0 Multiplicity = 1

                         Standard orientation:
 ---------------------------------------------------------------------
 Center     Atomic      Atomic             Coordinates (Angstroms)
 Number     Number       Type             X           Y           Z
 ---------------------------------------------------------------------
      1         12           0        7.826164   -0.776927    0.386001
      2          6           0        8.215675    1.833441   -2.031947
      3          6           0        8.942683    1.433880    2.733080
      4          6           0        7.923928   -3.183483    2.448900
      5          6           0        7.840787   -3.035751   -2.267895
      6          7           0        8.465161    1.337933    0.245669
      7          6           0        8.510649    2.240788   -0.728987
      8          6           0        8.828234    3.679947   -0.223679
      9          6           0        9.576333    3.310358    1.134905
     10          6           0        8.931827    1.962839    1.408272
     11          6           0       11.079329    3.111162    0.968100
     12          6           0        7.531479    4.515294    0.045304
     13          6           0        7.749414    6.020467    0.225069
     14          1           0        6.741235    6.939433   -0.281313
     15          7           0        7.882694   -0.770147    2.360743
     16          6           0        8.355422    0.221103    3.153989
     17          6           0        8.178917   -0.250367    4.544400
     18          6           0        7.740770   -1.672761    4.490390
     19          6           0        7.858392   -1.943707    3.080379
     20          6           0        8.373097    0.628120    5.742024
     21          6           0        7.297954   -2.638208    5.543935
     22          8           0        7.183877   -3.890695    5.314073
     23          6           0        7.083597   -2.085172    6.893470
     24          7           0        8.095528   -2.834179    0.156230
     25          6           0        8.036467   -3.659479    1.207123
     26          6           0        7.973868   -5.093665    0.772233
     27          6           0        7.756575   -5.066898   -0.809482
     28          6           0        7.817401   -3.535273   -1.030155
     29          6           0        9.205262   -5.947911    1.103808
     30          6           0        6.536927   -5.844263   -1.364981
     31          6           0        5.255805   -5.175393   -0.919516
     32          7           0        7.817973   -0.648263   -1.780661
     33          6           0        7.848389   -1.716424   -2.688836
     34          6           0        7.939745   -1.132475   -4.039660
     35          6           0        7.973055    0.243374   -3.821086
     36          6           0        7.933182    0.501638   -2.421086
     37          6           0        8.039331   -1.861248   -5.257612
     38          6           0        8.057900    1.554592   -4.443474
     39          8           0        8.023631    1.967715   -5.603495
     40          6           0        8.341241    2.631966   -3.305578
     41          6           0        7.387069    3.776054   -3.515162
     42          8           0        6.159113    3.622682   -3.354016
     43          8           0        8.081741    4.917521   -3.637745
     44          6           0        7.193036    6.096328   -3.818774
     45          1           0        9.500262    1.963228    3.508217
     46          1           0        7.848371   -4.041338    3.120327
     47          1           0        7.764506   -3.676130   -3.148547
     48          1           0        9.492918    4.252514   -0.870815
     49          1           0        9.339599    4.012700    1.933901
     50          1           0       11.369470    3.129349   -0.082332
     51          1           0       11.293998    2.135928    1.405514
     52          1           0       11.634622    3.835739    1.564268
     53          1           0        7.141032    4.265247    1.031756
     54          1           0        6.795278    4.349088   -0.741912
     55          1           0        8.742881    6.321951   -0.108155
     56          1           0        7.743074    6.241407    1.292470
     57          1           0        8.853615    1.568569    5.475182
     58          1           0        9.093750    0.129010    6.389524
     59          1           0        7.442593    0.792484    6.285605
     60          1           0        8.009917   -1.632936    7.248382
     61          1           0        6.684232   -2.902205    7.493316
     62          1           0        6.352388   -1.278597    6.832478
     63          1           0        7.134851   -5.607697    1.239403
     64          1           0        8.607078   -5.487716   -1.346354
     65          1           0        8.977191   -6.832363    1.699151
     66          1           0        9.930258   -5.311654    1.610610
     67          1           0        9.777066   -6.280998    0.238066
     68          1           0        6.522672   -6.859630   -0.970299
     69          1           0        6.528412   -5.911195   -2.452960
     70          1           0        5.100314   -5.586656    0.077237
     71          1           0        4.434950   -5.444227   -1.585199
     72          1           0        5.385868   -4.098454   -0.811018
     73          1           0        7.368480   -1.370333   -5.962545
     74          1           0        7.768865   -2.907425   -5.116315
     75          1           0        9.097131   -1.730498   -5.485251
     76          1           0        9.380406    2.939868   -3.417182
     77          1           0        7.501341    6.592403   -4.739150
     78          1           0        7.245956    6.669382   -2.892915
     79          1           0        6.147109    5.881869   -4.040996
     80         12           0       -7.992184    0.621582    0.667254
     81          6           0       -8.061353   -2.003970   -1.778304
     82          6           0       -6.972412    2.713819   -1.826185
     83          6           0       -7.487673    2.844632    2.874270
     84          6           0       -7.897477   -1.853570    3.118854
     85          7           0       -7.603722    0.281354   -1.483469
     86          6           0       -7.723194   -0.743666   -2.313773
     87          6           0       -7.544317   -0.381542   -3.812584
     88          6           0       -6.661011    0.947793   -3.635025
     89          6           0       -7.128375    1.367667   -2.242929
     90          6           0       -5.167365    0.674316   -3.575116
     91          6           0       -8.910423   -0.073191   -4.520174
     92          6           0       -8.844645   -0.015123   -6.047927
     93          1           0       -9.987792   -0.505434   -6.812969
     94          7           0       -7.805656    2.589315    0.488902
     95          6           0       -7.400990    3.272757   -0.602160
     96          6           0       -7.413999    4.692096   -0.215549
     97          6           0       -7.700902    4.778590    1.242166
     98          6           0       -7.654270    3.376010    1.603676
     99          6           0       -7.247636    5.807029   -1.206847
    100          6           0       -7.960037    5.933588    2.161409
    101          8           0       -7.949904    5.795462    3.435632
    102          6           0       -8.133449    7.249165    1.528406
    103          7           0       -7.517254    0.519327    2.688724
    104          6           0       -7.405551    1.635585    3.429946
    105          6           0       -7.332977    1.307735    4.902244
    106          6           0       -7.663850   -0.253078    5.011645
    107          6           0       -7.788210   -0.591280    3.509798
    108          6           0       -5.993912    1.592697    5.581999
    109          6           0       -8.824246   -0.661731    5.959877
    110          6           0      -10.140709   -0.162330    5.409498
    111          7           0       -8.165784   -1.531553    0.711174
    112          6           0       -8.071063   -2.372041    1.841958
    113          6           0       -8.138360   -3.765382    1.355639
    114          6           0       -8.245264   -3.638234   -0.037513
    115          6           0       -8.224312   -2.263239   -0.395928
    116          6           0       -8.050842   -4.933753    2.163962
    117          6           0       -8.360388   -4.354819   -1.287292
    118          8           0       -8.512306   -5.534665   -1.601348
    119          6           0       -8.119130   -3.332398   -2.480123
    120          6           0       -9.207257   -3.540548   -3.497546
    121          8           0      -10.391769   -3.285589   -3.217303
    122          8           0       -8.648330   -3.796798   -4.694335
    123          6           0       -9.687494   -3.999624   -5.738769
    124          1           0       -6.433277    3.400124   -2.479790
    125          1           0       -7.420616    3.573633    3.685154
    126          1           0       -7.973074   -2.680072    3.828679
    127          1           0       -6.999667   -1.114808   -4.395207
    128          1           0       -6.929307    1.701489   -4.370761
    129          1           0       -4.952418   -0.383471   -3.543105
    130          1           0       -4.815420    1.159339   -2.674039
    131          1           0       -4.659050    1.174145   -4.404641
    132          1           0       -9.199103    0.963692   -4.304999
    133          1           0       -9.663253   -0.774717   -4.217303
    134          1           0       -7.911251   -0.440034   -6.436764
    135          1           0       -8.809907    1.033221   -6.354180
    136          1           0       -6.888338    5.434893   -2.174229
    137          1           0       -6.433444    6.441706   -0.840583
    138          1           0       -8.148986    6.414499   -1.312740
    139          1           0       -7.244046    7.492684    0.952109
    140          1           0       -8.397713    7.930965    2.339069
    141          1           0       -8.963314    7.187738    0.815541
    142          1           0       -8.076360    1.864445    5.459506
    143          1           0       -6.805578   -0.825795    5.392711
    144          1           0       -6.080485    2.276825    6.447193
    145          1           0       -5.315461    1.998039    4.843118
    146          1           0       -5.456528    0.712511    5.930854
    147          1           0       -8.697974   -0.190651    6.937779
    148          1           0       -8.891200   -1.732014    6.124229
    149          1           0      -10.174893    0.875264    5.754918
    150          1           0      -10.969049   -0.740487    5.814007
    151          1           0      -10.127737   -0.144637    4.313518
    152          1           0       -8.811507   -5.616015    1.808422
    153          1           0       -8.187043   -4.699336    3.217651
    154          1           0       -7.027434   -5.248048    1.942316
    155          1           0       -7.129728   -3.536321   -2.891328
    156          1           0       -9.497028   -4.976697   -6.193457
    157          1           0       -9.623058   -3.115142   -6.400031
    158          1           0      -10.713297   -4.116063   -5.409199
 ---------------------------------------------------------------------

 SCF Done:  E(RCAM-B3LYP) =  -4069.81191401     A.U. after   19 cycles

 Excitation energies and oscillator strengths:

 Excited State   1:      Singlet-A      1.6751 eV  740.14 nm  f=0.3720  <S**2>=0.000
     310 -> 316        0.17128
     311 -> 313        0.10231
     312 -> 314        0.67836
     310 <- 316        0.10325
 This state for optimization and/or second-order correction.
 Total Energy, E(TD-HF/TD-DFT) =  -4069.75035369
 Copying the excited state density for this state as the 1-particle RhoCI density.

 Excited State   2:      Singlet-A      1.6797 eV  738.14 nm  f=0.3769  <S**2>=0.000
     309 -> 315        0.17360
     311 -> 313        0.67802
     312 -> 314       -0.10234
     309 <- 315        0.10400

 Excited State   3:      Singlet-A      2.1858 eV  567.23 nm  f=0.1019  <S**2>=0.000
     310 -> 314        0.64252
     312 -> 316       -0.27262

 Excited State   4:      Singlet-A      2.1927 eV  565.43 nm  f=0.0977  <S**2>=0.000
     309 -> 313        0.64068
     311 -> 315       -0.27833

 Excited State   5:      Singlet-A      2.7632 eV  448.70 nm  f=0.0000  <S**2>=0.000
     312 -> 313        0.70710

 The electronic state is 1-A.
 Alpha  occ. eigenvalues --  -46.87839 -46.87587 -19.26368 -19.26274 -19.19103
 Alpha  occ. eigenvalues --  -19.19088 -19.18849 -19.18659 -19.18227 -19.17981
 Alpha  occ. eigenvalues --  -14.42494 -14.42417 -14.41489 -14.41289 -14.39445
 Alpha  occ. eigenvalues --  -14.39279 -14.38632 -14.38527 -10.39160 -10.39017
 Alpha  occ. eigenvalues --  -10.35482 -10.35337 -10.34448 -10.34157 -10.31773
 Alpha  occ. eigenvalues --  -10.31682 -10.31452 -10.31223 -10.30954 -10.30941
 Alpha  occ. eigenvalues --  -10.30616 -10.30550 -10.30330 -10.30285 -10.30241
 Alpha  occ. eigenvalues --  -10.30074 -10.29960 -10.29831 -10.29674 -10.29365
 Alpha  occ. eigenvalues --  -10.29332 -10.29294 -10.28801 -10.28617 -10.28602
 Alpha  occ. eigenvalues --  -10.28556 -10.28410 -10.28330 -10.28163 -10.28025
 Alpha  occ. eigenvalues --  -10.27929 -10.27838 -10.27769 -10.27626 -10.27584
 Alpha  occ. eigenvalues --  -10.27525 -10.27516 -10.27474 -10.27469 -10.27450
 Alpha  occ. eigenvalues --  -10.27408 -10.27398 -10.27388 -10.27330 -10.27219
 Alpha  occ. eigenvalues --  -10.26974 -10.26765 -10.26599 -10.26439 -10.26366
 Alpha  occ. eigenvalues --  -10.26277 -10.26200 -10.26099 -10.26058 -10.25892
 Alpha  occ. eigenvalues --  -10.25870 -10.25866 -10.25789 -10.25455 -10.25363
 Alpha  occ. eigenvalues --  -10.24880 -10.24827 -10.24801 -10.24703 -10.24693
 Alpha  occ. eigenvalues --  -10.24623  -3.16582  -3.16337  -1.91464  -1.91219
 Alpha  occ. eigenvalues --   -1.91051  -1.90893  -1.90807  -1.90644  -1.16716
 Alpha  occ. eigenvalues --   -1.16568  -1.08688  -1.08588  -1.07249  -1.06913
 Alpha  occ. eigenvalues --   -1.06872  -1.06725  -1.04625  -1.04415  -1.03801
 Alpha  occ. eigenvalues --   -1.03590  -1.03276  -1.02969  -1.02453  -1.02040
 Alpha  occ. eigenvalues --   -0.92021  -0.91912  -0.89553  -0.89433  -0.89237
 Alpha  occ. eigenvalues --   -0.89048  -0.88318  -0.88164  -0.87917  -0.87724
 Alpha  occ. eigenvalues --   -0.87716  -0.87605  -0.87312  -0.87053  -0.85030
 Alpha  occ. eigenvalues --   -0.84910  -0.83968  -0.83824  -0.83000  -0.82874
 Alpha  occ. eigenvalues --   -0.82696  -0.82570  -0.81646  -0.81523  -0.80646
 Alpha  occ. eigenvalues --   -0.80369  -0.78838  -0.78565  -0.77260  -0.77066
 Alpha  occ. eigenvalues --   -0.76985  -0.76820  -0.75975  -0.75749  -0.74934
 Alpha  occ. eigenvalues --   -0.74744  -0.72817  -0.72627  -0.71715  -0.71503
 Alpha  occ. eigenvalues --   -0.69933  -0.69706  -0.68920  -0.68742  -0.67686
 Alpha  occ. eigenvalues --   -0.67531  -0.67269  -0.67119  -0.65336  -0.65184
 Alpha  occ. eigenvalues --   -0.64902  -0.64697  -0.64668  -0.64577  -0.64305
 Alpha  occ. eigenvalues --   -0.64144  -0.62361  -0.62207  -0.60479  -0.60275
 Alpha  occ. eigenvalues --   -0.59851  -0.59704  -0.59031  -0.58921  -0.58549
 Alpha  occ. eigenvalues --   -0.58355  -0.57645  -0.57480  -0.57351  -0.57173
 Alpha  occ. eigenvalues --   -0.56356  -0.56131  -0.56046  -0.55810  -0.55563
 Alpha  occ. eigenvalues --   -0.55383  -0.55381  -0.55187  -0.54574  -0.54426
 Alpha  occ. eigenvalues --   -0.53945  -0.53814  -0.53341  -0.53269  -0.53160
 Alpha  occ. eigenvalues --   -0.53065  -0.52968  -0.52826  -0.52797  -0.52593
 Alpha  occ. eigenvalues --   -0.52465  -0.52353  -0.51964  -0.51819  -0.51666
 Alpha  occ. eigenvalues --   -0.51574  -0.51244  -0.51130  -0.50606  -0.50410
 Alpha  occ. eigenvalues --   -0.50061  -0.49957  -0.49900  -0.49807  -0.49560
 Alpha  occ. eigenvalues --   -0.49411  -0.49263  -0.49145  -0.49123  -0.49014
 Alpha  occ. eigenvalues --   -0.48646  -0.48498  -0.48489  -0.48477  -0.48320
 Alpha  occ. eigenvalues --   -0.48273  -0.47738  -0.47519  -0.47338  -0.47049
 Alpha  occ. eigenvalues --   -0.46838  -0.46637  -0.46605  -0.46463  -0.46402
 Alpha  occ. eigenvalues --   -0.46208  -0.46203  -0.46021  -0.45878  -0.45749
 Alpha  occ. eigenvalues --   -0.45234  -0.45151  -0.44631  -0.44546  -0.44442
 Alpha  occ. eigenvalues --   -0.44391  -0.44185  -0.44134  -0.44068  -0.44043
 Alpha  occ. eigenvalues --   -0.44016  -0.43868  -0.43553  -0.43481  -0.43428
 Alpha  occ. eigenvalues --   -0.43307  -0.43072  -0.42858  -0.42829  -0.42766
 Alpha  occ. eigenvalues --   -0.42692  -0.42496  -0.42049  -0.41898  -0.41750
 Alpha  occ. eigenvalues --   -0.41596  -0.41581  -0.41377  -0.41184  -0.40912
 Alpha  occ. eigenvalues --   -0.40907  -0.40861  -0.40652  -0.40620  -0.40606
 Alpha  occ. eigenvalues --   -0.40428  -0.40287  -0.40138  -0.39465  -0.39376
 Alpha  occ. eigenvalues --   -0.38502  -0.38289  -0.37801  -0.37567  -0.37356
 Alpha  occ. eigenvalues --   -0.37314  -0.37200  -0.37115  -0.36779  -0.36701
 Alpha  occ. eigenvalues --   -0.36243  -0.36149  -0.34330  -0.34180  -0.33847
 Alpha  occ. eigenvalues --   -0.33789  -0.33232  -0.33103  -0.31379  -0.31218
 Alpha  occ. eigenvalues --   -0.31079  -0.30899  -0.30088  -0.29885  -0.29491
 Alpha  occ. eigenvalues --   -0.29368  -0.29258  -0.29141  -0.24124  -0.23962
 Alpha  occ. eigenvalues --   -0.21170  -0.21043
 Alpha virt. eigenvalues --   -0.08817  -0.08720  -0.01790  -0.01613  -0.00099
 Alpha virt. eigenvalues --    0.00042   0.02152   0.02275   0.03074   0.03291
 Alpha virt. eigenvalues --    0.04672   0.04815   0.05022   0.05239   0.06120

 Mulliken charges:
               1
     1  Mg   0.838692
     2  C   -0.003111
     3  C   -0.094119
     4  C   -0.045805
     5  C   -0.063897
     6  N   -0.256806
     7  C   -0.052512
     8  C   -0.014016
     9  C   -0.087010
    10  C    0.046328
    11  C    0.104784
    12  C    0.053437
    13  C   -0.071722
    14  H    0.035723
    15  N   -0.433195
    16  C    0.168452
    17  C   -0.177086
    18  C   -0.003914
    19  C    0.148729
    20  C    0.110144
    21  C    0.012326
    22  O   -0.249440
    23  C    0.062454
    24  N   -0.341179
    25  C    0.041315
    26  C   -0.028244
    27  C   -0.024000
    28  C    0.074837
    29  C    0.076126
    30  C    0.035096
    31  C   -0.004552
    32  N   -0.310412
    33  C    0.080297
    34  C   -0.169827
    35  C    0.008239
    36  C    0.082872
    37  C    0.127361
    38  C    0.045923
    39  O   -0.188777
    40  C   -0.005254
    41  C    0.212838
    42  O   -0.257515
    43  O   -0.304641
    44  C    0.157857
    45  H   -0.017508
    46  H   -0.016658
    47  H   -0.041414
    48  H    0.000895
    49  H   -0.003987
    50  H    0.025471
    51  H    0.016540
    52  H    0.016745
    53  H    0.011283
    54  H    0.043824
    55  H    0.017957
    56  H    0.018132
    57  H    0.005922
    58  H    0.026958
    59  H    0.039652
    60  H    0.037416
    61  H    0.035771
    62  H    0.031483
    63  H    0.016726
    64  H    0.009535
    65  H    0.023405
    66  H    0.012522
    67  H    0.004846
    68  H    0.006656
    69  H    0.004745
    70  H    0.008962
    71  H    0.018344
    72  H    0.028677
    73  H    0.047253
    74  H    0.009220
    75  H    0.046068
    76  H    0.035214
    77  H    0.042881
    78  H    0.046509
    79  H    0.053158
    80  Mg   0.837852
    81  C   -0.016807
    82  C   -0.087553
    83  C   -0.045610
    84  C   -0.064936
    85  N   -0.254593
    86  C   -0.049635
    87  C   -0.015154
    88  C   -0.090481
    89  C    0.045705
    90  C    0.114194
    91  C    0.062483
    92  C   -0.077897
    93  H    0.034598
    94  N   -0.423495
    95  C    0.162864
    96  C   -0.174392
    97  C   -0.007986
    98  C    0.152261
    99  C    0.099273
   100  C    0.015487
   101  O   -0.253509
   102  C    0.061232
   103  N   -0.350016
   104  C    0.037572
   105  C   -0.019805
   106  C   -0.034794
   107  C    0.088928
   108  C    0.073719
   109  C    0.034794
   110  C   -0.007630
   111  N   -0.324088
   112  C    0.078422
   113  C   -0.163231
   114  C    0.002261
   115  C    0.096183
   116  C    0.131500
   117  C    0.042330
   118  O   -0.188038
   119  C    0.000942
   120  C    0.211252
   121  O   -0.251155
   122  O   -0.305526
   123  C    0.152089
   124  H   -0.019013
   125  H   -0.015871
   126  H   -0.040642
   127  H   -0.000419
   128  H   -0.004215
   129  H    0.022575
   130  H    0.014798
   131  H    0.017351
   132  H    0.013811
   133  H    0.037466
   134  H    0.021133
   135  H    0.019713
   136  H    0.009167
   137  H    0.026264
   138  H    0.039627
   139  H    0.038315
   140  H    0.036084
   141  H    0.033904
   142  H    0.014196
   143  H    0.012350
   144  H    0.024718
   145  H    0.011759
   146  H    0.005536
   147  H    0.005982
   148  H    0.003594
   149  H    0.010804
   150  H    0.017786
   151  H    0.030256
   152  H    0.045849
   153  H    0.008352
   154  H    0.047005
   155  H    0.035277
   156  H    0.043817
   157  H    0.049642
   158  H    0.053423
 Sum of Mulliken charges =  -0.00000

 Dipole moment (field-independent basis, Debye):
    X=              4.5222    Y=              4.6261    Z=              1.9709  Tot=              6.7628
 Quadrupole moment (field-independent basis, Debye-Ang):
   XX=           -518.8115   YY=           -503.6635   ZZ=           -495.4363
   XY=            -15.7524   XZ=             42.9864   YZ=              2.6387

 Normal termination of Gaussian 16 at Sun Sep 12 09:13:22 2021.
