 Gaussian 16, Revision A.03,
 Gaussian 16:  ES64L-G16RevA.03 25-Dec-2016

 -----------------------------------
 #p cam-b3lyp/Def2SVP td=(nstates=5)
 -----------------------------------

 --------------------------------
 TDDFT excited states in gaussian
 --------------------------------
 Symbolic Z-matrix:
 Charge =  0 Multiplicity = 1

                         Standard orientation:
 ---------------------------------------------------------------------
 Center     Atomic      Atomic             Coordinates (Angstroms)
 Number     Number       Type             X           Y           Z
 ---------------------------------------------------------------------
      1         12           0        4.662372    0.364439    1.024930
      2          6           0        5.163494   -2.634605   -0.863673
      3          6           0        6.107078    2.057566   -1.561420
      4          6           0        4.645532    2.954849    2.854169
      5          6           0        4.321000   -1.647269    3.850202
      6          7           0        5.488496   -0.313577   -0.913744
      7          6           0        5.565611   -1.482226   -1.542620
      8          6           0        6.043802   -1.358308   -3.020237
      9          6           0        6.826466    0.026832   -2.916207
     10          6           0        6.074102    0.643984   -1.750447
     11          6           0        8.292866   -0.129701   -2.526759
     12          6           0        4.847677   -1.266299   -4.026493
     13          6           0        5.215350   -1.471054   -5.498990
     14          1           0        4.271909   -2.159145   -6.367205
     15          7           0        4.826277    2.273549    0.544012
     16          6           0        5.432268    2.782580   -0.555511
     17          6           0        5.287940    4.250990   -0.457423
     18          6           0        4.715940    4.563538    0.881691
     19          6           0        4.730987    3.261578    1.498175
     20          6           0        5.628366    5.187750   -1.575609
     21          6           0        4.242240    5.835780    1.510293
     22          8           0        3.998814    5.926435    2.762131
     23          6           0        4.154226    7.012222    0.626392
     24          7           0        4.724598    0.643012    3.092818
     25          6           0        4.645402    1.866703    3.626946
     26          6           0        4.424979    1.802239    5.109241
     27          6           0        4.125718    0.270195    5.445449
     28          6           0        4.317978   -0.324284    4.028445
     29          6           0        5.586917    2.298448    5.980842
     30          6           0        2.810173   -0.039506    6.202975
     31          6           0        1.623534    0.264149    5.315970
     32          7           0        4.548828   -1.765474    1.426952
     33          6           0        4.429566   -2.381601    2.681081
     34          6           0        4.501951   -3.836996    2.456014
     35          6           0        4.676052   -3.966728    1.079532
     36          6           0        4.736564   -2.673616    0.485822
     37          6           0        4.466509   -4.839141    3.465412
     38          6           0        4.849722   -4.896422   -0.024716
     39          8           0        4.791533   -6.121063   -0.144558
     40          6           0        5.294213   -4.069342   -1.310871
     41          6           0        4.441683   -4.527291   -2.462732
     42          8           0        3.215304   -4.297104   -2.482115
     43          8           0        5.232753   -4.948908   -3.461225
     44          6           0        4.450112   -5.389722   -4.646684
     45          1           0        6.753085    2.660848   -2.202253
     46          1           0        4.526308    3.819584    3.510260
     47          1           0        4.137314   -2.339445    4.673976
     48          1           0        6.723222   -2.146285   -3.345665
     49          1           0        6.700371    0.633817   -3.812528
     50          1           0        8.526049   -1.160047   -2.258556
     51          1           0        8.438452    0.528896   -1.670285
     52          1           0        8.945220    0.252019   -3.312572
     53          1           0        4.489547   -0.237590   -4.066005
     54          1           0        4.057531   -1.965871   -3.751550
     55          1           0        6.213194   -1.897632   -5.605049
     56          1           0        5.287660   -0.491803   -5.972318
     57          1           0        6.179854    4.682472   -2.367504
     58          1           0        6.333034    5.917092   -1.176596
     59          1           0        4.748245    5.700928   -1.963383
     60          1           0        5.136779    7.216752    0.200591
     61          1           0        3.713052    7.807073    1.226748
     62          1           0        3.499724    6.775122   -0.212869
     63          1           0        3.567989    2.406579    5.403804
     64          1           0        4.902602   -0.170675    6.070557
     65          1           0        5.309454    3.100573    6.665177
     66          1           0        6.394839    2.610474    5.319637
     67          1           0        6.077147    1.525584    6.572258
     68          1           0        2.722099    0.594381    7.084664
     69          1           0        2.736435   -1.076355    6.531239
     70          1           0        1.484401    1.335802    5.453931
     71          1           0        0.746188   -0.289837    5.651493
     72          1           0        1.859794    0.098922    4.264605
     73          1           0        3.807467   -5.623544    3.093465
     74          1           0        4.107104   -4.435475    4.411712
     75          1           0        5.518006   -5.123114    3.505031
     76          1           0        6.350103   -4.284225   -1.472252
     77          1           0        4.753258   -6.412895   -4.869067
     78          1           0        4.606707   -4.636419   -5.418964
     79          1           0        3.378170   -5.521057   -4.494930
     80         12           0       -4.165899    0.596662   -0.703730
     81          6           0       -6.859610   -1.559877    0.282311
     82          6           0       -6.518913    2.958382   -1.424986
     83          6           0       -1.862662    2.352920   -1.999155
     84          6           0       -2.176986   -2.250427   -0.993543
     85          7           0       -6.372244    0.582820   -0.548555
     86          6           0       -7.281907   -0.270243   -0.102304
     87          6           0       -8.714395    0.317145    0.009534
     88          6           0       -8.575191    1.497699   -1.070185
     89          6           0       -7.066992    1.725055   -0.990682
     90          6           0       -8.918715    1.062727   -2.485154
     91          6           0       -9.018899    0.881458    1.441611
     92          6           0      -10.493671    1.187528    1.712041
     93          1           0      -11.017840    0.955169    3.055070
     94          7           0       -4.110752    2.535826   -1.122255
     95          6           0       -5.162313    3.346141   -1.364925
     96          6           0       -4.591959    4.674010   -1.639915
     97          6           0       -3.110699    4.544602   -1.701916
     98          6           0       -2.968660    3.104251   -1.629237
     99          6           0       -5.430193    5.915590   -1.736240
    100          6           0       -2.005613    5.549940   -1.821402
    101          8           0       -0.803779    5.199922   -2.096929
    102          6           0       -2.389499    6.963827   -1.698712
    103          7           0       -2.354737    0.107762   -1.599840
    104          6           0       -1.516100    1.066000   -2.031575
    105          6           0       -0.165501    0.490250   -2.384805
    106          6           0       -0.195530   -1.023329   -1.869261
    107          6           0       -1.653905   -1.090073   -1.365175
    108          6           0        0.200799    0.515040   -3.868581
    109          6           0        0.940658   -1.460965   -0.904779
    110          6           0        0.801401   -0.740940    0.417168
    111          7           0       -4.378843   -1.503066   -0.241301
    112          6           0       -3.432301   -2.526420   -0.466840
    113          6           0       -4.075254   -3.803670   -0.095775
    114          6           0       -5.369255   -3.434307    0.301256
    115          6           0       -5.528575   -2.028600    0.166623
    116          6           0       -3.481828   -5.093619   -0.195737
    117          6           0       -6.640106   -3.915186    0.793564
    118          8           0       -7.067620   -5.003125    1.177432
    119          6           0       -7.702815   -2.738379    0.683259
    120          6           0       -8.443724   -2.657624    1.989795
    121          8           0       -7.851352   -2.330279    3.033130
    122          8           0       -9.764079   -2.766924    1.755092
    123          6           0      -10.542094   -2.681578    3.019703
    124          1           0       -7.182786    3.684064   -1.895669
    125          1           0       -0.999777    2.924579   -2.348596
    126          1           0       -1.591236   -3.171629   -0.962571
    127          1           0       -9.507499   -0.361184   -0.281376
    128          1           0       -9.112222    2.388002   -0.753448
    129          1           0       -9.086348   -0.002097   -2.549814
    130          1           0       -8.072225    1.350186   -3.094961
    131          1           0       -9.769745    1.638339   -2.860331
    132          1           0       -8.598907    1.892106    1.524983
    133          1           0       -8.641891    0.222088    2.199057
    134          1           0      -11.152672    0.738154    0.959229
    135          1           0      -10.651359    2.262839    1.598694
    136          1           0       -6.497744    5.675211   -1.813391
    137          1           0       -5.188929    6.390842   -2.693207
    138          1           0       -5.228735    6.623454   -0.929382
    139          1           0       -3.125490    7.205728   -2.461780
    140          1           0       -1.452761    7.524051   -1.721944
    141          1           0       -2.880548    7.110244   -0.730189
    142          1           0        0.627210    1.020633   -1.871581
    143          1           0       -0.117512   -1.738722   -2.701097
    144          1           0        1.146990    1.049724   -4.075696
    145          1           0       -0.617631    0.964956   -4.414731
    146          1           0        0.283466   -0.462669   -4.340244
    147          1           0        1.913871   -1.176352   -1.312211
    148          1           0        0.966936   -2.530619   -0.725486
    149          1           0        1.284633    0.221857    0.225879
    150          1           0        1.311400   -1.288482    1.207196
    151          1           0       -0.251553   -0.541273    0.647561
    152          1           0       -3.732395   -5.622932    0.713959
    153          1           0       -2.404688   -5.026133   -0.333524
    154          1           0       -3.986947   -5.472030   -1.088447
    155          1           0       -8.366417   -2.973257   -0.149845
    156          1           0      -11.159892   -3.583134    3.076201
    157          1           0      -11.070497   -1.710498    2.980415
    158          1           0       -9.992256   -2.743223    3.951553
 ---------------------------------------------------------------------

 SCF Done:  E(RCAM-B3LYP) =  -4069.81623978     A.U. after   19 cycles

 Excitation energies and oscillator strengths:

 Excited State   1:      Singlet-A      1.6410 eV  755.52 nm  f=0.0032  <S**2>=0.000
     309 -> 315       -0.11239
     310 -> 316        0.12056
     311 -> 313       -0.46642
     312 -> 314        0.50526
 This state for optimization and/or second-order correction.
 Total Energy, E(TD-HF/TD-DFT) =  -4069.75593284
 Copying the excited state density for this state as the 1-particle RhoCI density.

 Excited State   2:      Singlet-A      1.7038 eV  727.71 nm  f=0.6873  <S**2>=0.000
     309 -> 315        0.13394
     310 -> 316        0.12213
     311 -> 313        0.50289
     312 -> 314        0.46406

 Excited State   3:      Singlet-A      2.1814 eV  568.37 nm  f=0.0969  <S**2>=0.000
     309 -> 313        0.12463
     310 -> 314        0.63149
     312 -> 316       -0.26388

 Excited State   4:      Singlet-A      2.1970 eV  564.33 nm  f=0.1018  <S**2>=0.000
     309 -> 313        0.62804
     310 -> 314       -0.12229
     311 -> 315       -0.27482

 Excited State   5:      Singlet-A      2.3568 eV  526.07 nm  f=0.0001  <S**2>=0.000
     312 -> 313        0.70592

 The electronic state is 1-A.
 Alpha  occ. eigenvalues --  -46.87844 -46.87379 -19.26590 -19.26177 -19.19459
 Alpha  occ. eigenvalues --  -19.18976 -19.18676 -19.18582 -19.18243 -19.17818
 Alpha  occ. eigenvalues --  -14.42502 -14.42229 -14.41438 -14.41041 -14.39395
 Alpha  occ. eigenvalues --  -14.39086 -14.38626 -14.38315 -10.39434 -10.38900
 Alpha  occ. eigenvalues --  -10.35299 -10.35266 -10.34480 -10.33994 -10.31936
 Alpha  occ. eigenvalues --  -10.31608 -10.31485 -10.31031 -10.30956 -10.30797
 Alpha  occ. eigenvalues --  -10.30615 -10.30516 -10.30142 -10.30108 -10.30065
 Alpha  occ. eigenvalues --  -10.29931 -10.29778 -10.29625 -10.29557 -10.29222
 Alpha  occ. eigenvalues --  -10.29160 -10.29125 -10.28869 -10.28715 -10.28519
 Alpha  occ. eigenvalues --  -10.28505 -10.28395 -10.28200 -10.28161 -10.27929
 Alpha  occ. eigenvalues --  -10.27787 -10.27740 -10.27734 -10.27549 -10.27468
 Alpha  occ. eigenvalues --  -10.27414 -10.27400 -10.27385 -10.27306 -10.27305
 Alpha  occ. eigenvalues --  -10.27279 -10.27220 -10.27211 -10.26969 -10.26931
 Alpha  occ. eigenvalues --  -10.26875 -10.26828 -10.26517 -10.26345 -10.26291
 Alpha  occ. eigenvalues --  -10.26117 -10.26042 -10.26008 -10.25834 -10.25833
 Alpha  occ. eigenvalues --  -10.25534 -10.25423 -10.25377 -10.25171 -10.25106
 Alpha  occ. eigenvalues --  -10.24857 -10.24787 -10.24609 -10.24495 -10.24430
 Alpha  occ. eigenvalues --  -10.24411  -3.16535  -3.16130  -1.91417  -1.91012
 Alpha  occ. eigenvalues --   -1.91006  -1.90847  -1.90600  -1.90438  -1.16947
 Alpha  occ. eigenvalues --   -1.16467  -1.08728  -1.08428  -1.07070  -1.07014
 Alpha  occ. eigenvalues --   -1.06843  -1.06760  -1.04628  -1.04234  -1.03762
 Alpha  occ. eigenvalues --   -1.03379  -1.03239  -1.02733  -1.02421  -1.01821
 Alpha  occ. eigenvalues --   -0.92041  -0.91724  -0.89481  -0.89282  -0.89092
 Alpha  occ. eigenvalues --   -0.88911  -0.88241  -0.87882  -0.87788  -0.87703
 Alpha  occ. eigenvalues --   -0.87481  -0.87396  -0.87172  -0.86909  -0.85049
 Alpha  occ. eigenvalues --   -0.84767  -0.83894  -0.83483  -0.82852  -0.82726
 Alpha  occ. eigenvalues --   -0.82643  -0.82413  -0.81698  -0.81349  -0.80633
 Alpha  occ. eigenvalues --   -0.80198  -0.78743  -0.78381  -0.77222  -0.77003
 Alpha  occ. eigenvalues --   -0.76883  -0.76623  -0.75990  -0.75600  -0.74878
 Alpha  occ. eigenvalues --   -0.74495  -0.72777  -0.72394  -0.71700  -0.71307
 Alpha  occ. eigenvalues --   -0.69819  -0.69260  -0.68915  -0.68584  -0.67661
 Alpha  occ. eigenvalues --   -0.67337  -0.67258  -0.67006  -0.65376  -0.65038
 Alpha  occ. eigenvalues --   -0.64916  -0.64659  -0.64473  -0.64375  -0.64235
 Alpha  occ. eigenvalues --   -0.63767  -0.62436  -0.62004  -0.60370  -0.60081
 Alpha  occ. eigenvalues --   -0.59872  -0.59558  -0.59015  -0.58694  -0.58537
 Alpha  occ. eigenvalues --   -0.58132  -0.57739  -0.57315  -0.57293  -0.56911
 Alpha  occ. eigenvalues --   -0.56346  -0.56119  -0.55921  -0.55661  -0.55491
 Alpha  occ. eigenvalues --   -0.55376  -0.55244  -0.54922  -0.54599  -0.54160
 Alpha  occ. eigenvalues --   -0.53990  -0.53695  -0.53307  -0.53216  -0.53023
 Alpha  occ. eigenvalues --   -0.52983  -0.52876  -0.52662  -0.52643  -0.52498
 Alpha  occ. eigenvalues --   -0.52340  -0.51943  -0.51887  -0.51653  -0.51540
 Alpha  occ. eigenvalues --   -0.51454  -0.51234  -0.50913  -0.50397  -0.50288
 Alpha  occ. eigenvalues --   -0.49974  -0.49871  -0.49761  -0.49569  -0.49479
 Alpha  occ. eigenvalues --   -0.49292  -0.49232  -0.49150  -0.48979  -0.48857
 Alpha  occ. eigenvalues --   -0.48668  -0.48472  -0.48357  -0.48329  -0.48170
 Alpha  occ. eigenvalues --   -0.48067  -0.47690  -0.47336  -0.47272  -0.46865
 Alpha  occ. eigenvalues --   -0.46809  -0.46634  -0.46412  -0.46383  -0.46294
 Alpha  occ. eigenvalues --   -0.46182  -0.45971  -0.45903  -0.45769  -0.45541
 Alpha  occ. eigenvalues --   -0.45164  -0.44924  -0.44642  -0.44484  -0.44308
 Alpha  occ. eigenvalues --   -0.44183  -0.44171  -0.44082  -0.43980  -0.43915
 Alpha  occ. eigenvalues --   -0.43755  -0.43730  -0.43584  -0.43428  -0.43287
 Alpha  occ. eigenvalues --   -0.43126  -0.43048  -0.42901  -0.42710  -0.42618
 Alpha  occ. eigenvalues --   -0.42596  -0.42195  -0.42008  -0.41746  -0.41630
 Alpha  occ. eigenvalues --   -0.41573  -0.41398  -0.41189  -0.41163  -0.40906
 Alpha  occ. eigenvalues --   -0.40758  -0.40722  -0.40567  -0.40528  -0.40434
 Alpha  occ. eigenvalues --   -0.40308  -0.40059  -0.39987  -0.39338  -0.38998
 Alpha  occ. eigenvalues --   -0.38446  -0.37966  -0.37853  -0.37433  -0.37328
 Alpha  occ. eigenvalues --   -0.37303  -0.36968  -0.36954  -0.36854  -0.36532
 Alpha  occ. eigenvalues --   -0.36259  -0.35861  -0.34314  -0.34102  -0.33961
 Alpha  occ. eigenvalues --   -0.33658  -0.33215  -0.32886  -0.31229  -0.31142
 Alpha  occ. eigenvalues --   -0.31047  -0.30697  -0.30117  -0.29719  -0.29428
 Alpha  occ. eigenvalues --   -0.29318  -0.29087  -0.28940  -0.24111  -0.23748
 Alpha  occ. eigenvalues --   -0.21137  -0.20830
 Alpha virt. eigenvalues --   -0.08768  -0.08525  -0.01751  -0.01409  -0.00014
 Alpha virt. eigenvalues --    0.00173   0.02162   0.02456   0.03116   0.03839
 Alpha virt. eigenvalues --    0.04633   0.04749   0.04985   0.05364   0.05998

 Mulliken charges:
               1
     1  Mg   0.810123
     2  C   -0.004646
     3  C   -0.092271
     4  C   -0.043316
     5  C   -0.062934
     6  N   -0.255040
     7  C   -0.058600
     8  C   -0.013146
     9  C   -0.087048
    10  C    0.046221
    11  C    0.104754
    12  C    0.048723
    13  C   -0.071914
    14  H    0.035399
    15  N   -0.430837
    16  C    0.168106
    17  C   -0.174057
    18  C   -0.001274
    19  C    0.148792
    20  C    0.109277
    21  C    0.015598
    22  O   -0.249750
    23  C    0.059324
    24  N   -0.336706
    25  C    0.041127
    26  C   -0.028442
    27  C   -0.023391
    28  C    0.074282
    29  C    0.076199
    30  C    0.034904
    31  C   -0.005904
    32  N   -0.309756
    33  C    0.078372
    34  C   -0.171503
    35  C    0.007004
    36  C    0.078915
    37  C    0.127682
    38  C    0.044289
    39  O   -0.189017
    40  C   -0.005259
    41  C    0.215273
    42  O   -0.261055
    43  O   -0.303431
    44  C    0.157278
    45  H   -0.017564
    46  H   -0.016503
    47  H   -0.041805
    48  H    0.000772
    49  H   -0.003517
    50  H    0.025602
    51  H    0.017210
    52  H    0.017026
    53  H    0.011815
    54  H    0.043951
    55  H    0.018834
    56  H    0.019153
    57  H    0.005243
    58  H    0.026381
    59  H    0.045868
    60  H    0.035882
    61  H    0.034792
    62  H    0.040199
    63  H    0.017391
    64  H    0.009285
    65  H    0.023462
    66  H    0.012358
    67  H    0.004916
    68  H    0.006462
    69  H    0.004918
    70  H    0.008896
    71  H    0.019757
    72  H    0.030053
    73  H    0.046691
    74  H    0.009915
    75  H    0.046069
    76  H    0.035855
    77  H    0.044317
    78  H    0.047194
    79  H    0.052492
    80  Mg   0.837224
    81  C   -0.017618
    82  C   -0.088484
    83  C   -0.045783
    84  C   -0.065739
    85  N   -0.254666
    86  C   -0.049764
    87  C   -0.015119
    88  C   -0.090356
    89  C    0.045484
    90  C    0.114607
    91  C    0.062627
    92  C   -0.077532
    93  H    0.034240
    94  N   -0.423180
    95  C    0.162461
    96  C   -0.175376
    97  C   -0.008847
    98  C    0.152143
    99  C    0.099571
   100  C    0.015551
   101  O   -0.256817
   102  C    0.061847
   103  N   -0.349827
   104  C    0.036952
   105  C   -0.021033
   106  C   -0.040399
   107  C    0.086089
   108  C    0.074544
   109  C    0.032513
   110  C   -0.034042
   111  N   -0.324231
   112  C    0.078860
   113  C   -0.162022
   114  C    0.001866
   115  C    0.096568
   116  C    0.130285
   117  C    0.042447
   118  O   -0.188097
   119  C    0.000960
   120  C    0.211160
   121  O   -0.251308
   122  O   -0.305644
   123  C    0.152209
   124  H   -0.020748
   125  H   -0.017530
   126  H   -0.031941
   127  H   -0.001032
   128  H   -0.004925
   129  H    0.022185
   130  H    0.014286
   131  H    0.015501
   132  H    0.013915
   133  H    0.037533
   134  H    0.020575
   135  H    0.019318
   136  H    0.008361
   137  H    0.024808
   138  H    0.039049
   139  H    0.037981
   140  H    0.033081
   141  H    0.034907
   142  H    0.013738
   143  H    0.021039
   144  H    0.021255
   145  H    0.009378
   146  H    0.007943
   147  H    0.017547
   148  H    0.021514
   149  H    0.013612
   150  H    0.044989
   151  H    0.026167
   152  H    0.045494
   153  H    0.014675
   154  H    0.046581
   155  H    0.034559
   156  H    0.043597
   157  H    0.049252
   158  H    0.053301
 Sum of Mulliken charges =  -0.00000

 Dipole moment (field-independent basis, Debye):
    X=              1.0529    Y=              6.5735    Z=             -4.0842  Tot=              7.8102
 Quadrupole moment (field-independent basis, Debye-Ang):
   XX=           -451.2366   YY=           -540.3955   ZZ=           -483.1831
   XY=            -28.1168   XZ=             -4.9645   YZ=             -5.5812

 Normal termination of Gaussian 16 at Thu Sep  9 13:52:02 2021.
