 Gaussian 16, Revision A.03,
 Gaussian 16:  ES64L-G16RevA.03 25-Dec-2016

 -----------------------------------
 #p cam-b3lyp/Def2SVP td=(nstates=5)
 -----------------------------------

 --------------------------------
 TDDFT excited states in gaussian
 --------------------------------
 Symbolic Z-matrix:
 Charge =  0 Multiplicity = 1

                         Standard orientation:
 ---------------------------------------------------------------------
 Center     Atomic      Atomic             Coordinates (Angstroms)
 Number     Number       Type             X           Y           Z
 ---------------------------------------------------------------------
      1         12           0        3.745011   -0.589694    0.599220
      2          6           0        4.301059    2.876194   -0.101239
      3          6           0        4.490240    0.102169    3.856369
      4          6           0        3.704955   -3.711044    1.157963
      5          6           0        4.159756   -1.192996   -2.808077
      6          7           0        4.306942    1.289962    1.624779
      7          6           0        4.426645    2.560795    1.253529
      8          6           0        4.623442    3.538255    2.450699
      9          6           0        5.224809    2.514796    3.515071
     10          6           0        4.610002    1.229316    2.990212
     11          6           0        6.744020    2.393773    3.452995
     12          6           0        3.270548    4.151237    2.946341
     13          6           0        3.403198    5.352713    3.886668
     14          1           0        2.422549    6.423969    3.796753
     15          7           0        3.573293   -1.585236    2.296942
     16          6           0        3.909612   -1.143178    3.532563
     17          6           0        3.593939   -2.249782    4.461249
     18          6           0        3.224787   -3.438642    3.643671
     19          6           0        3.515318   -2.960730    2.316053
     20          6           0        3.611931   -2.103456    5.951892
     21          6           0        2.704279   -4.794445    4.002836
     22          8           0        2.669912   -5.755077    3.159876
     23          6           0        2.312917   -4.996399    5.409638
     24          7           0        4.124830   -2.252681   -0.604046
     25          6           0        3.979629   -3.494968   -0.130102
     26          6           0        4.027573   -4.509540   -1.233861
     27          6           0        3.993053   -3.680516   -2.598149
     28          6           0        4.014812   -2.249902   -2.005576
     29          6           0        5.247190   -5.441497   -1.233729
     30          6           0        2.879109   -4.041822   -3.612547
     31          6           0        1.528355   -3.662071   -3.048321
     32          7           0        3.981157    0.618708   -1.188249
     33          6           0        4.160646    0.157246   -2.500312
     34          6           0        4.382547    1.342670   -3.348603
     35          6           0        4.332899    2.417170   -2.462696
     36          6           0        4.121215    1.931648   -1.140671
     37          6           0        4.652189    1.329083   -4.745579
     38          6           0        4.434000    3.860708   -2.321864
     39          8           0        4.516380    4.805076   -3.108549
     40          6           0        4.539048    4.206713   -0.771034
     41          6           0        3.568387    5.320489   -0.487081
     42          8           0        2.337535    5.134288   -0.574826
     43          8           0        4.224223    6.350864    0.068570
     44          6           0        3.313795    7.478634    0.402354
     45          1           0        4.932169    0.153343    4.853376
     46          1           0        3.588468   -4.788840    1.289206
     47          1           0        4.212297   -1.297261   -3.893352
     48          1           0        5.333742    4.344590    2.267066
     49          1           0        4.868433    2.720866    4.524156
     50          1           0        7.152248    2.934920    2.599514
     51          1           0        6.947442    1.326790    3.359934
     52          1           0        7.196138    2.703921    4.395425
     53          1           0        2.779835    3.444891    3.615921
     54          1           0        2.637554    4.423215    2.100958
     55          1           0        4.414965    5.759006    3.873942
     56          1           0        3.264678    5.002712    4.909660
     57          1           0        4.080254   -1.168477    6.256905
     58          1           0        4.273409   -2.877811    6.339874
     59          1           0        2.618938   -2.216152    6.387320
     60          1           0        3.172450   -4.807161    6.053020
     61          1           0        1.881605   -5.995473    5.461320
     62          1           0        1.560529   -4.253819    5.676914
     63          1           0        3.162544   -5.170354   -1.195448
     64          1           0        4.916596   -3.790475   -3.167052
     65          1           0        4.989218   -6.500256   -1.199318
     66          1           0        5.881723   -5.166035   -0.391838
     67          1           0        5.928363   -5.303010   -2.072920
     68          1           0        2.861934   -5.116609   -3.789985
     69          1           0        2.998818   -3.548313   -4.577104
     70          1           0        1.276380   -4.517882   -2.423078
     71          1           0        0.801632   -3.538202   -3.851900
     72          1           0        1.599910   -2.791651   -2.395836
     73          1           0        4.047099    2.124341   -5.180779
     74          1           0        4.411221    0.361828   -5.185981
     75          1           0        5.722776    1.533287   -4.746587
     76          1           0        5.570363    4.505270   -0.585630
     77          1           0        3.705085    8.365432   -0.096360
     78          1           0        3.235676    7.502497    1.489430
     79          1           0        2.310327    7.429842   -0.021921
     80         12           0       -4.137717    0.111100    0.124160
     81          6           0       -3.004036   -0.657765   -3.192867
     82          6           0       -4.169663   -3.245411    0.730260
     83          6           0       -5.560744    0.725134    2.892806
     84          6           0       -5.096879    3.238395   -1.078250
     85          7           0       -3.630327   -1.626800   -1.146469
     86          6           0       -3.152094   -1.793919   -2.370282
     87          6           0       -2.737769   -3.251867   -2.705391
     88          6           0       -3.670760   -4.016663   -1.645453
     89          6           0       -3.808876   -2.912111   -0.599717
     90          6           0       -5.054352   -4.339669   -2.184597
     91          6           0       -1.216466   -3.519333   -2.429557
     92          6           0       -0.674965   -4.822469   -3.021469
     93          1           0        0.695827   -4.841729   -3.524472
     94          7           0       -4.315628   -1.008807    1.752876
     95          6           0       -4.282360   -2.356192    1.821554
     96          6           0       -4.479044   -2.691697    3.240326
     97          6           0       -4.795622   -1.439166    3.979012
     98          6           0       -4.926275   -0.508450    2.875926
     99          6           0       -4.283507   -4.077394    3.783476
    100          6           0       -4.966689   -1.132774    5.436086
    101          8           0       -5.474451   -0.026060    5.836346
    102          6           0       -4.608905   -2.203753    6.377617
    103          7           0       -5.368890    1.659454    0.763820
    104          6           0       -5.808351    1.713789    2.033403
    105          6           0       -6.444279    3.050106    2.333791
    106          6           0       -6.122619    3.973192    1.068080
    107          6           0       -5.401320    2.938329    0.176920
    108          6           0       -7.953077    3.029010    2.577676
    109          6           0       -5.416698    5.328463    1.346651
    110          6           0       -4.010625    5.085010    1.845707
    111          7           0       -3.911212    1.202194   -1.726864
    112          6           0       -4.412290    2.488134   -2.025796
    113          6           0       -4.103501    2.756564   -3.445305
    114          6           0       -3.459475    1.589609   -3.883429
    115          6           0       -3.390971    0.651640   -2.818054
    116          6           0       -4.457564    3.931997   -4.165811
    117          6           0       -2.831473    0.933835   -5.007827
    118          8           0       -2.521529    1.273077   -6.149131
    119          6           0       -2.621316   -0.599498   -4.645709
    120          6           0       -1.212280   -0.974996   -5.014672
    121          8           0       -0.246155   -0.467384   -4.418404
    122          8           0       -1.241862   -2.025565   -5.854797
    123          6           0        0.132701   -2.442054   -6.240712
    124          1           0       -4.432889   -4.279881    0.952686
    125          1           0       -5.971566    1.030882    3.857798
    126          1           0       -5.275742    4.229134   -1.501472
    127          1           0       -2.978381   -3.572537   -3.711901
    128          1           0       -3.163223   -4.880106   -1.223293
    129          1           0       -5.222713   -3.895353   -3.154330
    130          1           0       -5.752691   -3.942035   -1.459855
    131          1           0       -5.212413   -5.421924   -2.193101
    132          1           0       -1.077378   -3.726409   -1.360672
    133          1           0       -0.617840   -2.694397   -2.763864
    134          1           0       -1.361039   -5.256661   -3.758845
    135          1           0       -0.626911   -5.570947   -2.226808
    136          1           0       -4.216045   -4.819277    2.978207
    137          1           0       -5.200411   -4.342521    4.320940
    138          1           0       -3.438357   -4.144611    4.471873
    139          1           0       -5.206743   -3.086690    6.164367
    140          1           0       -4.713752   -1.765667    7.372083
    141          1           0       -3.563076   -2.483415    6.208389
    142          1           0       -6.004351    3.498093    3.216328
    143          1           0       -7.038405    4.264618    0.533059
    144          1           0       -8.242640    3.451450    3.558373
    145          1           0       -8.299389    2.008115    2.486181
    146          1           0       -8.549580    3.543539    1.826243
    147          1           0       -5.937782    5.870993    2.139296
    148          1           0       -5.378221    5.981373    0.481074
    149          1           0       -4.156595    4.899530    2.914057
    150          1           0       -3.387749    5.961482    1.678759
    151          1           0       -3.589813    4.172693    1.407227
    152          1           0       -3.592146    4.210076   -4.752519
    153          1           0       -4.758468    4.734007   -3.494980
    154          1           0       -5.296700    3.553775   -4.755782
    155          1           0       -3.358625   -1.173097   -5.208689
    156          1           0        0.176110   -2.426506   -7.334130
    157          1           0        0.300340   -3.416053   -5.743743
    158          1           0        0.948286   -1.774972   -5.987173
 ---------------------------------------------------------------------

 SCF Done:  E(RCAM-B3LYP) =  -4069.70815237     A.U. after   19 cycles

 Excitation energies and oscillator strengths:

 Excited State   1:      Singlet-A      1.6341 eV  758.71 nm  f=0.0070  <S**2>=0.000
     309 -> 315       -0.10793
     310 -> 316        0.12083
     311 -> 313       -0.45663
     312 -> 314        0.51406
 This state for optimization and/or second-order correction.
 Total Energy, E(TD-HF/TD-DFT) =  -4069.64809904
 Copying the excited state density for this state as the 1-particle RhoCI density.

 Excited State   2:      Singlet-A      1.7095 eV  725.27 nm  f=0.6750  <S**2>=0.000
     309 -> 315        0.13612
     310 -> 316        0.11989
     311 -> 313        0.51077
     312 -> 314        0.45422

 Excited State   3:      Singlet-A      2.1779 eV  569.30 nm  f=0.0232  <S**2>=0.000
     309 -> 313        0.37809
     310 -> 314        0.52372
     311 -> 315       -0.15539
     312 -> 316       -0.21318

 Excited State   4:      Singlet-A      2.1954 eV  564.76 nm  f=0.1531  <S**2>=0.000
     309 -> 313        0.51668
     310 -> 314       -0.37373
     311 -> 315       -0.23022
     312 -> 316        0.16357

 Excited State   5:      Singlet-A      2.3103 eV  536.66 nm  f=0.0000  <S**2>=0.000
     312 -> 313        0.70620

 The electronic state is 1-A.
 Alpha  occ. eigenvalues --  -46.87742 -46.87339 -19.26656 -19.26144 -19.19329
 Alpha  occ. eigenvalues --  -19.18867 -19.18851 -19.18531 -19.18014 -19.17819
 Alpha  occ. eigenvalues --  -14.42387 -14.42112 -14.41480 -14.41059 -14.39359
 Alpha  occ. eigenvalues --  -14.39051 -14.38473 -14.38277 -10.39216 -10.38920
 Alpha  occ. eigenvalues --  -10.35507 -10.35216 -10.34233 -10.34007 -10.32438
 Alpha  occ. eigenvalues --  -10.31564 -10.31300 -10.30901 -10.30871 -10.30633
 Alpha  occ. eigenvalues --  -10.30460 -10.30445 -10.30319 -10.30097 -10.30029
 Alpha  occ. eigenvalues --  -10.29949 -10.29855 -10.29595 -10.29542 -10.29205
 Alpha  occ. eigenvalues --  -10.29137 -10.29099 -10.28671 -10.28442 -10.28285
 Alpha  occ. eigenvalues --  -10.28114 -10.28097 -10.28033 -10.27996 -10.27815
 Alpha  occ. eigenvalues --  -10.27707 -10.27693 -10.27659 -10.27524 -10.27517
 Alpha  occ. eigenvalues --  -10.27452 -10.27334 -10.27294 -10.27260 -10.27202
 Alpha  occ. eigenvalues --  -10.27187 -10.27171 -10.27133 -10.27106 -10.27033
 Alpha  occ. eigenvalues --  -10.26906 -10.26608 -10.26536 -10.26331 -10.26161
 Alpha  occ. eigenvalues --  -10.26027 -10.25876 -10.25826 -10.25686 -10.25624
 Alpha  occ. eigenvalues --  -10.25583 -10.25521 -10.25506 -10.25193 -10.24961
 Alpha  occ. eigenvalues --  -10.24803 -10.24697 -10.24576 -10.24433 -10.24404
 Alpha  occ. eigenvalues --  -10.23920  -3.16483  -3.16090  -1.91364  -1.90972
 Alpha  occ. eigenvalues --   -1.90953  -1.90792  -1.90560  -1.90398  -1.16920
 Alpha  occ. eigenvalues --   -1.16489  -1.08461  -1.08460  -1.07279  -1.07100
 Alpha  occ. eigenvalues --   -1.06791  -1.06476  -1.04520  -1.04127  -1.03772
 Alpha  occ. eigenvalues --   -1.03335  -1.03180  -1.02736  -1.02365  -1.01798
 Alpha  occ. eigenvalues --   -0.91895  -0.91721  -0.90477  -0.89218  -0.89116
 Alpha  occ. eigenvalues --   -0.88752  -0.88487  -0.87942  -0.87714  -0.87628
 Alpha  occ. eigenvalues --   -0.87459  -0.87316  -0.87246  -0.86874  -0.85678
 Alpha  occ. eigenvalues --   -0.84879  -0.84207  -0.83662  -0.83160  -0.82746
 Alpha  occ. eigenvalues --   -0.82699  -0.82323  -0.81651  -0.81441  -0.80613
 Alpha  occ. eigenvalues --   -0.80233  -0.78797  -0.78375  -0.78225  -0.76954
 Alpha  occ. eigenvalues --   -0.76868  -0.76351  -0.75897  -0.75572  -0.74985
 Alpha  occ. eigenvalues --   -0.74545  -0.72837  -0.72367  -0.71696  -0.71312
 Alpha  occ. eigenvalues --   -0.70942  -0.69484  -0.68855  -0.68314  -0.67621
 Alpha  occ. eigenvalues --   -0.67334  -0.67171  -0.66519  -0.65429  -0.65016
 Alpha  occ. eigenvalues --   -0.64954  -0.64700  -0.64546  -0.64396  -0.64281
 Alpha  occ. eigenvalues --   -0.63926  -0.62286  -0.62277  -0.60512  -0.60087
 Alpha  occ. eigenvalues --   -0.59740  -0.59388  -0.59025  -0.58756  -0.58535
 Alpha  occ. eigenvalues --   -0.58213  -0.57883  -0.57536  -0.57433  -0.57351
 Alpha  occ. eigenvalues --   -0.56984  -0.56392  -0.56232  -0.55896  -0.55843
 Alpha  occ. eigenvalues --   -0.55469  -0.55287  -0.55050  -0.54830  -0.54466
 Alpha  occ. eigenvalues --   -0.54376  -0.53829  -0.53390  -0.53174  -0.53121
 Alpha  occ. eigenvalues --   -0.53029  -0.52931  -0.52890  -0.52710  -0.52637
 Alpha  occ. eigenvalues --   -0.52312  -0.52145  -0.51976  -0.51669  -0.51573
 Alpha  occ. eigenvalues --   -0.51530  -0.51246  -0.51049  -0.50585  -0.50447
 Alpha  occ. eigenvalues --   -0.50232  -0.49974  -0.49653  -0.49629  -0.49481
 Alpha  occ. eigenvalues --   -0.49376  -0.49149  -0.49063  -0.48981  -0.48822
 Alpha  occ. eigenvalues --   -0.48685  -0.48472  -0.48439  -0.48274  -0.48135
 Alpha  occ. eigenvalues --   -0.48081  -0.47669  -0.47413  -0.47263  -0.46974
 Alpha  occ. eigenvalues --   -0.46840  -0.46826  -0.46456  -0.46420  -0.46294
 Alpha  occ. eigenvalues --   -0.46123  -0.45946  -0.45923  -0.45833  -0.45601
 Alpha  occ. eigenvalues --   -0.45398  -0.44944  -0.44881  -0.44507  -0.44310
 Alpha  occ. eigenvalues --   -0.44259  -0.44119  -0.44051  -0.43975  -0.43931
 Alpha  occ. eigenvalues --   -0.43771  -0.43617  -0.43537  -0.43461  -0.43348
 Alpha  occ. eigenvalues --   -0.43293  -0.42959  -0.42900  -0.42840  -0.42602
 Alpha  occ. eigenvalues --   -0.42583  -0.42327  -0.42255  -0.41810  -0.41590
 Alpha  occ. eigenvalues --   -0.41548  -0.41374  -0.41362  -0.41178  -0.40948
 Alpha  occ. eigenvalues --   -0.40855  -0.40740  -0.40653  -0.40451  -0.40386
 Alpha  occ. eigenvalues --   -0.40152  -0.40081  -0.39344  -0.38991  -0.38758
 Alpha  occ. eigenvalues --   -0.38635  -0.37877  -0.37685  -0.37486  -0.37181
 Alpha  occ. eigenvalues --   -0.37031  -0.36917  -0.36865  -0.36723  -0.36196
 Alpha  occ. eigenvalues --   -0.35976  -0.34234  -0.34015  -0.33870  -0.33621
 Alpha  occ. eigenvalues --   -0.33124  -0.32877  -0.31403  -0.31089  -0.31011
 Alpha  occ. eigenvalues --   -0.30674  -0.29869  -0.29734  -0.29397  -0.29170
 Alpha  occ. eigenvalues --   -0.29082  -0.29026  -0.28902  -0.24025  -0.23729
 Alpha  occ. eigenvalues --   -0.21076  -0.20786
 Alpha virt. eigenvalues --   -0.08710  -0.08495  -0.01751  -0.01379  -0.00024
 Alpha virt. eigenvalues --    0.00248   0.02213   0.02415   0.02544   0.04339
 Alpha virt. eigenvalues --    0.04671   0.05091   0.05174   0.05255   0.06236

 Mulliken charges:
               1
     1  Mg   0.841192
     2  C   -0.002450
     3  C   -0.093435
     4  C   -0.047656
     5  C   -0.058214
     6  N   -0.256490
     7  C   -0.051979
     8  C   -0.014101
     9  C   -0.086961
    10  C    0.045780
    11  C    0.104876
    12  C    0.053299
    13  C   -0.071651
    14  H    0.036010
    15  N   -0.432898
    16  C    0.167643
    17  C   -0.177589
    18  C   -0.005011
    19  C    0.148425
    20  C    0.110310
    21  C    0.011024
    22  O   -0.251813
    23  C    0.063001
    24  N   -0.340387
    25  C    0.040004
    26  C   -0.032692
    27  C   -0.018290
    28  C    0.073835
    29  C    0.077642
    30  C    0.062290
    31  C    0.024467
    32  N   -0.312549
    33  C    0.087325
    34  C   -0.160312
    35  C    0.008172
    36  C    0.086451
    37  C    0.127857
    38  C    0.048509
    39  O   -0.186899
    40  C   -0.006484
    41  C    0.212858
    42  O   -0.255260
    43  O   -0.305096
    44  C    0.157883
    45  H   -0.017835
    46  H   -0.018862
    47  H   -0.043608
    48  H    0.001027
    49  H   -0.003941
    50  H    0.025349
    51  H    0.016144
    52  H    0.016491
    53  H    0.011635
    54  H    0.044596
    55  H    0.017669
    56  H    0.018166
    57  H    0.006185
    58  H    0.026146
    59  H    0.038468
    60  H    0.038194
    61  H    0.033926
    62  H    0.029788
    63  H    0.018761
    64  H    0.009219
    65  H    0.022535
    66  H    0.014457
    67  H    0.005209
    68  H    0.001171
    69  H    0.000249
    70  H    0.026421
    71  H    0.028585
    72  H    0.054368
    73  H    0.053187
    74  H    0.008058
    75  H    0.044339
    76  H    0.034824
    77  H    0.042764
    78  H    0.045980
    79  H    0.053553
    80  Mg   0.837098
    81  C   -0.019178
    82  C   -0.086818
    83  C   -0.046135
    84  C   -0.064126
    85  N   -0.255485
    86  C   -0.049284
    87  C    0.009588
    88  C   -0.086258
    89  C    0.044853
    90  C    0.116001
    91  C    0.035258
    92  C   -0.160109
    93  H    0.032616
    94  N   -0.423344
    95  C    0.162470
    96  C   -0.175285
    97  C   -0.009089
    98  C    0.151934
    99  C    0.099813
   100  C    0.014312
   101  O   -0.254332
   102  C    0.062153
   103  N   -0.350092
   104  C    0.037367
   105  C   -0.019492
   106  C   -0.034874
   107  C    0.089023
   108  C    0.074002
   109  C    0.034822
   110  C   -0.007343
   111  N   -0.324760
   112  C    0.080252
   113  C   -0.160265
   114  C    0.002428
   115  C    0.097990
   116  C    0.131054
   117  C    0.044047
   118  O   -0.188636
   119  C   -0.000918
   120  C    0.212239
   121  O   -0.250592
   122  O   -0.304852
   123  C    0.151097
   124  H   -0.019345
   125  H   -0.016742
   126  H   -0.040336
   127  H   -0.003842
   128  H   -0.000794
   129  H    0.020772
   130  H    0.012133
   131  H    0.016408
   132  H    0.010136
   133  H    0.041951
   134  H   -0.007318
   135  H    0.002437
   136  H    0.010663
   137  H    0.025150
   138  H    0.037863
   139  H    0.038729
   140  H    0.034752
   141  H    0.031420
   142  H    0.013445
   143  H    0.011853
   144  H    0.024093
   145  H    0.011473
   146  H    0.005226
   147  H    0.004787
   148  H    0.004006
   149  H    0.008753
   150  H    0.018510
   151  H    0.032747
   152  H    0.048143
   153  H    0.008864
   154  H    0.045779
   155  H    0.035547
   156  H    0.044967
   157  H    0.062650
   158  H    0.052120
 Sum of Mulliken charges =  -0.00000

 Dipole moment (field-independent basis, Debye):
    X=              1.5881    Y=             -3.2884    Z=              5.2102  Tot=              6.3626
 Quadrupole moment (field-independent basis, Debye-Ang):
   XX=           -493.5962   YY=           -492.8474   ZZ=           -511.6665
   XY=             -4.7328   XZ=             18.1723   YZ=             33.4514

 Normal termination of Gaussian 16 at Wed Sep  8 20:01:08 2021.
