 Gaussian 16, Revision A.03,
 Gaussian 16:  ES64L-G16RevA.03 25-Dec-2016

 -----------------------------------
 #p cam-b3lyp/Def2SVP td=(nstates=5)
 -----------------------------------

 --------------------------------
 TDDFT excited states in gaussian
 --------------------------------
 Symbolic Z-matrix:
 Charge =  0 Multiplicity = 1

                         Standard orientation:
 ---------------------------------------------------------------------
 Center     Atomic      Atomic             Coordinates (Angstroms)
 Number     Number       Type             X           Y           Z
 ---------------------------------------------------------------------
      1         12           0        5.258064    0.629055    1.127744
      2          6           0        5.981231   -2.396541   -0.642852
      3          6           0        6.694388    2.315678   -1.467510
      4          6           0        5.042085    3.271421    2.867823
      5          6           0        4.932092   -1.307622    4.006751
      6          7           0        6.182804   -0.063979   -0.760432
      7          6           0        6.343149   -1.246035   -1.347121
      8          6           0        6.862454   -1.143123   -2.812421
      9          6           0        7.565878    0.285329   -2.730455
     10          6           0        6.743493    0.897121   -1.610046
     11          6           0        9.024926    0.221621   -2.290429
     12          6           0        5.696937   -1.148614   -3.858017
     13          6           0        6.123396   -1.379596   -5.310647
     14          1           0        5.247334   -2.145434   -6.184349
     15          7           0        5.335146    2.528044    0.588532
     16          6           0        5.948889    3.034283   -0.507975
     17          6           0        5.722889    4.494982   -0.463650
     18          6           0        5.091127    4.818140    0.845754
     19          6           0        5.155623    3.539172    1.505647
     20          6           0        6.049277    5.412988   -1.601404
     21          6           0        4.529438    6.081897    1.416330
     22          8           0        4.240371    6.198795    2.656229
     23          6           0        4.407663    7.223123    0.491227
     24          7           0        5.237069    0.976102    3.186081
     25          6           0        5.074820    2.209970    3.676214
     26          6           0        4.809430    2.180631    5.152238
     27          6           0        4.581815    0.645963    5.530046
     28          6           0        4.852273    0.018210    4.140425
     29          6           0        5.913731    2.767021    6.042562
     30          6           0        3.260511    0.289017    6.256107
     31          6           0        2.089183    0.499053    5.322848
     32          7           0        5.245683   -1.490046    1.597105
     33          6           0        5.118349   -2.071657    2.866825
     34          6           0        5.276035   -3.527328    2.692973
     35          6           0        5.502119   -3.690971    1.327707
     36          6           0        5.512755   -2.415980    0.693218
     37          6           0        5.261119   -4.497371    3.733756
     38          6           0        5.761686   -4.644359    0.261156
     39          8           0        5.773219   -5.873536    0.180621
     40          6           0        6.203350   -3.835458   -1.037474
     41          6           0        5.415030   -4.375647   -2.199392
     42          8           0        4.179381   -4.213567   -2.264718
     43          8           0        6.260048   -4.784872   -3.158048
     44          6           0        5.541668   -5.305206   -4.351922
     45          1           0        7.327894    2.932727   -2.107715
     46          1           0        4.855111    4.148734    3.490560
     47          1           0        4.758726   -1.982310    4.847104
     48          1           0        7.593500   -1.902716   -3.089935
     49          1           0        7.437037    0.855761   -3.650090
     50          1           0        9.304045   -0.785408   -1.980741
     51          1           0        9.106683    0.914041   -1.452358
     52          1           0        9.681425    0.613294   -3.067848
     53          1           0        5.285669   -0.142791   -3.943097
     54          1           0        4.936800   -1.881249   -3.584591
     55          1           0        7.145627   -1.754146   -5.371187
     56          1           0        6.158666   -0.413373   -5.814005
     57          1           0        6.652865    4.913731   -2.358352
     58          1           0        6.700295    6.192052   -1.205243
     59          1           0        5.156171    5.864726   -2.033407
     60          1           0        5.391338    7.467435    0.089676
     61          1           0        3.904961    8.011324    1.050583
     62          1           0        3.794834    6.924087   -0.359635
     63          1           0        3.912029    2.746269    5.399528
     64          1           0        5.360189    0.268279    6.193493
     65          1           0        5.571258    3.574096    6.690672
     66          1           0        6.725119    3.101599    5.396808
     67          1           0        6.424930    2.041269    6.674524
     68          1           0        3.109566    0.944806    7.112906
     69          1           0        3.231687   -0.739371    6.616438
     70          1           0        1.888326    1.565337    5.420450
     71          1           0        1.232217   -0.091131    5.649197
     72          1           0        2.368488    0.313703    4.285486
     73          1           0        4.657696   -5.328033    3.367899
     74          1           0        4.849592   -4.084123    4.654340
     75          1           0        6.324450   -4.722045    3.815642
     76          1           0        7.273987   -3.997318   -1.158553
     77          1           0        5.906397   -6.316821   -4.530364
     78          1           0        5.683023   -4.569360   -5.143727
     79          1           0        4.473889   -5.490054   -4.229370
     80         12           0       -5.046955    0.268573   -1.237245
     81          6           0       -6.677099   -1.617619    1.344223
     82          6           0       -7.020972    2.905139   -0.350465
     83          6           0       -3.956348    1.813935   -3.784761
     84          6           0       -4.057342   -2.765732   -2.637026
     85          7           0       -6.608690    0.492110    0.313004
     86          6           0       -7.099725   -0.273698    1.275700
     87          6           0       -8.039561    0.463097    2.267357
     88          6           0       -8.502636    1.666816    1.310536
     89          6           0       -7.290249    1.722295    0.383329
     90          6           0       -9.727886    1.334414    0.475300
     91          6           0       -7.276501    0.994855    3.531079
     92          6           0       -8.176865    1.450114    4.681657
     93          1           0       -7.726347    1.219016    6.051369
     94          7           0       -5.059272    2.206087   -1.666715
     95          6           0       -5.917304    3.137505   -1.200330
     96          6           0       -5.517300    4.404832   -1.831218
     97          6           0       -4.457020    4.115214   -2.834541
     98          6           0       -4.464612    2.666196   -2.815278
     99          6           0       -6.071399    5.734507   -1.408899
    100          6           0       -3.589819    4.996395   -3.681701
    101          8           0       -2.903148    4.527910   -4.657321
    102          6           0       -3.640510    6.437389   -3.394540
    103          7           0       -4.319746   -0.378247   -3.074397
    104          6           0       -3.860951    0.499218   -3.984059
    105          6           0       -3.138028   -0.206482   -5.106452
    106          6           0       -2.996109   -1.728415   -4.636167
    107          6           0       -3.774417   -1.655293   -3.304141
    108          6           0       -3.821988   -0.157894   -6.472558
    109          6           0       -1.564341   -2.330530   -4.623567
    110          6           0       -0.730848   -1.657653   -3.556835
    111          7           0       -5.142966   -1.812822   -0.665728
    112          6           0       -4.691610   -2.923819   -1.411423
    113          6           0       -5.078265   -4.137024   -0.662376
    114          6           0       -5.753323   -3.644420    0.464619
    115          6           0       -5.802806   -2.225206    0.410850
    116          6           0       -4.841182   -5.479127   -1.073083
    117          6           0       -6.444606   -4.002729    1.682173
    118          8           0       -6.639517   -5.052363    2.293734
    119          6           0       -7.184025   -2.711929    2.242069
    120          6           0       -6.885185   -2.606584    3.712478
    121          8           0       -5.725753   -2.392416    4.108046
    122          8           0       -8.043594   -2.558881    4.395244
    123          6           0       -7.799353   -2.443047    5.857699
    124          1           0       -7.744563    3.719563   -0.305615
    125          1           0       -3.469321    2.301297   -4.632553
    126          1           0       -3.699716   -3.746531   -2.957652
    127          1           0       -8.901418   -0.110063    2.587468
    128          1           0       -8.601509    2.596444    1.864962
    129          1           0      -10.015534    0.298486    0.576511
    130          1           0       -9.453978    1.552725   -0.548593
    131          1           0      -10.547259    2.016383    0.720030
    132          1           0       -6.792836    1.948271    3.282431
    133          1           0       -6.575389    0.265546    3.887691
    134          1           0       -9.211699    1.109537    4.554841
    135          1           0       -8.248400    2.540174    4.655899
    136          1           0       -6.952032    5.617258   -0.765360
    137          1           0       -6.457197    6.221297   -2.311160
    138          1           0       -5.316935    6.380012   -0.954190
    139          1           0       -4.662357    6.792136   -3.506176
    140          1           0       -2.887567    6.891044   -4.041957
    141          1           0       -3.365480    6.594985   -2.345669
    142          1           0       -2.148878    0.210172   -5.251620
    143          1           0       -3.557257   -2.411214   -5.290929
    144          1           0       -3.184064    0.277357   -7.264824
    145          1           0       -4.741835    0.403097   -6.373992
    146          1           0       -4.175444   -1.117317   -6.846435
    147          1           0       -1.064087   -2.137859   -5.575816
    148          1           0       -1.548316   -3.403296   -4.462639
    149          1           0       -0.383111   -0.746813   -4.053358
    150          1           0        0.104064   -2.292059   -3.266136
    151          1           0       -1.351600   -1.352952   -2.706260
    152          1           0       -4.499121   -6.016508   -0.198612
    153          1           0       -4.112169   -5.525262   -1.879416
    154          1           0       -5.842951   -5.760189   -1.408837
    155          1           0       -8.250317   -2.835546    2.048855
    156          1           0       -8.328951   -3.272347    6.336734
    157          1           0       -8.113605   -1.418701    6.132843
    158          1           0       -6.787935   -2.605571    6.211337
 ---------------------------------------------------------------------

 SCF Done:  E(RCAM-B3LYP) =  -4069.81210752     A.U. after   19 cycles

 Excitation energies and oscillator strengths:

 Excited State   1:      Singlet-A      1.6561 eV  748.63 nm  f=0.0054  <S**2>=0.000
     309 -> 315        0.11258
     310 -> 316       -0.12597
     311 -> 313        0.45621
     312 -> 314        0.51384
 This state for optimization and/or second-order correction.
 Total Energy, E(TD-HF/TD-DFT) =  -4069.75124547
 Copying the excited state density for this state as the 1-particle RhoCI density.

 Excited State   2:      Singlet-A      1.6955 eV  731.23 nm  f=0.7179  <S**2>=0.000
     309 -> 315        0.13434
     310 -> 316        0.11849
     311 -> 313        0.51199
     312 -> 314       -0.45465

 Excited State   3:      Singlet-A      2.1830 eV  567.94 nm  f=0.0386  <S**2>=0.000
     309 -> 313       -0.23508
     310 -> 314        0.59915
     312 -> 316        0.25213

 Excited State   4:      Singlet-A      2.1937 eV  565.20 nm  f=0.1480  <S**2>=0.000
     309 -> 313        0.59608
     310 -> 314        0.23263
     311 -> 315       -0.26029
     312 -> 316        0.10271

 Excited State   5:      Singlet-A      2.5786 eV  480.82 nm  f=0.0000  <S**2>=0.000
     312 -> 313        0.70703

 The electronic state is 1-A.
 Alpha  occ. eigenvalues --  -46.87652 -46.87491 -19.26265 -19.26239 -19.19040
 Alpha  occ. eigenvalues --  -19.19000 -19.18698 -19.18619 -19.18052 -19.17899
 Alpha  occ. eigenvalues --  -14.42337 -14.42314 -14.41303 -14.41180 -14.39260
 Alpha  occ. eigenvalues --  -14.39191 -14.38442 -14.38426 -10.39050 -10.38967
 Alpha  occ. eigenvalues --  -10.35333 -10.35301 -10.34275 -10.34077 -10.31690
 Alpha  occ. eigenvalues --  -10.31665 -10.31271 -10.31142 -10.30884 -10.30788
 Alpha  occ. eigenvalues --  -10.30426 -10.30364 -10.30226 -10.30183 -10.30054
 Alpha  occ. eigenvalues --  -10.29960 -10.29772 -10.29708 -10.29488 -10.29276
 Alpha  occ. eigenvalues --  -10.29235 -10.29109 -10.28657 -10.28594 -10.28559
 Alpha  occ. eigenvalues --  -10.28500 -10.28253 -10.28232 -10.28010 -10.28009
 Alpha  occ. eigenvalues --  -10.27839 -10.27651 -10.27588 -10.27508 -10.27444
 Alpha  occ. eigenvalues --  -10.27345 -10.27335 -10.27326 -10.27324 -10.27311
 Alpha  occ. eigenvalues --  -10.27292 -10.27276 -10.27272 -10.27180 -10.27067
 Alpha  occ. eigenvalues --  -10.26910 -10.26640 -10.26579 -10.26368 -10.26307
 Alpha  occ. eigenvalues --  -10.26132 -10.25956 -10.25907 -10.25861 -10.25769
 Alpha  occ. eigenvalues --  -10.25733 -10.25663 -10.25616 -10.25301 -10.25257
 Alpha  occ. eigenvalues --  -10.24709 -10.24694 -10.24648 -10.24527 -10.24406
 Alpha  occ. eigenvalues --  -10.24216  -3.16394  -3.16241  -1.91276  -1.91123
 Alpha  occ. eigenvalues --   -1.90863  -1.90711  -1.90705  -1.90548  -1.16611
 Alpha  occ. eigenvalues --   -1.16531  -1.08516  -1.08507  -1.07101  -1.06877
 Alpha  occ. eigenvalues --   -1.06824  -1.06617  -1.04448  -1.04338  -1.03618
 Alpha  occ. eigenvalues --   -1.03497  -1.03090  -1.02864  -1.02268  -1.01941
 Alpha  occ. eigenvalues --   -0.91849  -0.91829  -0.89354  -0.89276  -0.89083
 Alpha  occ. eigenvalues --   -0.89012  -0.88125  -0.87998  -0.87718  -0.87609
 Alpha  occ. eigenvalues --   -0.87541  -0.87521  -0.87138  -0.86989  -0.84875
 Alpha  occ. eigenvalues --   -0.84860  -0.83770  -0.83634  -0.82833  -0.82798
 Alpha  occ. eigenvalues --   -0.82541  -0.82507  -0.81497  -0.81447  -0.80483
 Alpha  occ. eigenvalues --   -0.80294  -0.78656  -0.78481  -0.77080  -0.76978
 Alpha  occ. eigenvalues --   -0.76828  -0.76724  -0.75817  -0.75692  -0.74756
 Alpha  occ. eigenvalues --   -0.74614  -0.72628  -0.72519  -0.71546  -0.71425
 Alpha  occ. eigenvalues --   -0.69715  -0.69468  -0.68760  -0.68681  -0.67515
 Alpha  occ. eigenvalues --   -0.67449  -0.67122  -0.67078  -0.65178  -0.65128
 Alpha  occ. eigenvalues --   -0.64733  -0.64598  -0.64500  -0.64496  -0.64111
 Alpha  occ. eigenvalues --   -0.63981  -0.62216  -0.62127  -0.60302  -0.60190
 Alpha  occ. eigenvalues --   -0.59687  -0.59652  -0.58854  -0.58824  -0.58375
 Alpha  occ. eigenvalues --   -0.58259  -0.57492  -0.57408  -0.57174  -0.57062
 Alpha  occ. eigenvalues --   -0.56180  -0.56042  -0.55914  -0.55755  -0.55399
 Alpha  occ. eigenvalues --   -0.55325  -0.55206  -0.55052  -0.54409  -0.54282
 Alpha  occ. eigenvalues --   -0.53794  -0.53780  -0.53165  -0.53112  -0.53072
 Alpha  occ. eigenvalues --   -0.52993  -0.52813  -0.52751  -0.52640  -0.52560
 Alpha  occ. eigenvalues --   -0.52238  -0.52074  -0.51758  -0.51680  -0.51533
 Alpha  occ. eigenvalues --   -0.51514  -0.51065  -0.51018  -0.50438  -0.50353
 Alpha  occ. eigenvalues --   -0.49870  -0.49840  -0.49789  -0.49641  -0.49406
 Alpha  occ. eigenvalues --   -0.49362  -0.49098  -0.49064  -0.48987  -0.48953
 Alpha  occ. eigenvalues --   -0.48489  -0.48416  -0.48333  -0.48321  -0.48227
 Alpha  occ. eigenvalues --   -0.48191  -0.47572  -0.47441  -0.47171  -0.46973
 Alpha  occ. eigenvalues --   -0.46654  -0.46527  -0.46455  -0.46413  -0.46220
 Alpha  occ. eigenvalues --   -0.46090  -0.46031  -0.45910  -0.45710  -0.45656
 Alpha  occ. eigenvalues --   -0.45052  -0.45012  -0.44464  -0.44380  -0.44378
 Alpha  occ. eigenvalues --   -0.44302  -0.44009  -0.43990  -0.43966  -0.43902
 Alpha  occ. eigenvalues --   -0.43849  -0.43813  -0.43395  -0.43381  -0.43259
 Alpha  occ. eigenvalues --   -0.43234  -0.42898  -0.42791  -0.42737  -0.42641
 Alpha  occ. eigenvalues --   -0.42486  -0.42329  -0.41854  -0.41721  -0.41577
 Alpha  occ. eigenvalues --   -0.41507  -0.41423  -0.41283  -0.41017  -0.40837
 Alpha  occ. eigenvalues --   -0.40748  -0.40707  -0.40617  -0.40534  -0.40414
 Alpha  occ. eigenvalues --   -0.40258  -0.40151  -0.40114  -0.39238  -0.39113
 Alpha  occ. eigenvalues --   -0.38318  -0.38148  -0.37659  -0.37521  -0.37167
 Alpha  occ. eigenvalues --   -0.37153  -0.37073  -0.37044  -0.36648  -0.36631
 Alpha  occ. eigenvalues --   -0.36080  -0.36034  -0.34147  -0.34085  -0.33732
 Alpha  occ. eigenvalues --   -0.33729  -0.33052  -0.33007  -0.31228  -0.31177
 Alpha  occ. eigenvalues --   -0.30904  -0.30813  -0.29914  -0.29802  -0.29309
 Alpha  occ. eigenvalues --   -0.29179  -0.29177  -0.29043  -0.23942  -0.23868
 Alpha  occ. eigenvalues --   -0.20984  -0.20948
 Alpha virt. eigenvalues --   -0.08634  -0.08631  -0.01609  -0.01519   0.00068
 Alpha virt. eigenvalues --    0.00100   0.02333   0.02373   0.03242   0.03481
 Alpha virt. eigenvalues --    0.04834   0.04879   0.05137   0.05291   0.06239

 Mulliken charges:
               1
     1  Mg   0.839380
     2  C   -0.003498
     3  C   -0.093939
     4  C   -0.045844
     5  C   -0.063342
     6  N   -0.256780
     7  C   -0.052540
     8  C   -0.014083
     9  C   -0.087073
    10  C    0.046295
    11  C    0.104856
    12  C    0.053481
    13  C   -0.071356
    14  H    0.034339
    15  N   -0.433072
    16  C    0.168611
    17  C   -0.176928
    18  C   -0.004051
    19  C    0.148715
    20  C    0.110118
    21  C    0.012175
    22  O   -0.250127
    23  C    0.062355
    24  N   -0.341243
    25  C    0.041362
    26  C   -0.028009
    27  C   -0.024109
    28  C    0.075054
    29  C    0.076314
    30  C    0.034990
    31  C   -0.004772
    32  N   -0.310553
    33  C    0.080698
    34  C   -0.168854
    35  C    0.008249
    36  C    0.083223
    37  C    0.127176
    38  C    0.046071
    39  O   -0.188658
    40  C   -0.005444
    41  C    0.213252
    42  O   -0.258420
    43  O   -0.304444
    44  C    0.158069
    45  H   -0.017836
    46  H   -0.017122
    47  H   -0.040853
    48  H    0.000663
    49  H   -0.004011
    50  H    0.025314
    51  H    0.016518
    52  H    0.016456
    53  H    0.011965
    54  H    0.043045
    55  H    0.017985
    56  H    0.018468
    57  H    0.005855
    58  H    0.026336
    59  H    0.040307
    60  H    0.037298
    61  H    0.034738
    62  H    0.032092
    63  H    0.016489
    64  H    0.009218
    65  H    0.022817
    66  H    0.012236
    67  H    0.004643
    68  H    0.005857
    69  H    0.005419
    70  H    0.007793
    71  H    0.021268
    72  H    0.028962
    73  H    0.048233
    74  H    0.009949
    75  H    0.045594
    76  H    0.035053
    77  H    0.043099
    78  H    0.046338
    79  H    0.052244
    80  Mg   0.838196
    81  C   -0.017126
    82  C   -0.088021
    83  C   -0.045709
    84  C   -0.063846
    85  N   -0.254563
    86  C   -0.049769
    87  C   -0.015151
    88  C   -0.090445
    89  C    0.045621
    90  C    0.114491
    91  C    0.062571
    92  C   -0.077642
    93  H    0.034346
    94  N   -0.423296
    95  C    0.162719
    96  C   -0.174909
    97  C   -0.008271
    98  C    0.151996
    99  C    0.099432
   100  C    0.015028
   101  O   -0.254362
   102  C    0.061390
   103  N   -0.350299
   104  C    0.037728
   105  C   -0.019323
   106  C   -0.035106
   107  C    0.089623
   108  C    0.074033
   109  C    0.034724
   110  C   -0.010497
   111  N   -0.324363
   112  C    0.079155
   113  C   -0.161757
   114  C    0.002092
   115  C    0.096691
   116  C    0.131229
   117  C    0.042658
   118  O   -0.187812
   119  C    0.000774
   120  C    0.211262
   121  O   -0.251028
   122  O   -0.305655
   123  C    0.152201
   124  H   -0.020214
   125  H   -0.016393
   126  H   -0.038957
   127  H   -0.000887
   128  H   -0.004597
   129  H    0.022278
   130  H    0.014352
   131  H    0.015863
   132  H    0.014098
   133  H    0.037604
   134  H    0.020636
   135  H    0.019523
   136  H    0.008590
   137  H    0.025457
   138  H    0.039475
   139  H    0.038285
   140  H    0.034769
   141  H    0.033971
   142  H    0.013873
   143  H    0.011746
   144  H    0.023955
   145  H    0.011107
   146  H    0.005409
   147  H    0.004405
   148  H    0.005633
   149  H    0.007428
   150  H    0.030275
   151  H    0.028614
   152  H    0.047029
   153  H    0.010314
   154  H    0.046262
   155  H    0.034709
   156  H    0.043723
   157  H    0.049303
   158  H    0.053281
 Sum of Mulliken charges =  -0.00000

 Dipole moment (field-independent basis, Debye):
    X=              0.0746    Y=              6.7086    Z=             -2.4364  Tot=              7.1377
 Quadrupole moment (field-independent basis, Debye-Ang):
   XX=           -453.8388   YY=           -536.9901   ZZ=           -477.6287
   XY=            -16.1286   XZ=            -23.6260   YZ=             13.4040

 Normal termination of Gaussian 16 at Fri Sep 10 12:28:22 2021.
