 Gaussian 16, Revision A.03,
 Gaussian 16:  ES64L-G16RevA.03 25-Dec-2016

 -----------------------------------
 #p cam-b3lyp/Def2SVP td=(nstates=5)
 -----------------------------------

 --------------------------------
 TDDFT excited states in gaussian
 --------------------------------
 Symbolic Z-matrix:
 Charge =  0 Multiplicity = 1

                         Standard orientation:
 ---------------------------------------------------------------------
 Center     Atomic      Atomic             Coordinates (Angstroms)
 Number     Number       Type             X           Y           Z
 ---------------------------------------------------------------------
      1         12           0        7.938728   -0.626877    0.516151
      2          6           0        8.292842    1.986853   -1.903608
      3          6           0        8.654491    1.696155    2.910785
      4          6           0        8.079520   -2.996688    2.618720
      5          6           0        8.375427   -2.898164   -2.090804
      6          7           0        8.395634    1.535779    0.394494
      7          6           0        8.441032    2.430526   -0.587614
      8          6           0        8.585695    3.896845   -0.081299
      9          6           0        9.248432    3.608232    1.339785
     10          6           0        8.706448    2.210408    1.581170
     11          6           0       10.771854    3.544252    1.299887
     12          6           0        7.201648    4.613880    0.067041
     13          6           0        7.268536    6.134098    0.239722
     14          1           0        6.227815    6.953735   -0.362310
     15          7           0        7.830271   -0.597816    2.488521
     16          6           0        8.145034    0.438975    3.301709
     17          6           0        7.896531   -0.034390    4.680423
     18          6           0        7.593237   -1.490980    4.613685
     19          6           0        7.851262   -1.762456    3.222606
     20          6           0        7.911327    0.868450    5.875584
     21          6           0        7.152520   -2.483285    5.642874
     22          8           0        7.170296   -3.742911    5.424697
     23          6           0        6.778297   -1.940154    6.961209
     24          7           0        8.408984   -2.653285    0.342469
     25          6           0        8.336853   -3.471361    1.398183
     26          6           0        8.438981   -4.909069    0.982845
     27          6           0        8.352247   -4.915828   -0.611578
     28          6           0        8.294083   -3.386955   -0.851233
     29          6           0        9.709981   -5.645600    1.427919
     30          6           0        7.257288   -5.805056   -1.252482
     31          6           0        5.888980   -5.250861   -0.924307
     32          7           0        8.098997   -0.518357   -1.645696
     33          6           0        8.300035   -1.587266   -2.530959
     34          6           0        8.450687   -1.009238   -3.879015
     35          6           0        8.342662    0.365842   -3.680695
     36          6           0        8.163770    0.631630   -2.293018
     37          6           0        8.715774   -1.736608   -5.072789
     38          6           0        8.361387    1.673891   -4.315136
     39          8           0        8.386774    2.072106   -5.480586
     40          6           0        8.451867    2.782335   -3.175403
     41          6           0        7.419991    3.833630   -3.480886
     42          8           0        6.201529    3.571308   -3.418404
     43          8           0        8.017658    5.032100   -3.564576
     44          6           0        7.045289    6.124137   -3.836801
     45          1           0        9.096249    2.280463    3.720337
     46          1           0        8.025433   -3.851980    3.295469
     47          1           0        8.430056   -3.550462   -2.964289
     48          1           0        9.247986    4.521487   -0.680980
     49          1           0        8.884369    4.293235    2.105260
     50          1           0       11.145419    3.579438    0.276592
     51          1           0       11.035744    2.596260    1.769106
     52          1           0       11.208757    4.321217    1.927754
     53          1           0        6.754555    4.338168    1.022108
     54          1           0        6.551157    4.374963   -0.775043
     55          1           0        8.255314    6.521227   -0.015836
     56          1           0        7.153877    6.362850    1.299309
     57          1           0        8.326380    1.846120    5.633845
     58          1           0        8.617437    0.442177    6.587911
     59          1           0        6.927952    0.952768    6.338398
     60          1           0        7.627824   -1.402971    7.383451
     61          1           0        6.405116   -2.784683    7.539445
     62          1           0        5.985542   -1.203531    6.827513
     63          1           0        7.613372   -5.492741    1.387964
     64          1           0        9.278576   -5.262713   -1.070118
     65          1           0        9.513212   -6.541827    2.016786
     66          1           0       10.330632   -4.942029    1.982059
     67          1           0       10.379160   -5.933170    0.617412
     68          1           0        7.301097   -6.814079   -0.843948
     69          1           0        7.345150   -5.881957   -2.336280
     70          1           0        5.688639   -5.665798    0.062872
     71          1           0        5.153546   -5.598575   -1.650559
     72          1           0        5.912833   -4.165670   -0.822927
     73          1           0        8.064596   -1.314494   -5.838137
     74          1           0        8.529076   -2.801678   -4.937244
     75          1           0        9.772892   -1.512772   -5.215104
     76          1           0        9.465026    3.181916   -3.206475
     77          1           0        7.383382    6.638012   -4.736723
     78          1           0        6.969736    6.707670   -2.919094
     79          1           0        6.044785    5.814094   -4.140453
     80         12           0       -7.895315   -0.657690   -0.516640
     81          6           0       -8.501773    1.900271    1.926333
     82          6           0       -8.399804    1.718443   -2.911244
     83          6           0       -7.812483   -2.970060   -2.687706
     84          6           0       -8.565623   -3.001285    1.974137
     85          7           0       -8.380887    1.496165   -0.384760
     86          6           0       -8.526537    2.372649    0.597544
     87          6           0       -8.628826    3.849814    0.131602
     88          6           0       -9.156623    3.594384   -1.363417
     89          6           0       -8.584013    2.196615   -1.589313
     90          6           0      -10.670875    3.511748   -1.461150
     91          6           0       -7.237306    4.574864    0.133466
     92          6           0       -7.304942    6.096742   -0.011721
     93          1           0       -6.326285    6.908608    0.706311
     94          7           0       -7.595215   -0.569133   -2.476401
     95          6           0       -7.832642    0.481624   -3.289315
     96          6           0       -7.467045    0.034283   -4.642232
     97          6           0       -7.150417   -1.418762   -4.586283
     98          6           0       -7.535624   -1.720145   -3.222143
     99          6           0       -7.366386    0.972213   -5.809953
    100          6           0       -6.604805   -2.380929   -5.597582
    101          8           0       -6.633421   -3.647862   -5.405533
    102          6           0       -6.121283   -1.801662   -6.859391
    103          7           0       -8.356799   -2.683299   -0.437408
    104          6           0       -8.182273   -3.474584   -1.510405
    105          6           0       -8.315638   -4.932577   -1.140444
    106          6           0       -8.376755   -4.966552    0.457265
    107          6           0       -8.357041   -3.448979    0.743596
    108          6           0       -9.535625   -5.654919   -1.711617
    109          6           0       -7.341002   -5.869021    1.182146
    110          6           0       -5.948860   -5.310409    0.994350
    111          7           0       -8.255050   -0.604240    1.613094
    112          6           0       -8.539775   -1.699445    2.457814
    113          6           0       -8.822328   -1.151790    3.800449
    114          6           0       -8.704011    0.236657    3.637018
    115          6           0       -8.391054    0.534580    2.283213
    116          6           0       -9.184382   -1.910535    4.949071
    117          6           0       -8.783155    1.518637    4.299551
    118          8           0       -8.929238    1.886958    5.464346
    119          6           0       -8.780185    2.660137    3.193501
    120          6           0       -7.788588    3.710590    3.612779
    121          8           0       -6.574496    3.447103    3.669033
    122          8           0       -8.407471    4.904076    3.667108
    123          6           0       -7.462360    5.980127    4.067967
    124          1           0       -8.761686    2.329018   -3.738969
    125          1           0       -7.688916   -3.813103   -3.371433
    126          1           0       -8.686802   -3.672698    2.826889
    127          1           0       -9.343682    4.450861    0.680675
    128          1           0       -8.720266    4.302796   -2.062770
    129          1           0      -11.138505    3.520631   -0.487818
    130          1           0      -10.882283    2.582589   -1.973997
    131          1           0      -11.050737    4.306827   -2.109130
    132          1           0       -6.700413    4.321728   -0.789787
    133          1           0       -6.676181    4.320217    1.011491
    134          1           0       -8.318620    6.481861    0.152867
    135          1           0       -7.084902    6.356393   -1.050079
    136          1           0       -7.817483    1.946215   -5.583598
    137          1           0       -7.995466    0.560021   -6.606320
    138          1           0       -6.344814    1.072568   -6.182761
    139          1           0       -6.930466   -1.257245   -7.340309
    140          1           0       -5.688143   -2.634761   -7.416356
    141          1           0       -5.340408   -1.067751   -6.630876
    142          1           0       -7.451789   -5.496050   -1.471137
    143          1           0       -9.344766   -5.342254    0.820101
    144          1           0       -9.273511   -6.546702   -2.311706
    145          1           0      -10.102530   -4.950234   -2.305396
    146          1           0      -10.268444   -5.977679   -0.974059
    147          1           0       -7.336172   -6.869073    0.741679
    148          1           0       -7.536882   -5.985253    2.242860
    149          1           0       -5.656925   -5.699572    0.014344
    150          1           0       -5.283044   -5.670167    1.776204
    151          1           0       -5.970083   -4.216819    0.921773
    152          1           0       -8.618735   -1.508230    5.778944
    153          1           0       -8.982314   -2.969955    4.805628
    154          1           0      -10.256175   -1.699281    4.992482
    155          1           0       -9.794179    3.056735    3.129302
    156          1           0       -7.892213    6.472183    4.945913
    157          1           0       -7.315538    6.600787    3.164099
    158          1           0       -6.492684    5.679791    4.447432
 ---------------------------------------------------------------------

 SCF Done:  E(RCAM-B3LYP) =  -4069.81187085     A.U. after   19 cycles

 Excitation energies and oscillator strengths:

 Excited State   1:      Singlet-A      1.6702 eV  742.34 nm  f=0.0205  <S**2>=0.000
     309 -> 315        0.10359
     310 -> 316        0.13812
     311 -> 313        0.55000
     312 -> 314        0.41059
 This state for optimization and/or second-order correction.
 Total Energy, E(TD-HF/TD-DFT) =  -4069.75049297
 Copying the excited state density for this state as the 1-particle RhoCI density.

 Excited State   2:      Singlet-A      1.6854 eV  735.65 nm  f=0.7371  <S**2>=0.000
     309 -> 315        0.14185
     310 -> 316       -0.10541
     311 -> 313       -0.41008
     312 -> 314        0.54919

 Excited State   3:      Singlet-A      2.1862 eV  567.12 nm  f=0.0601  <S**2>=0.000
     309 -> 314       -0.13346
     310 -> 313        0.62863
     311 -> 316       -0.26714

 Excited State   4:      Singlet-A      2.1932 eV  565.32 nm  f=0.1335  <S**2>=0.000
     309 -> 314        0.62676
     310 -> 313        0.13254
     312 -> 315       -0.27253

 Excited State   5:      Singlet-A      2.8060 eV  441.85 nm  f=0.0000  <S**2>=0.000
     312 -> 313        0.70710

 The electronic state is 1-A.
 Alpha  occ. eigenvalues --  -46.87708 -46.87595 -19.26325 -19.26241 -19.19130
 Alpha  occ. eigenvalues --  -19.18970 -19.18710 -19.18629 -19.18101 -19.18004
 Alpha  occ. eigenvalues --  -14.42434 -14.42364 -14.41362 -14.41297 -14.39312
 Alpha  occ. eigenvalues --  -14.39285 -14.38537 -14.38501 -10.39059 -10.39028
 Alpha  occ. eigenvalues --  -10.35342 -10.35304 -10.34322 -10.34182 -10.31745
 Alpha  occ. eigenvalues --  -10.31650 -10.31324 -10.31252 -10.30958 -10.30822
 Alpha  occ. eigenvalues --  -10.30486 -10.30421 -10.30335 -10.30301 -10.30115
 Alpha  occ. eigenvalues --  -10.30074 -10.29837 -10.29837 -10.29543 -10.29368
 Alpha  occ. eigenvalues --  -10.29335 -10.29163 -10.28672 -10.28663 -10.28605
 Alpha  occ. eigenvalues --  -10.28470 -10.28341 -10.28279 -10.28084 -10.28038
 Alpha  occ. eigenvalues --  -10.27939 -10.27708 -10.27641 -10.27605 -10.27492
 Alpha  occ. eigenvalues --  -10.27459 -10.27423 -10.27414 -10.27397 -10.27374
 Alpha  occ. eigenvalues --  -10.27373 -10.27364 -10.27321 -10.27318 -10.27092
 Alpha  occ. eigenvalues --  -10.27006 -10.26634 -10.26626 -10.26303 -10.26285
 Alpha  occ. eigenvalues --  -10.26163 -10.26093 -10.26078 -10.25977 -10.25932
 Alpha  occ. eigenvalues --  -10.25872 -10.25807 -10.25775 -10.25356 -10.25347
 Alpha  occ. eigenvalues --  -10.24813 -10.24751 -10.24701 -10.24662 -10.24628
 Alpha  occ. eigenvalues --  -10.24586  -3.16451  -3.16345  -1.91332  -1.91227
 Alpha  occ. eigenvalues --   -1.90919  -1.90816  -1.90761  -1.90653  -1.16618
 Alpha  occ. eigenvalues --   -1.16587  -1.08614  -1.08562  -1.07110  -1.06915
 Alpha  occ. eigenvalues --   -1.06881  -1.06592  -1.04496  -1.04432  -1.03673
 Alpha  occ. eigenvalues --   -1.03599  -1.03146  -1.02976  -1.02325  -1.02049
 Alpha  occ. eigenvalues --   -0.91931  -0.91893  -0.89434  -0.89433  -0.89109
 Alpha  occ. eigenvalues --   -0.89095  -0.88200  -0.88161  -0.87791  -0.87738
 Alpha  occ. eigenvalues --   -0.87622  -0.87588  -0.87174  -0.87040  -0.84941
 Alpha  occ. eigenvalues --   -0.84901  -0.83852  -0.83818  -0.82864  -0.82849
 Alpha  occ. eigenvalues --   -0.82588  -0.82566  -0.81552  -0.81520  -0.80517
 Alpha  occ. eigenvalues --   -0.80387  -0.78705  -0.78565  -0.77134  -0.77084
 Alpha  occ. eigenvalues --   -0.76861  -0.76847  -0.75850  -0.75787  -0.74817
 Alpha  occ. eigenvalues --   -0.74748  -0.72690  -0.72639  -0.71592  -0.71525
 Alpha  occ. eigenvalues --   -0.69818  -0.69697  -0.68791  -0.68767  -0.67557
 Alpha  occ. eigenvalues --   -0.67541  -0.67134  -0.67133  -0.65216  -0.65208
 Alpha  occ. eigenvalues --   -0.64776  -0.64714  -0.64600  -0.64542  -0.64184
 Alpha  occ. eigenvalues --   -0.64145  -0.62236  -0.62235  -0.60347  -0.60267
 Alpha  occ. eigenvalues --   -0.59738  -0.59723  -0.58935  -0.58905  -0.58423
 Alpha  occ. eigenvalues --   -0.58369  -0.57517  -0.57510  -0.57225  -0.57175
 Alpha  occ. eigenvalues --   -0.56227  -0.56144  -0.55918  -0.55842  -0.55431
 Alpha  occ. eigenvalues --   -0.55388  -0.55263  -0.55196  -0.54453  -0.54440
 Alpha  occ. eigenvalues --   -0.53855  -0.53816  -0.53212  -0.53165  -0.53136
 Alpha  occ. eigenvalues --   -0.53081  -0.52848  -0.52840  -0.52660  -0.52586
 Alpha  occ. eigenvalues --   -0.52349  -0.52340  -0.51841  -0.51836  -0.51595
 Alpha  occ. eigenvalues --   -0.51533  -0.51148  -0.51119  -0.50463  -0.50387
 Alpha  occ. eigenvalues --   -0.49942  -0.49913  -0.49825  -0.49803  -0.49428
 Alpha  occ. eigenvalues --   -0.49418  -0.49142  -0.49134  -0.49052  -0.49020
 Alpha  occ. eigenvalues --   -0.48521  -0.48508  -0.48380  -0.48354  -0.48323
 Alpha  occ. eigenvalues --   -0.48263  -0.47610  -0.47532  -0.47211  -0.47054
 Alpha  occ. eigenvalues --   -0.46714  -0.46651  -0.46494  -0.46476  -0.46275
 Alpha  occ. eigenvalues --   -0.46210  -0.46086  -0.46033  -0.45778  -0.45755
 Alpha  occ. eigenvalues --   -0.45151  -0.45117  -0.44505  -0.44462  -0.44416
 Alpha  occ. eigenvalues --   -0.44415  -0.44071  -0.44058  -0.44016  -0.44009
 Alpha  occ. eigenvalues --   -0.43936  -0.43869  -0.43510  -0.43427  -0.43330
 Alpha  occ. eigenvalues --   -0.43303  -0.42947  -0.42889  -0.42850  -0.42639
 Alpha  occ. eigenvalues --   -0.42573  -0.42489  -0.41927  -0.41905  -0.41625
 Alpha  occ. eigenvalues --   -0.41614  -0.41453  -0.41400  -0.41060  -0.40933
 Alpha  occ. eigenvalues --   -0.40786  -0.40723  -0.40656  -0.40626  -0.40487
 Alpha  occ. eigenvalues --   -0.40436  -0.40163  -0.40152  -0.39363  -0.39350
 Alpha  occ. eigenvalues --   -0.38384  -0.38292  -0.37670  -0.37598  -0.37234
 Alpha  occ. eigenvalues --   -0.37206  -0.37182  -0.37139  -0.36735  -0.36653
 Alpha  occ. eigenvalues --   -0.36164  -0.36119  -0.34201  -0.34193  -0.33825
 Alpha  occ. eigenvalues --   -0.33713  -0.33114  -0.33103  -0.31241  -0.31190
 Alpha  occ. eigenvalues --   -0.30950  -0.30911  -0.29962  -0.29910  -0.29358
 Alpha  occ. eigenvalues --   -0.29258  -0.29238  -0.29151  -0.23995  -0.23974
 Alpha  occ. eigenvalues --   -0.21053  -0.21041
 Alpha virt. eigenvalues --   -0.08727  -0.08686  -0.01661  -0.01619   0.00035
 Alpha virt. eigenvalues --    0.00044   0.02263   0.02279   0.03228   0.03308
 Alpha virt. eigenvalues --    0.04788   0.04800   0.05153   0.05199   0.06232

 Mulliken charges:
               1
     1  Mg   0.839124
     2  C   -0.002977
     3  C   -0.093974
     4  C   -0.045808
     5  C   -0.063962
     6  N   -0.256796
     7  C   -0.052508
     8  C   -0.014039
     9  C   -0.087044
    10  C    0.046423
    11  C    0.104827
    12  C    0.053414
    13  C   -0.071709
    14  H    0.035792
    15  N   -0.433180
    16  C    0.168607
    17  C   -0.176946
    18  C   -0.003812
    19  C    0.148854
    20  C    0.110141
    21  C    0.012536
    22  O   -0.249616
    23  C    0.062324
    24  N   -0.341172
    25  C    0.041291
    26  C   -0.028170
    27  C   -0.023933
    28  C    0.074828
    29  C    0.076205
    30  C    0.035136
    31  C   -0.004520
    32  N   -0.310411
    33  C    0.080345
    34  C   -0.169844
    35  C    0.008173
    36  C    0.082951
    37  C    0.127354
    38  C    0.045949
    39  O   -0.188963
    40  C   -0.005315
    41  C    0.212769
    42  O   -0.257146
    43  O   -0.304764
    44  C    0.157860
    45  H   -0.017599
    46  H   -0.016794
    47  H   -0.041624
    48  H    0.000709
    49  H   -0.003930
    50  H    0.025343
    51  H    0.016452
    52  H    0.016586
    53  H    0.011625
    54  H    0.044056
    55  H    0.017671
    56  H    0.018156
    57  H    0.005849
    58  H    0.026770
    59  H    0.040218
    60  H    0.037197
    61  H    0.035826
    62  H    0.032159
    63  H    0.016674
    64  H    0.009287
    65  H    0.023189
    66  H    0.012488
    67  H    0.004626
    68  H    0.006267
    69  H    0.004607
    70  H    0.008875
    71  H    0.018284
    72  H    0.029096
    73  H    0.047283
    74  H    0.009096
    75  H    0.045812
    76  H    0.034992
    77  H    0.042628
    78  H    0.046467
    79  H    0.053368
    80  Mg   0.838119
    81  C   -0.016836
    82  C   -0.087612
    83  C   -0.045435
    84  C   -0.064890
    85  N   -0.254553
    86  C   -0.049892
    87  C   -0.015168
    88  C   -0.090535
    89  C    0.045849
    90  C    0.114399
    91  C    0.062461
    92  C   -0.077806
    93  H    0.034571
    94  N   -0.423533
    95  C    0.163178
    96  C   -0.174399
    97  C   -0.007556
    98  C    0.152261
    99  C    0.099333
   100  C    0.015861
   101  O   -0.253203
   102  C    0.060996
   103  N   -0.350072
   104  C    0.037581
   105  C   -0.019854
   106  C   -0.034765
   107  C    0.088875
   108  C    0.073703
   109  C    0.034761
   110  C   -0.007690
   111  N   -0.324028
   112  C    0.078323
   113  C   -0.163298
   114  C    0.002067
   115  C    0.096178
   116  C    0.131533
   117  C    0.042218
   118  O   -0.188387
   119  C    0.000959
   120  C    0.211171
   121  O   -0.251038
   122  O   -0.305622
   123  C    0.152176
   124  H   -0.019620
   125  H   -0.015534
   126  H   -0.040630
   127  H   -0.000878
   128  H   -0.004182
   129  H    0.022318
   130  H    0.014417
   131  H    0.016224
   132  H    0.014392
   133  H    0.037621
   134  H    0.020571
   135  H    0.019824
   136  H    0.008744
   137  H    0.026095
   138  H    0.040660
   139  H    0.038101
   140  H    0.036607
   141  H    0.034745
   142  H    0.014506
   143  H    0.012229
   144  H    0.025113
   145  H    0.011594
   146  H    0.005532
   147  H    0.006140
   148  H    0.003501
   149  H    0.011030
   150  H    0.017977
   151  H    0.030255
   152  H    0.045738
   153  H    0.008452
   154  H    0.046728
   155  H    0.034855
   156  H    0.043608
   157  H    0.049547
   158  H    0.053315
 Sum of Mulliken charges =  -0.00000

 Dipole moment (field-independent basis, Debye):
    X=              0.4271    Y=              3.1113    Z=              0.0583  Tot=              3.1410
 Quadrupole moment (field-independent basis, Debye-Ang):
   XX=           -468.3042   YY=           -460.3961   ZZ=           -537.9660
   XY=              1.7479   XZ=             63.9720   YZ=              1.0798

 Normal termination of Gaussian 16 at Sat Sep 11 21:58:03 2021.
