 Gaussian 16, Revision A.03,
 Gaussian 16:  ES64L-G16RevA.03 25-Dec-2016

 -----------------------------------
 #p cam-b3lyp/Def2SVP td=(nstates=5)
 -----------------------------------

 --------------------------------
 TDDFT excited states in gaussian
 --------------------------------
 Symbolic Z-matrix:
 Charge =  0 Multiplicity = 1

                         Standard orientation:
 ---------------------------------------------------------------------
 Center     Atomic      Atomic             Coordinates (Angstroms)
 Number     Number       Type             X           Y           Z
 ---------------------------------------------------------------------
      1         12           0       -8.023144   -0.449108    0.038576
      2          6           0       -8.085737    3.128178   -0.067821
      3          6           0       -8.857026   -0.413721   -3.269967
      4          6           0       -8.418764   -3.590525    0.216364
      5          6           0       -8.317606   -0.204109    3.502523
      6          7           0       -8.394913    1.209874   -1.379243
      7          6           0       -8.328007    2.535688   -1.309153
      8          6           0       -8.464691    3.235290   -2.694523
      9          6           0       -9.252948    2.091689   -3.477356
     10          6           0       -8.780557    0.885269   -2.685320
     11          6           0      -10.769033    2.199999   -3.349858
     12          6           0       -7.074367    3.526577   -3.353219
     13          6           0       -7.103959    4.491251   -4.542287
     14          1           0       -5.989557    5.408300   -4.727962
     15          7           0       -8.078539   -1.816123   -1.386574
     16          6           0       -8.424738   -1.622080   -2.681865
     17          6           0       -8.308167   -2.942585   -3.337120
     18          6           0       -8.049805   -3.955648   -2.276438
     19          6           0       -8.200021   -3.154795   -1.088395
     20          6           0       -8.391982   -3.135474   -4.820197
     21          6           0       -7.730217   -5.416331   -2.325436
     22          8           0       -7.772339   -6.157102   -1.284255
     23          6           0       -7.449024   -5.982972   -3.656935
     24          7           0       -8.545555   -1.728263    1.603340
     25          6           0       -8.589378   -3.053275    1.426116
     26          6           0       -8.705100   -3.775756    2.735531
     27          6           0       -8.486053   -2.673213    3.869626
     28          6           0       -8.356440   -1.424498    2.962884
     29          6           0      -10.032955   -4.505033    2.982447
     30          6           0       -7.372190   -2.947327    4.911062
     31          6           0       -6.018037   -2.896114    4.239685
     32          7           0       -7.998906    1.152361    1.503414
     33          6           0       -8.161496    1.028500    2.890821
     34          6           0       -8.179628    2.393835    3.447238
     35          6           0       -8.042063    3.223040    2.335779
     36          6           0       -7.970568    2.427062    1.156966
     37          6           0       -8.368742    2.733521    4.815917
     38          6           0       -7.963591    4.597208    1.867417
     39          8           0       -7.878268    5.696824    2.416103
     40          6           0       -8.111210    4.595361    0.281847
     41          6           0       -7.022498    5.470404   -0.277004
     42          8           0       -5.823055    5.139724   -0.180287
     43          8           0       -7.570233    6.429590   -1.038904
     44          6           0       -6.542180    7.315243   -1.647904
     45          1           0       -9.344706   -0.528054   -4.240037
     46          1           0       -8.450230   -4.675582    0.335106
     47          1           0       -8.321272   -0.052370    4.583455
     48          1           0       -9.053187    4.152890   -2.684211
     49          1           0       -8.930994    2.013116   -4.515573
     50          1           0      -11.054603    2.971146   -2.634524
     51          1           0      -11.103025    1.220430   -3.007239
     52          1           0      -11.230219    2.349113   -4.326511
     53          1           0       -6.718015    2.626195   -3.853606
     54          1           0       -6.364406    3.891745   -2.610296
     55          1           0       -8.052343    5.026404   -4.597860
     56          1           0       -7.070344    3.903609   -5.459754
     57          1           0       -8.752137   -2.237739   -5.321102
     58          1           0       -9.169018   -3.877849   -5.001315
     59          1           0       -7.448317   -3.480338   -5.243159
     60          1           0       -8.312131   -5.826357   -4.304288
     61          1           0       -7.154114   -7.017887   -3.487141
     62          1           0       -6.623424   -5.431773   -4.108060
     63          1           0       -7.936345   -4.541748    2.828794
     64          1           0       -9.382140   -2.522558    4.472124
     65          1           0       -9.916377   -5.569526    3.187310
     66          1           0      -10.673482   -4.341335    2.116294
     67          1           0      -10.641593   -4.087464    3.784079
     68          1           0       -7.483999   -3.946011    5.331864
     69          1           0       -7.371964   -2.237112    5.738011
     70          1           0       -5.914822   -3.897451    3.823149
     71          1           0       -5.236812   -2.696213    4.973809
     72          1           0       -6.013541   -2.194168    3.405577
     73          1           0       -7.642136    3.514541    5.039571
     74          1           0       -8.230121    1.866800    5.461814
     75          1           0       -9.402143    3.079336    4.797220
     76          1           0       -9.104157    4.984622    0.059018
     77          1           0       -6.786515    8.337246   -1.358002
     78          1           0       -6.523687    7.082018   -2.712643
     79          1           0       -5.530910    7.224602   -1.249841
     80         12           0        7.848531   -1.065251    0.228968
     81          6           0        8.902135    2.365278    0.250059
     82          6           0        8.117762   -0.971375   -3.170043
     83          6           0        6.496645   -3.934443    0.141923
     84          6           0        6.586350   -0.552571    3.436735
     85          7           0        8.443510    0.546344   -1.164227
     86          6           0        8.882369    1.789592   -1.037432
     87          6           0        9.400725    2.426210   -2.354855
     88          6           0        8.578764    1.523278   -3.397914
     89          6           0        8.394129    0.270398   -2.544170
     90          6           0        7.205099    2.083653   -3.727078
     91          6           0       10.949047    2.247766   -2.536161
     92          6           0       11.570603    3.106995   -3.639408
     93          1           0       12.916157    3.636164   -3.434650
     94          7           0        7.831340   -2.433769   -1.208203
     95          6           0        7.978029   -2.224105   -2.533265
     96          6           0        7.868950   -3.548356   -3.164635
     97          6           0        7.481644   -4.535408   -2.120382
     98          6           0        7.229052   -3.649895   -1.001392
     99          6           0        8.200170   -3.791195   -4.608495
    100          6           0        7.346930   -6.028033   -2.131158
    101          8           0        6.767120   -6.658675   -1.177775
    102          6           0        7.830467   -6.721264   -3.334121
    103          7           0        6.522088   -2.038064    1.500387
    104          6           0        6.133012   -3.302063    1.257803
    105          6           0        5.402530   -3.885112    2.443905
    106          6           0        5.594173   -2.828009    3.628549
    107          6           0        6.360232   -1.726598    2.863406
    108          6           0        3.912070   -4.155792    2.239873
    109          6           0        6.197377   -3.361258    4.956887
    110          6           0        7.638301   -3.765803    4.743659
    111          7           0        7.907190    0.527853    1.687262
    112          6           0        7.290132    0.544806    2.957319
    113          6           0        7.516318    1.886225    3.533375
    114          6           0        8.235197    2.569538    2.541011
    115          6           0        8.424915    1.720915    1.417025
    116          6           0        7.037127    2.341862    4.793886
    117          6           0        8.867471    3.819248    2.184430
    118          8           0        9.100595    4.873965    2.773458
    119          6           0        9.217816    3.784153    0.634454
    120          6           0       10.636309    4.256068    0.468063
    121          8           0       11.581509    3.591900    0.928613
    122          8           0       10.658113    5.292664   -0.389471
    123          6           0       12.044935    5.788728   -0.595469
    124          1           0        7.949923   -0.983404   -4.247341
    125          1           0        6.102714   -4.951223    0.208630
    126          1           0        6.309200   -0.345761    4.472632
    127          1           0        9.145482    3.470963   -2.485670
    128          1           0        9.172701    1.299336   -4.280213
    129          1           0        6.960487    2.937439   -3.112776
    130          1           0        6.507305    1.276196   -3.547785
    131          1           0        7.136271    2.309914   -4.794977
    132          1           0       11.149160    1.247652   -2.941717
    133          1           0       11.463393    2.420294   -1.610793
    134          1           0       10.892342    3.900938   -3.974923
    135          1           0       11.713101    2.483944   -4.525696
    136          1           0        8.294676   -2.849619   -5.163384
    137          1           0        7.331366   -4.284874   -5.057205
    138          1           0        9.075962   -4.430637   -4.737961
    139          1           0        7.298814   -6.346108   -4.205358
    140          1           0        7.731574   -7.786621   -3.117088
    141          1           0        8.887762   -6.473168   -3.479673
    142          1           0        5.840613   -4.829855    2.741663
    143          1           0        4.636017   -2.386283    3.939431
    144          1           0        3.629955   -5.208927    2.427995
    145          1           0        3.647284   -3.865446    1.231842
    146          1           0        3.244473   -3.540328    2.840469
    147          1           0        5.667012   -4.260565    5.279546
    148          1           0        6.145933   -2.647145    5.771994
    149          1           0        7.552760   -4.776686    4.333930
    150          1           0        8.179549   -3.767017    5.687643
    151          1           0        8.113958   -3.139697    3.979870
    152          1           0        7.851533    2.879832    5.260610
    153          1           0        6.699607    1.513893    5.413820
    154          1           0        6.208014    2.976412    4.469567
    155          1           0        8.507274    4.434772    0.123173
    156          1           0       12.041257    6.856493   -0.355538
    157          1           0       12.312619    5.506060   -1.630937
    158          1           0       12.812823    5.423626    0.076473
 ---------------------------------------------------------------------

 SCF Done:  E(RCAM-B3LYP) =  -4069.81169996     A.U. after   19 cycles

 Excitation energies and oscillator strengths:

 Excited State   1:      Singlet-A      1.6698 eV  742.51 nm  f=0.0170  <S**2>=0.000
     309 -> 315       -0.10317
     310 -> 316        0.13819
     311 -> 313       -0.40924
     312 -> 314        0.55101
 This state for optimization and/or second-order correction.
 Total Energy, E(TD-HF/TD-DFT) =  -4069.75033568
 Copying the excited state density for this state as the 1-particle RhoCI density.

 Excited State   2:      Singlet-A      1.6853 eV  735.67 nm  f=0.7398  <S**2>=0.000
     309 -> 315        0.14208
     310 -> 316        0.10497
     311 -> 313        0.55018
     312 -> 314        0.40871

 Excited State   3:      Singlet-A      2.1854 eV  567.33 nm  f=0.0650  <S**2>=0.000
     309 -> 313       -0.12998
     310 -> 314        0.62946
     312 -> 316       -0.26705

 Excited State   4:      Singlet-A      2.1930 eV  565.37 nm  f=0.1296  <S**2>=0.000
     309 -> 313        0.62748
     310 -> 314        0.12892
     311 -> 315       -0.27282

 Excited State   5:      Singlet-A      2.7712 eV  447.40 nm  f=0.0000  <S**2>=0.000
     312 -> 313        0.70708

 The electronic state is 1-A.
 Alpha  occ. eigenvalues --  -46.87814 -46.87588 -19.26295 -19.26288 -19.19098
 Alpha  occ. eigenvalues --  -19.19032 -19.18827 -19.18657 -19.18180 -19.17975
 Alpha  occ. eigenvalues --  -14.42468 -14.42427 -14.41467 -14.41285 -14.39420
 Alpha  occ. eigenvalues --  -14.39282 -14.38604 -14.38526 -10.39091 -10.39026
 Alpha  occ. eigenvalues --  -10.35460 -10.35335 -10.34401 -10.34152 -10.31700
 Alpha  occ. eigenvalues --  -10.31688 -10.31423 -10.31237 -10.30958 -10.30927
 Alpha  occ. eigenvalues --  -10.30587 -10.30524 -10.30324 -10.30287 -10.30225
 Alpha  occ. eigenvalues --  -10.30069 -10.29937 -10.29816 -10.29647 -10.29367
 Alpha  occ. eigenvalues --  -10.29330 -10.29271 -10.28770 -10.28659 -10.28610
 Alpha  occ. eigenvalues --  -10.28568 -10.28381 -10.28335 -10.28137 -10.28078
 Alpha  occ. eigenvalues --  -10.27928 -10.27808 -10.27745 -10.27601 -10.27600
 Alpha  occ. eigenvalues --  -10.27520 -10.27502 -10.27466 -10.27438 -10.27420
 Alpha  occ. eigenvalues --  -10.27420 -10.27413 -10.27398 -10.27295 -10.27171
 Alpha  occ. eigenvalues --  -10.26977 -10.26731 -10.26640 -10.26421 -10.26374
 Alpha  occ. eigenvalues --  -10.26252 -10.26209 -10.26067 -10.26037 -10.25960
 Alpha  occ. eigenvalues --  -10.25859 -10.25855 -10.25753 -10.25449 -10.25305
 Alpha  occ. eigenvalues --  -10.24848 -10.24804 -10.24798 -10.24720 -10.24667
 Alpha  occ. eigenvalues --  -10.24617  -3.16557  -3.16338  -1.91439  -1.91220
 Alpha  occ. eigenvalues --   -1.91025  -1.90868  -1.90809  -1.90646  -1.16644
 Alpha  occ. eigenvalues --   -1.16581  -1.08638  -1.08582  -1.07228  -1.06910
 Alpha  occ. eigenvalues --   -1.06881  -1.06654  -1.04599  -1.04425  -1.03778
 Alpha  occ. eigenvalues --   -1.03592  -1.03251  -1.02965  -1.02428  -1.02038
 Alpha  occ. eigenvalues --   -0.91988  -0.91915  -0.89539  -0.89421  -0.89208
 Alpha  occ. eigenvalues --   -0.89088  -0.88305  -0.88145  -0.87885  -0.87713
 Alpha  occ. eigenvalues --   -0.87692  -0.87615  -0.87290  -0.87061  -0.85002
 Alpha  occ. eigenvalues --   -0.84936  -0.83956  -0.83802  -0.82983  -0.82874
 Alpha  occ. eigenvalues --   -0.82666  -0.82591  -0.81600  -0.81529  -0.80612
 Alpha  occ. eigenvalues --   -0.80376  -0.78813  -0.78569  -0.77237  -0.77078
 Alpha  occ. eigenvalues --   -0.76953  -0.76832  -0.75940  -0.75773  -0.74915
 Alpha  occ. eigenvalues --   -0.74727  -0.72791  -0.72625  -0.71689  -0.71509
 Alpha  occ. eigenvalues --   -0.69929  -0.69685  -0.68892  -0.68764  -0.67657
 Alpha  occ. eigenvalues --   -0.67533  -0.67240  -0.67143  -0.65306  -0.65207
 Alpha  occ. eigenvalues --   -0.64870  -0.64700  -0.64638  -0.64587  -0.64288
 Alpha  occ. eigenvalues --   -0.64131  -0.62311  -0.62211  -0.60458  -0.60274
 Alpha  occ. eigenvalues --   -0.59823  -0.59731  -0.59004  -0.58921  -0.58520
 Alpha  occ. eigenvalues --   -0.58355  -0.57598  -0.57483  -0.57325  -0.57166
 Alpha  occ. eigenvalues --   -0.56326  -0.56135  -0.55993  -0.55824  -0.55535
 Alpha  occ. eigenvalues --   -0.55389  -0.55356  -0.55174  -0.54539  -0.54417
 Alpha  occ. eigenvalues --   -0.53915  -0.53851  -0.53315  -0.53239  -0.53160
 Alpha  occ. eigenvalues --   -0.53078  -0.52931  -0.52837  -0.52773  -0.52614
 Alpha  occ. eigenvalues --   -0.52461  -0.52331  -0.51928  -0.51797  -0.51635
 Alpha  occ. eigenvalues --   -0.51599  -0.51212  -0.51130  -0.50589  -0.50422
 Alpha  occ. eigenvalues --   -0.50051  -0.49935  -0.49917  -0.49796  -0.49531
 Alpha  occ. eigenvalues --   -0.49427  -0.49230  -0.49136  -0.49114  -0.49036
 Alpha  occ. eigenvalues --   -0.48608  -0.48490  -0.48477  -0.48459  -0.48299
 Alpha  occ. eigenvalues --   -0.48278  -0.47712  -0.47531  -0.47313  -0.47052
 Alpha  occ. eigenvalues --   -0.46816  -0.46639  -0.46575  -0.46492  -0.46376
 Alpha  occ. eigenvalues --   -0.46200  -0.46178  -0.46009  -0.45836  -0.45748
 Alpha  occ. eigenvalues --   -0.45219  -0.45133  -0.44592  -0.44525  -0.44446
 Alpha  occ. eigenvalues --   -0.44410  -0.44163  -0.44107  -0.44061  -0.44034
 Alpha  occ. eigenvalues --   -0.44011  -0.43877  -0.43509  -0.43486  -0.43404
 Alpha  occ. eigenvalues --   -0.43317  -0.43043  -0.42865  -0.42829  -0.42714
 Alpha  occ. eigenvalues --   -0.42673  -0.42484  -0.42030  -0.41897  -0.41720
 Alpha  occ. eigenvalues --   -0.41597  -0.41554  -0.41395  -0.41158  -0.40919
 Alpha  occ. eigenvalues --   -0.40890  -0.40839  -0.40665  -0.40637  -0.40590
 Alpha  occ. eigenvalues --   -0.40421  -0.40257  -0.40173  -0.39465  -0.39354
 Alpha  occ. eigenvalues --   -0.38488  -0.38277  -0.37770  -0.37595  -0.37339
 Alpha  occ. eigenvalues --   -0.37283  -0.37194  -0.37134  -0.36727  -0.36705
 Alpha  occ. eigenvalues --   -0.36209  -0.36146  -0.34303  -0.34181  -0.33797
 Alpha  occ. eigenvalues --   -0.33783  -0.33203  -0.33104  -0.31357  -0.31215
 Alpha  occ. eigenvalues --   -0.31052  -0.30902  -0.30040  -0.29879  -0.29465
 Alpha  occ. eigenvalues --   -0.29337  -0.29259  -0.29136  -0.24098  -0.23963
 Alpha  occ. eigenvalues --   -0.21145  -0.21045
 Alpha virt. eigenvalues --   -0.08790  -0.08721  -0.01767  -0.01612  -0.00073
 Alpha virt. eigenvalues --    0.00035   0.02186   0.02283   0.03098   0.03293
 Alpha virt. eigenvalues --    0.04698   0.04798   0.05086   0.05230   0.06153

 Mulliken charges:
               1
     1  Mg   0.838652
     2  C   -0.002981
     3  C   -0.094186
     4  C   -0.045855
     5  C   -0.064001
     6  N   -0.256777
     7  C   -0.052477
     8  C   -0.014006
     9  C   -0.086982
    10  C    0.046298
    11  C    0.104805
    12  C    0.053498
    13  C   -0.071743
    14  H    0.035992
    15  N   -0.433154
    16  C    0.168410
    17  C   -0.177191
    18  C   -0.003968
    19  C    0.148699
    20  C    0.110201
    21  C    0.012333
    22  O   -0.249511
    23  C    0.062456
    24  N   -0.341144
    25  C    0.041219
    26  C   -0.028192
    27  C   -0.023970
    28  C    0.074814
    29  C    0.076149
    30  C    0.035129
    31  C   -0.004486
    32  N   -0.310489
    33  C    0.080389
    34  C   -0.169719
    35  C    0.008407
    36  C    0.082976
    37  C    0.127308
    38  C    0.046143
    39  O   -0.188260
    40  C   -0.005343
    41  C    0.212918
    42  O   -0.257126
    43  O   -0.304791
    44  C    0.157632
    45  H   -0.017629
    46  H   -0.016773
    47  H   -0.041486
    48  H    0.000992
    49  H   -0.004131
    50  H    0.025527
    51  H    0.016484
    52  H    0.016642
    53  H    0.011070
    54  H    0.044132
    55  H    0.017963
    56  H    0.017816
    57  H    0.005796
    58  H    0.026863
    59  H    0.039442
    60  H    0.037301
    61  H    0.035816
    62  H    0.031445
    63  H    0.016567
    64  H    0.009528
    65  H    0.023276
    66  H    0.012580
    67  H    0.004786
    68  H    0.006414
    69  H    0.004728
    70  H    0.008849
    71  H    0.017793
    72  H    0.028975
    73  H    0.047657
    74  H    0.009070
    75  H    0.046084
    76  H    0.035194
    77  H    0.043091
    78  H    0.046284
    79  H    0.053776
    80  Mg   0.837995
    81  C   -0.016845
    82  C   -0.087898
    83  C   -0.045525
    84  C   -0.064540
    85  N   -0.254563
    86  C   -0.049738
    87  C   -0.015080
    88  C   -0.090540
    89  C    0.045803
    90  C    0.114396
    91  C    0.062564
    92  C   -0.077786
    93  H    0.034740
    94  N   -0.423463
    95  C    0.162891
    96  C   -0.174829
    97  C   -0.007921
    98  C    0.152078
    99  C    0.099475
   100  C    0.015436
   101  O   -0.253222
   102  C    0.061264
   103  N   -0.350039
   104  C    0.037598
   105  C   -0.019888
   106  C   -0.034882
   107  C    0.089019
   108  C    0.073566
   109  C    0.034699
   110  C   -0.007635
   111  N   -0.324186
   112  C    0.078533
   113  C   -0.162851
   114  C    0.002394
   115  C    0.096280
   116  C    0.131452
   117  C    0.042575
   118  O   -0.187679
   119  C    0.000845
   120  C    0.211227
   121  O   -0.251131
   122  O   -0.305561
   123  C    0.152064
   124  H   -0.019970
   125  H   -0.015610
   126  H   -0.040224
   127  H   -0.000605
   128  H   -0.004583
   129  H    0.022772
   130  H    0.014549
   131  H    0.015920
   132  H    0.013837
   133  H    0.037667
   134  H    0.020767
   135  H    0.019429
   136  H    0.008564
   137  H    0.025804
   138  H    0.039576
   139  H    0.038033
   140  H    0.036237
   141  H    0.033808
   142  H    0.014233
   143  H    0.012856
   144  H    0.025041
   145  H    0.011794
   146  H    0.006082
   147  H    0.006191
   148  H    0.003723
   149  H    0.010842
   150  H    0.017810
   151  H    0.030064
   152  H    0.045912
   153  H    0.008514
   154  H    0.047778
   155  H    0.035311
   156  H    0.043919
   157  H    0.049361
   158  H    0.053506
 Sum of Mulliken charges =  -0.00000

 Dipole moment (field-independent basis, Debye):
    X=             -3.1582    Y=             -2.4781    Z=             -7.9643  Tot=              8.9188
 Quadrupole moment (field-independent basis, Debye-Ang):
   XX=           -499.0337   YY=           -557.5874   ZZ=           -445.6657
   XY=             -2.8110   XZ=            -22.0998   YZ=            -35.9105

 Normal termination of Gaussian 16 at Sun Sep 12 01:55:05 2021.
