 Gaussian 16, Revision A.03,
 Gaussian 16:  ES64L-G16RevA.03 25-Dec-2016

 -----------------------------------
 #p cam-b3lyp/Def2SVP td=(nstates=5)
 -----------------------------------

 --------------------------------
 TDDFT excited states in gaussian
 --------------------------------
 Symbolic Z-matrix:
 Charge =  0 Multiplicity = 1

                         Standard orientation:
 ---------------------------------------------------------------------
 Center     Atomic      Atomic             Coordinates (Angstroms)
 Number     Number       Type             X           Y           Z
 ---------------------------------------------------------------------
      1         12           0        5.222685   -1.162201    0.260312
      2          6           0        5.932222    1.580497   -1.927466
      3          6           0        6.597475    0.684560    2.778743
      4          6           0        5.022242   -3.732085    2.107510
      5          6           0        4.965159   -3.167836   -2.578133
      6          7           0        6.115691    0.863104    0.296717
      7          6           0        6.272753    1.834578   -0.597005
      8          6           0        6.763131    3.175119    0.027378
      9          6           0        7.458304    2.600929    1.342307
     10          6           0        6.653446    1.323503    1.504517
     11          6           0        8.925926    2.235116    1.145412
     12          6           0        5.577826    4.135942    0.378946
     13          6           0        5.977882    5.582068    0.685587
     14          1           0        5.090422    6.657455    0.269287
     15          7           0        5.276535   -1.333221    2.227722
     16          6           0        5.865676   -0.479383    3.099020
     17          6           0        5.630676   -1.044311    4.445241
     18          6           0        5.021985   -2.392614    4.272995
     19          6           0        5.107799   -2.552881    2.843895
     20          6           0        5.928940   -0.302981    5.712213
     21          6           0        4.462800   -3.384349    5.243513
     22          8           0        4.196797   -4.588961    4.907768
     23          6           0        4.315563   -2.928134    6.637512
     24          7           0        5.238847   -3.209299   -0.148054
     25          6           0        5.077677   -4.109031    0.828415
     26          6           0        4.840869   -5.481841    0.272310
     27          6           0        4.630952   -5.292046   -1.299207
     28          6           0        4.878938   -3.765965   -1.387807
     29          6           0        5.958055   -6.505333    0.518013
     30          6           0        3.326275   -5.863887   -1.908498
     31          6           0        2.135855   -5.084843   -1.395577
     32          7           0        5.233674   -0.846552   -1.887079
     33          6           0        5.134677   -1.827851   -2.884037
     34          6           0        5.298857   -1.144749   -4.180373
     35          6           0        5.499800    0.192664   -3.844529
     36          6           0        5.489617    0.331777   -2.427195
     37          6           0        5.310492   -1.772113   -5.457367
     38          6           0        5.745305    1.532638   -4.352520
     39          8           0        5.763618    2.045648   -5.472332
     40          6           0        6.156473    2.464913   -3.128742
     41          6           0        5.349676    3.730630   -3.230475
     42          8           0        4.111931    3.714786   -3.072039
     43          8           0        6.178894    4.785158   -3.260650
     44          6           0        5.441275    6.074749   -3.331538
     45          1           0        7.214382    1.072907    3.591487
     46          1           0        4.841313   -4.629167    2.703284
     47          1           0        4.812528   -3.715531   -3.509898
     48          1           0        7.493847    3.716177   -0.574066
     49          1           0        7.307973    3.255125    2.200881
     50          1           0        9.217754    2.308588    0.097863
     51          1           0        9.019059    1.206828    1.495329
     52          1           0        9.564714    2.832260    1.796677
     53          1           0        5.158194    3.850984    1.343709
     54          1           0        4.828057    4.129481   -0.412970
     55          1           0        7.001277    5.787841    0.370582
     56          1           0        5.996937    5.708960    1.768055
     57          1           0        6.521258    0.591383    5.522957
     58          1           0        6.582147   -0.940376    6.307828
     59          1           0        5.024667   -0.074017    6.276303
     60          1           0        5.289672   -2.624646    7.021640
     61          1           0        3.818359   -3.739174    7.168411
     62          1           0        3.688557   -2.036181    6.652758
     63          1           0        3.944568   -5.928195    0.701074
     64          1           0        5.424457   -5.765406   -1.877959
     65          1           0        5.622623   -7.403533    1.037077
     66          1           0        6.754614   -6.008480    1.071115
     67          1           0        6.486195   -6.829512   -0.378310
     68          1           0        3.187361   -6.900245   -1.602539
     69          1           0        3.311340   -5.834909   -2.998080
     70          1           0        1.929687   -5.558750   -0.436546
     71          1           0        1.289328   -5.192969   -2.074483
     72          1           0        2.396449   -4.045256   -1.195991
     73          1           0        4.705801   -1.143925   -6.111354
     74          1           0        4.913918   -2.785771   -5.404179
     75          1           0        6.376696   -1.752134   -5.682456
     76          1           0        7.225660    2.652287   -3.222819
     77          1           0        5.809359    6.607271   -4.208561
     78          1           0        5.562418    6.554814   -2.360318
     79          1           0        4.377322    6.009471   -3.561933
     80         12           0       -5.121365    1.016547    0.629366
     81          6           0       -6.269060   -1.001382   -2.107387
     82          6           0       -6.769010   -1.128872    2.707111
     83          6           0       -4.508270    3.014834    3.016494
     84          6           0       -4.556539    3.571355   -1.672728
     85          7           0       -6.327070   -0.794708    0.232052
     86          6           0       -6.643172   -1.501379   -0.842688
     87          6           0       -7.332978   -2.858627   -0.540040
     88          6           0       -7.931939   -2.506405    0.907738
     89          6           0       -6.930971   -1.433675    1.331982
     90          6           0       -9.313019   -1.875020    0.850296
     91          6           0       -6.309558   -4.045642   -0.464989
     92          6           0       -6.939771   -5.440045   -0.480390
     93          1           0       -6.230993   -6.516649   -1.166705
     94          7           0       -5.143458    0.718734    2.591344
     95          6           0       -5.851765   -0.211560    3.265257
     96          6           0       -5.537724   -0.004092    4.687396
     97          6           0       -4.714679    1.229630    4.810904
     98          6           0       -4.775689    1.724507    3.450215
     99          6           0       -5.941747   -0.973713    5.759786
    100          6           0       -4.002547    1.866314    5.965755
    101          8           0       -3.546578    3.062341    5.899051
    102          6           0       -3.936910    1.082784    7.208043
    103          7           0       -4.807093    3.070348    0.703499
    104          6           0       -4.507381    3.682462    1.862560
    105          6           0       -4.055044    5.103950    1.627682
    106          6           0       -3.881390    5.243421    0.044018
    107          6           0       -4.370605    3.843762   -0.388436
    108          6           0       -4.998752    6.194600    2.133921
    109          6           0       -2.501704    5.736246   -0.471984
    110          6           0       -1.443623    4.693252   -0.192655
    111          7           0       -5.182243    1.213786   -1.521325
    112          6           0       -4.935497    2.380091   -2.278243
    113          6           0       -5.210429    2.048309   -3.691318
    114          6           0       -5.623458    0.707934   -3.655425
    115          6           0       -5.626472    0.243539   -2.312360
    116          6           0       -5.114758    2.947368   -4.790709
    117          6           0       -6.067785   -0.416540   -4.447147
    118          8           0       -6.176421   -0.641931   -5.651776
    119          6           0       -6.626858   -1.535559   -3.466525
    120          6           0       -6.032783   -2.854213   -3.879720
    121          8           0       -4.809743   -3.055768   -3.778908
    122          8           0       -7.026293   -3.729501   -4.118843
    123          6           0       -6.486850   -5.055703   -4.521353
    124          1           0       -7.435689   -1.605633    3.426222
    125          1           0       -4.183887    3.714592    3.790183
    126          1           0       -4.310357    4.284519   -2.462331
    127          1           0       -8.134290   -3.122471   -1.219791
    128          1           0       -7.879651   -3.362238    1.575698
    129          1           0       -9.615105   -1.658323   -0.163570
    130          1           0       -9.243484   -0.962370    1.427601
    131          1           0      -10.038239   -2.506664    1.371274
    132          1           0       -5.848778   -4.058698    0.531122
    133          1           0       -5.580299   -3.970031   -1.247992
    134          1           0       -7.991535   -5.413629   -0.790296
    135          1           0       -6.971749   -5.817735    0.544476
    136          1           0       -6.677933   -1.698274    5.390382
    137          1           0       -6.482483   -0.401288    6.521229
    138          1           0       -5.085894   -1.464482    6.228112
    139          1           0       -4.945317    0.851333    7.542728
    140          1           0       -3.313116    1.665616    7.888530
    141          1           0       -3.449338    0.125478    6.992530
    142          1           0       -3.099980    5.289498    2.103625
    143          1           0       -4.590029    5.969251   -0.381224
    144          1           0       -4.517552    6.892812    2.844568
    145          1           0       -5.856641    5.718858    2.590237
    146          1           0       -5.458306    6.804381    1.357916
    147          1           0       -2.197197    6.638564    0.063978
    148          1           0       -2.496014    5.973165   -1.530685
    149          1           0       -1.167682    4.893918    0.846906
    150          1           0       -0.593006    4.822530   -0.858812
    151          1           0       -1.866885    3.682840   -0.232193
    152          1           0       -4.624440    2.409358   -5.591110
    153          1           0       -4.566352    3.847671   -4.521510
    154          1           0       -6.174076    3.150064   -4.969648
    155          1           0       -7.714236   -1.531899   -3.551295
    156          1           0       -6.941051   -5.306262   -5.484995
    157          1           0       -6.698066   -5.733992   -3.673379
    158          1           0       -5.432062   -5.115419   -4.762802
 ---------------------------------------------------------------------

 SCF Done:  E(RCAM-B3LYP) =  -4069.81184287     A.U. after   19 cycles

 Excitation energies and oscillator strengths:

 Excited State   1:      Singlet-A      1.6565 eV  748.47 nm  f=0.0051  <S**2>=0.000
     309 -> 315       -0.11312
     310 -> 316        0.12543
     311 -> 313        0.51167
     312 -> 314       -0.45865
 This state for optimization and/or second-order correction.
 Total Energy, E(TD-HF/TD-DFT) =  -4069.75096788
 Copying the excited state density for this state as the 1-particle RhoCI density.

 Excited State   2:      Singlet-A      1.6955 eV  731.27 nm  f=0.7190  <S**2>=0.000
     309 -> 315        0.13360
     310 -> 316        0.11906
     311 -> 313        0.45710
     312 -> 314        0.50982

 Excited State   3:      Singlet-A      2.1830 eV  567.95 nm  f=0.0289  <S**2>=0.000
     309 -> 314        0.25778
     310 -> 313        0.58978
     311 -> 316       -0.24818
     312 -> 315       -0.10774

 Excited State   4:      Singlet-A      2.1933 eV  565.29 nm  f=0.1557  <S**2>=0.000
     309 -> 314        0.58668
     310 -> 313       -0.25528
     311 -> 316        0.11229
     312 -> 315       -0.25616

 Excited State   5:      Singlet-A      2.5827 eV  480.06 nm  f=0.0000  <S**2>=0.000
     312 -> 313        0.70709

 The electronic state is 1-A.
 Alpha  occ. eigenvalues --  -46.87626 -46.87505 -19.26248 -19.26198 -19.19047
 Alpha  occ. eigenvalues --  -19.18922 -19.18692 -19.18627 -19.18014 -19.17906
 Alpha  occ. eigenvalues --  -14.42351 -14.42286 -14.41278 -14.41201 -14.39237
 Alpha  occ. eigenvalues --  -14.39205 -14.38439 -14.38412 -10.38977 -10.38975
 Alpha  occ. eigenvalues --  -10.35328 -10.35309 -10.34236 -10.34084 -10.31678
 Alpha  occ. eigenvalues --  -10.31625 -10.31239 -10.31155 -10.30895 -10.30761
 Alpha  occ. eigenvalues --  -10.30395 -10.30337 -10.30242 -10.30198 -10.30036
 Alpha  occ. eigenvalues --  -10.29986 -10.29745 -10.29730 -10.29463 -10.29291
 Alpha  occ. eigenvalues --  -10.29250 -10.29088 -10.28619 -10.28603 -10.28567
 Alpha  occ. eigenvalues --  -10.28449 -10.28263 -10.28205 -10.28018 -10.27978
 Alpha  occ. eigenvalues --  -10.27851 -10.27625 -10.27562 -10.27522 -10.27423
 Alpha  occ. eigenvalues --  -10.27353 -10.27340 -10.27331 -10.27325 -10.27325
 Alpha  occ. eigenvalues --  -10.27305 -10.27275 -10.27246 -10.27215 -10.27022
 Alpha  occ. eigenvalues --  -10.26920 -10.26589 -10.26585 -10.26374 -10.26320
 Alpha  occ. eigenvalues --  -10.26105 -10.25935 -10.25915 -10.25866 -10.25836
 Alpha  occ. eigenvalues --  -10.25759 -10.25635 -10.25627 -10.25290 -10.25278
 Alpha  occ. eigenvalues --  -10.24720 -10.24664 -10.24624 -10.24543 -10.24374
 Alpha  occ. eigenvalues --  -10.24351  -3.16368  -3.16255  -1.91249  -1.91137
 Alpha  occ. eigenvalues --   -1.90836  -1.90726  -1.90678  -1.90563  -1.16543
 Alpha  occ. eigenvalues --   -1.16539  -1.08514  -1.08474  -1.07097  -1.06884
 Alpha  occ. eigenvalues --   -1.06831  -1.06543  -1.04420  -1.04351  -1.03592
 Alpha  occ. eigenvalues --   -1.03513  -1.03064  -1.02882  -1.02242  -1.01957
 Alpha  occ. eigenvalues --   -0.91842  -0.91815  -0.89329  -0.89312  -0.89049
 Alpha  occ. eigenvalues --   -0.89025  -0.88103  -0.88039  -0.87688  -0.87623
 Alpha  occ. eigenvalues --   -0.87536  -0.87513  -0.87125  -0.87001  -0.84873
 Alpha  occ. eigenvalues --   -0.84842  -0.83745  -0.83681  -0.82826  -0.82817
 Alpha  occ. eigenvalues --   -0.82526  -0.82510  -0.81463  -0.81454  -0.80452
 Alpha  occ. eigenvalues --   -0.80310  -0.78637  -0.78495  -0.77052  -0.76997
 Alpha  occ. eigenvalues --   -0.76791  -0.76751  -0.75782  -0.75707  -0.74732
 Alpha  occ. eigenvalues --   -0.74644  -0.72601  -0.72538  -0.71518  -0.71441
 Alpha  occ. eigenvalues --   -0.69691  -0.69530  -0.68729  -0.68696  -0.67488
 Alpha  occ. eigenvalues --   -0.67463  -0.67091  -0.67088  -0.65142  -0.65141
 Alpha  occ. eigenvalues --   -0.64698  -0.64618  -0.64515  -0.64468  -0.64086
 Alpha  occ. eigenvalues --   -0.64022  -0.62170  -0.62146  -0.60286  -0.60206
 Alpha  occ. eigenvalues --   -0.59664  -0.59656  -0.58843  -0.58825  -0.58345
 Alpha  occ. eigenvalues --   -0.58278  -0.57446  -0.57419  -0.57148  -0.57086
 Alpha  occ. eigenvalues --   -0.56152  -0.56057  -0.55866  -0.55768  -0.55377
 Alpha  occ. eigenvalues --   -0.55336  -0.55173  -0.55082  -0.54369  -0.54320
 Alpha  occ. eigenvalues --   -0.53790  -0.53759  -0.53145  -0.53089  -0.53081
 Alpha  occ. eigenvalues --   -0.53010  -0.52773  -0.52768  -0.52624  -0.52570
 Alpha  occ. eigenvalues --   -0.52212  -0.52151  -0.51724  -0.51697  -0.51543
 Alpha  occ. eigenvalues --   -0.51483  -0.51042  -0.51031  -0.50435  -0.50367
 Alpha  occ. eigenvalues --   -0.49853  -0.49848  -0.49773  -0.49687  -0.49380
 Alpha  occ. eigenvalues --   -0.49374  -0.49076  -0.49067  -0.48968  -0.48955
 Alpha  occ. eigenvalues --   -0.48451  -0.48428  -0.48317  -0.48295  -0.48236
 Alpha  occ. eigenvalues --   -0.48218  -0.47546  -0.47460  -0.47148  -0.46988
 Alpha  occ. eigenvalues --   -0.46625  -0.46549  -0.46428  -0.46422  -0.46192
 Alpha  occ. eigenvalues --   -0.46113  -0.45999  -0.45931  -0.45672  -0.45669
 Alpha  occ. eigenvalues --   -0.45044  -0.45030  -0.44430  -0.44390  -0.44354
 Alpha  occ. eigenvalues --   -0.44323  -0.44002  -0.43981  -0.43938  -0.43892
 Alpha  occ. eigenvalues --   -0.43874  -0.43824  -0.43408  -0.43354  -0.43250
 Alpha  occ. eigenvalues --   -0.43230  -0.42869  -0.42805  -0.42754  -0.42585
 Alpha  occ. eigenvalues --   -0.42460  -0.42368  -0.41822  -0.41768  -0.41547
 Alpha  occ. eigenvalues --   -0.41523  -0.41391  -0.41310  -0.40990  -0.40852
 Alpha  occ. eigenvalues --   -0.40723  -0.40688  -0.40626  -0.40556  -0.40389
 Alpha  occ. eigenvalues --   -0.40307  -0.40123  -0.40112  -0.39214  -0.39184
 Alpha  occ. eigenvalues --   -0.38293  -0.38183  -0.37619  -0.37534  -0.37143
 Alpha  occ. eigenvalues --   -0.37119  -0.37100  -0.37063  -0.36646  -0.36591
 Alpha  occ. eigenvalues --   -0.36062  -0.36042  -0.34118  -0.34101  -0.33741
 Alpha  occ. eigenvalues --   -0.33660  -0.33023  -0.33022  -0.31222  -0.31185
 Alpha  occ. eigenvalues --   -0.30876  -0.30829  -0.29874  -0.29810  -0.29289
 Alpha  occ. eigenvalues --   -0.29189  -0.29150  -0.29054  -0.23914  -0.23883
 Alpha  occ. eigenvalues --   -0.20964  -0.20958
 Alpha virt. eigenvalues --   -0.08644  -0.08610  -0.01585  -0.01536   0.00087
 Alpha virt. eigenvalues --    0.00090   0.02359   0.02365   0.03272   0.03476
 Alpha virt. eigenvalues --    0.04865   0.04867   0.05207   0.05283   0.06284

 Mulliken charges:
               1
     1  Mg   0.839393
     2  C   -0.003184
     3  C   -0.094023
     4  C   -0.045957
     5  C   -0.063245
     6  N   -0.256759
     7  C   -0.052429
     8  C   -0.014121
     9  C   -0.087016
    10  C    0.046250
    11  C    0.104885
    12  C    0.053462
    13  C   -0.071358
    14  H    0.034766
    15  N   -0.432992
    16  C    0.168401
    17  C   -0.177200
    18  C   -0.004291
    19  C    0.148659
    20  C    0.110190
    21  C    0.011945
    22  O   -0.250297
    23  C    0.062540
    24  N   -0.341247
    25  C    0.041322
    26  C   -0.027912
    27  C   -0.024114
    28  C    0.075165
    29  C    0.076356
    30  C    0.034962
    31  C   -0.004752
    32  N   -0.310662
    33  C    0.080977
    34  C   -0.168521
    35  C    0.008325
    36  C    0.083510
    37  C    0.127106
    38  C    0.046413
    39  O   -0.188455
    40  C   -0.005541
    41  C    0.212981
    42  O   -0.257431
    43  O   -0.304658
    44  C    0.158047
    45  H   -0.017953
    46  H   -0.017315
    47  H   -0.040804
    48  H    0.000655
    49  H   -0.004094
    50  H    0.025296
    51  H    0.016428
    52  H    0.016361
    53  H    0.011850
    54  H    0.043664
    55  H    0.017792
    56  H    0.018270
    57  H    0.005854
    58  H    0.026269
    59  H    0.039720
    60  H    0.037365
    61  H    0.034559
    62  H    0.031566
    63  H    0.016303
    64  H    0.009135
    65  H    0.022630
    66  H    0.012228
    67  H    0.004578
    68  H    0.005491
    69  H    0.005476
    70  H    0.007323
    71  H    0.021810
    72  H    0.029313
    73  H    0.048586
    74  H    0.009995
    75  H    0.045484
    76  H    0.034923
    77  H    0.042879
    78  H    0.046221
    79  H    0.052657
    80  Mg   0.838448
    81  C   -0.017028
    82  C   -0.087911
    83  C   -0.045683
    84  C   -0.063929
    85  N   -0.254548
    86  C   -0.049773
    87  C   -0.015131
    88  C   -0.090476
    89  C    0.045637
    90  C    0.114477
    91  C    0.062544
    92  C   -0.077609
    93  H    0.034202
    94  N   -0.423322
    95  C    0.162784
    96  C   -0.174881
    97  C   -0.008269
    98  C    0.152001
    99  C    0.099438
   100  C    0.015020
   101  O   -0.254149
   102  C    0.061381
   103  N   -0.350226
   104  C    0.037648
   105  C   -0.019470
   106  C   -0.034969
   107  C    0.089420
   108  C    0.073947
   109  C    0.034565
   110  C   -0.008635
   111  N   -0.324381
   112  C    0.079276
   113  C   -0.161633
   114  C    0.002192
   115  C    0.096819
   116  C    0.131271
   117  C    0.042796
   118  O   -0.187721
   119  C    0.000705
   120  C    0.211288
   121  O   -0.250906
   122  O   -0.305659
   123  C    0.152242
   124  H   -0.020137
   125  H   -0.016277
   126  H   -0.039400
   127  H   -0.000882
   128  H   -0.004527
   129  H    0.022285
   130  H    0.014352
   131  H    0.015910
   132  H    0.014219
   133  H    0.037603
   134  H    0.020637
   135  H    0.019619
   136  H    0.008659
   137  H    0.025511
   138  H    0.039522
   139  H    0.038323
   140  H    0.034990
   141  H    0.033755
   142  H    0.013946
   143  H    0.011919
   144  H    0.024237
   145  H    0.011249
   146  H    0.005444
   147  H    0.004692
   148  H    0.004751
   149  H    0.008342
   150  H    0.025056
   151  H    0.030174
   152  H    0.047259
   153  H    0.009792
   154  H    0.046290
   155  H    0.034724
   156  H    0.043737
   157  H    0.049277
   158  H    0.053158
 Sum of Mulliken charges =  -0.00000

 Dipole moment (field-independent basis, Debye):
    X=              0.0130    Y=             -0.5411    Z=              7.0132  Tot=              7.0341
 Quadrupole moment (field-independent basis, Debye-Ang):
   XX=           -460.9355   YY=           -470.5916   ZZ=           -539.1532
   XY=             27.5994   XZ=             -0.9386   YZ=              8.6005

 Normal termination of Gaussian 16 at Fri Sep 10 12:55:57 2021.
