 Gaussian 16, Revision A.03,
 Gaussian 16:  ES64L-G16RevA.03 25-Dec-2016

 -----------------------------------
 #p cam-b3lyp/Def2SVP td=(nstates=5)
 -----------------------------------

 --------------------------------
 TDDFT excited states in gaussian
 --------------------------------
 Symbolic Z-matrix:
 Charge =  0 Multiplicity = 1

                         Standard orientation:
 ---------------------------------------------------------------------
 Center     Atomic      Atomic             Coordinates (Angstroms)
 Number     Number       Type             X           Y           Z
 ---------------------------------------------------------------------
      1         12           0       -5.305347   -0.368655    0.268815
      2          6           0       -5.211605    3.189071    0.650929
      3          6           0       -6.282993    0.152924   -2.958448
      4          6           0       -5.833601   -3.487133    0.039334
      5          6           0       -5.434264   -0.590616    3.744412
      6          7           0       -5.664741    1.482421   -0.890926
      7          6           0       -5.535208    2.782473   -0.645452
      8          6           0       -5.701708    3.670470   -1.914748
      9          6           0       -6.574624    2.676441   -2.804648
     10          6           0       -6.122257    1.355380   -2.207919
     11          6           0       -8.077137    2.824502   -2.587772
     12          6           0       -4.330333    3.995725   -2.596855
     13          6           0       -4.369307    5.114997   -3.641395
     14          1           0       -3.224129    6.005265   -3.756887
     15          7           0       -5.485461   -1.523805   -1.323679
     16          6           0       -5.879798   -1.140501   -2.561767
     17          6           0       -5.851987   -2.361986   -3.394762
     18          6           0       -5.592583   -3.520327   -2.495290
     19          6           0       -5.653674   -2.885065   -1.203745
     20          6           0       -6.010218   -2.345967   -4.884211
     21          6           0       -5.341527   -4.971647   -2.757538
     22          8           0       -5.370622   -5.846232   -1.825429
     23          6           0       -5.145558   -5.360431   -4.165901
     24          7           0       -5.814723   -1.829544    1.670234
     25          6           0       -5.925945   -3.114974    1.317699
     26          6           0       -6.015750   -4.005467    2.521400
     27          6           0       -5.697142   -3.078407    3.781877
     28          6           0       -5.551905   -1.722906    3.047170
     29          6           0       -7.362785   -4.710076    2.733617
     30          6           0       -4.551561   -3.535651    4.719422
     31          6           0       -3.227649   -3.444881    3.994083
     32          7           0       -5.144013    1.014300    1.933883
     33          6           0       -5.250197    0.707398    3.298145
     34          6           0       -5.182142    1.983041    4.034467
     35          6           0       -5.056939    2.951134    3.040000
     36          6           0       -5.073781    2.322460    1.762199
     37          6           0       -5.294773    2.138538    5.444279
     38          6           0       -4.937615    4.372559    2.758629
     39          8           0       -4.778610    5.382280    3.446142
     40          6           0       -5.155481    4.594202    1.196824
     41          6           0       -4.054416    5.495141    0.707668
     42          8           0       -2.867953    5.108377    0.698440
     43          8           0       -4.591760    6.570257    0.111070
     44          6           0       -3.552984    7.490920   -0.423231
     45          1           0       -6.817949    0.191781   -3.909371
     46          1           0       -5.908543   -4.576192    0.011526
     47          1           0       -5.383062   -0.588759    4.834746
     48          1           0       -6.247287    4.599928   -1.750807
     49          1           0       -6.302986    2.728880   -3.858775
     50          1           0       -8.295654    3.500503   -1.761216
     51          1           0       -8.439304    1.820750   -2.364592
     52          1           0       -8.574091    3.123997   -3.510874
     53          1           0       -4.037438    3.159562   -3.231760
     54          1           0       -3.572350    4.227779   -1.847896
     55          1           0       -5.294186    5.688826   -3.576369
     56          1           0       -4.402967    4.658090   -4.630487
     57          1           0       -6.351523   -1.374744   -5.240275
     58          1           0       -6.827145   -3.025955   -5.124948
     59          1           0       -5.102751   -2.665541   -5.396763
     60          1           0       -6.028659   -5.083269   -4.741975
     61          1           0       -4.890252   -6.419438   -4.152775
     62          1           0       -4.316860   -4.784691   -4.579100
     63          1           0       -5.278850   -4.806034    2.471430
     64          1           0       -6.557885   -2.977549    4.443408
     65          1           0       -7.285226   -5.796310    2.786386
     66          1           0       -8.033155   -4.404420    1.930828
     67          1           0       -7.915795   -4.383453    3.613909
     68          1           0       -4.689376   -4.577616    5.006233
     69          1           0       -4.482635   -2.946294    5.633839
     70          1           0       -3.188200   -4.382738    3.441181
     71          1           0       -2.406371   -3.377939    4.708388
     72          1           0       -3.228649   -2.635718    3.263508
     73          1           0       -4.524546    2.852875    5.734867
     74          1           0       -5.166720    1.186626    5.959128
     75          1           0       -6.311379    2.523172    5.524430
     76          1           0       -6.138832    5.048319    1.078833
     77          1           0       -3.737969    8.472060    0.014240
     78          1           0       -3.592335    7.405617   -1.509315
     79          1           0       -2.530125    7.307595   -0.092335
     80         12           0        5.241469   -1.198015   -0.197209
     81          6           0        5.955820    2.303140    0.135516
     82          6           0        3.735282   -0.456012   -3.166290
     83          6           0        4.204565   -4.194733   -0.306460
     84          6           0        5.762268   -1.488764    3.236434
     85          7           0        4.948034    0.713600   -1.270463
     86          6           0        5.316581    1.971035   -1.077133
     87          6           0        5.053070    2.911297   -2.283792
     88          6           0        3.868868    2.080874   -2.981603
     89          6           0        4.218712    0.683290   -2.474631
     90          6           0        2.489079    2.446571   -2.460251
     91          6           0        6.300335    3.036504   -3.227542
     92          6           0        6.221496    4.172078   -4.250285
     93          1           0        7.449958    4.879413   -4.601039
     94          7           0        4.574596   -2.271252   -1.727579
     95          6           0        4.013119   -1.807137   -2.863635
     96          6           0        3.675328   -2.996641   -3.660573
     97          6           0        3.932689   -4.205361   -2.831418
     98          6           0        4.234126   -3.589833   -1.554563
     99          6           0        3.238238   -2.918153   -5.094530
    100          6           0        3.898957   -5.672845   -3.133970
    101          8           0        3.923879   -6.553106   -2.202652
    102          6           0        3.741728   -6.047468   -4.546916
    103          7           0        4.807501   -2.594600    1.280472
    104          6           0        4.423903   -3.842989    0.960607
    105          6           0        4.435280   -4.744412    2.172099
    106          6           0        5.141480   -3.898021    3.330756
    107          6           0        5.344782   -2.563134    2.580999
    108          6           0        3.067650   -5.226286    2.655594
    109          6           0        6.367324   -4.547504    4.029429
    110          6           0        7.519378   -4.654144    3.056388
    111          7           0        5.941545    0.096204    1.384852
    112          6           0        6.057915   -0.219315    2.756346
    113          6           0        6.467059    1.016787    3.454268
    114          6           0        6.538562    1.978892    2.435570
    115          6           0        6.178455    1.389191    1.193769
    116          6           0        6.671241    1.151700    4.856490
    117          6           0        6.826506    3.361800    2.130050
    118          8           0        7.264993    4.318978    2.766656
    119          6           0        6.339591    3.663754    0.647433
    120          6           0        7.444925    4.394175   -0.064775
    121          8           0        8.529897    3.830973   -0.293395
    122          8           0        6.966027    5.554906   -0.548216
    123          6           0        8.022577    6.310345   -1.272668
    124          1           0        3.043016   -0.304786   -3.995014
    125          1           0        3.959909   -5.259450   -0.304209
    126          1           0        6.040027   -1.520286    4.292150
    127          1           0        4.706129    3.903066   -2.019582
    128          1           0        3.942315    2.122867   -4.065210
    129          1           0        2.542095    3.122528   -1.619770
    130          1           0        2.028685    1.512481   -2.166071
    131          1           0        1.872651    2.844016   -3.271660
    132          1           0        6.324056    2.173968   -3.905941
    133          1           0        7.203268    3.127322   -2.655625
    134          1           0        5.421793    4.884614   -4.014231
    135          1           0        5.928749    3.750549   -5.214976
    136          1           0        2.981522   -1.890851   -5.381135
    137          1           0        2.292681   -3.465825   -5.171021
    138          1           0        3.961559   -3.364331   -5.780380
    139          1           0        2.819457   -5.620224   -4.933333
    140          1           0        3.829797   -7.135349   -4.572356
    141          1           0        4.560701   -5.599645   -5.120806
    142          1           0        5.018387   -5.637572    1.984089
    143          1           0        4.451463   -3.689838    4.161643
    144          1           0        2.982979   -6.328633    2.697293
    145          1           0        2.309737   -4.811051    2.004676
    146          1           0        2.764505   -4.851421    3.631692
    147          1           0        6.129081   -5.567361    4.341330
    148          1           0        6.696652   -4.009438    4.912051
    149          1           0        7.296377   -5.575422    2.509936
    150          1           0        8.465048   -4.730353    3.589237
    151          1           0        7.501903   -3.829901    2.333914
    152          1           0        7.576685    1.729749    4.985077
    153          1           0        6.745835    0.181178    5.342592
    154          1           0        5.757066    1.681893    5.136574
    155          1           0        5.431020    4.263150    0.716686
    156          1           0        8.079139    7.301619   -0.812378
    157          1           0        7.741346    6.266654   -2.341658
    158          1           0        9.045516    5.968856   -1.165793
 ---------------------------------------------------------------------

 SCF Done:  E(RCAM-B3LYP) =  -4069.81147503     A.U. after   19 cycles

 Excitation energies and oscillator strengths:

 Excited State   1:      Singlet-A      1.6566 eV  748.44 nm  f=0.0164  <S**2>=0.000
     309 -> 315       -0.11305
     310 -> 316        0.12566
     311 -> 313       -0.45759
     312 -> 314        0.51267
 This state for optimization and/or second-order correction.
 Total Energy, E(TD-HF/TD-DFT) =  -4069.75059711
 Copying the excited state density for this state as the 1-particle RhoCI density.

 Excited State   2:      Singlet-A      1.6963 eV  730.89 nm  f=0.7076  <S**2>=0.000
     309 -> 315        0.13446
     310 -> 316        0.11894
     311 -> 313        0.51072
     312 -> 314        0.45592

 Excited State   3:      Singlet-A      2.1824 eV  568.11 nm  f=0.0236  <S**2>=0.000
     309 -> 313       -0.26739
     310 -> 314        0.58613
     311 -> 315        0.11134
     312 -> 316       -0.24554

 Excited State   4:      Singlet-A      2.1946 eV  564.95 nm  f=0.1578  <S**2>=0.000
     309 -> 313        0.58228
     310 -> 314        0.26416
     311 -> 315       -0.25538
     312 -> 316       -0.11674

 Excited State   5:      Singlet-A      2.4751 eV  500.94 nm  f=0.0000  <S**2>=0.000
     312 -> 313        0.70706

 The electronic state is 1-A.
 Alpha  occ. eigenvalues --  -46.87914 -46.87497 -19.26417 -19.26191 -19.19156
 Alpha  occ. eigenvalues --  -19.19003 -19.18911 -19.18589 -19.18270 -19.17873
 Alpha  occ. eigenvalues --  -14.42574 -14.42329 -14.41561 -14.41200 -14.39519
 Alpha  occ. eigenvalues --  -14.39195 -14.38700 -14.38433 -10.39213 -10.38928
 Alpha  occ. eigenvalues --  -10.35546 -10.35270 -10.34493 -10.34047 -10.31815
 Alpha  occ. eigenvalues --  -10.31620 -10.31531 -10.31133 -10.31042 -10.30862
 Alpha  occ. eigenvalues --  -10.30688 -10.30614 -10.30316 -10.30236 -10.30198
 Alpha  occ. eigenvalues --  -10.30020 -10.29998 -10.29742 -10.29731 -10.29369
 Alpha  occ. eigenvalues --  -10.29287 -10.29250 -10.28913 -10.28773 -10.28549
 Alpha  occ. eigenvalues --  -10.28539 -10.28483 -10.28267 -10.28242 -10.27942
 Alpha  occ. eigenvalues --  -10.27904 -10.27851 -10.27842 -10.27699 -10.27634
 Alpha  occ. eigenvalues --  -10.27588 -10.27529 -10.27523 -10.27512 -10.27401
 Alpha  occ. eigenvalues --  -10.27388 -10.27321 -10.27316 -10.27275 -10.27239
 Alpha  occ. eigenvalues --  -10.26923 -10.26856 -10.26557 -10.26526 -10.26365
 Alpha  occ. eigenvalues --  -10.26337 -10.26265 -10.26129 -10.26028 -10.25925
 Alpha  occ. eigenvalues --  -10.25782 -10.25733 -10.25676 -10.25504 -10.25261
 Alpha  occ. eigenvalues --  -10.24942 -10.24893 -10.24769 -10.24707 -10.24625
 Alpha  occ. eigenvalues --  -10.24530  -3.16657  -3.16247  -1.91538  -1.91129
 Alpha  occ. eigenvalues --   -1.91125  -1.90967  -1.90718  -1.90555  -1.16766
 Alpha  occ. eigenvalues --   -1.16485  -1.08728  -1.08477  -1.07309  -1.06842
 Alpha  occ. eigenvalues --   -1.06787  -1.06776  -1.04706  -1.04327  -1.03874
 Alpha  occ. eigenvalues --   -1.03502  -1.03346  -1.02880  -1.02524  -1.01950
 Alpha  occ. eigenvalues --   -0.92089  -0.91815  -0.89620  -0.89349  -0.89343
 Alpha  occ. eigenvalues --   -0.88968  -0.88384  -0.88079  -0.87975  -0.87802
 Alpha  occ. eigenvalues --   -0.87628  -0.87528  -0.87395  -0.87000  -0.85130
 Alpha  occ. eigenvalues --   -0.84836  -0.84030  -0.83739  -0.83078  -0.82821
 Alpha  occ. eigenvalues --   -0.82783  -0.82498  -0.81709  -0.81440  -0.80718
 Alpha  occ. eigenvalues --   -0.80290  -0.78916  -0.78498  -0.77343  -0.77067
 Alpha  occ. eigenvalues --   -0.76993  -0.76741  -0.76052  -0.75664  -0.74997
 Alpha  occ. eigenvalues --   -0.74656  -0.72886  -0.72540  -0.71787  -0.71412
 Alpha  occ. eigenvalues --   -0.69999  -0.69627  -0.69012  -0.68668  -0.67757
 Alpha  occ. eigenvalues --   -0.67451  -0.67379  -0.67065  -0.65431  -0.65106
 Alpha  occ. eigenvalues --   -0.64971  -0.64744  -0.64613  -0.64497  -0.64371
 Alpha  occ. eigenvalues --   -0.64060  -0.62418  -0.62124  -0.60555  -0.60208
 Alpha  occ. eigenvalues --   -0.59944  -0.59622  -0.59101  -0.58835  -0.58617
 Alpha  occ. eigenvalues --   -0.58269  -0.57702  -0.57416  -0.57381  -0.57090
 Alpha  occ. eigenvalues --   -0.56426  -0.56113  -0.56055  -0.55737  -0.55637
 Alpha  occ. eigenvalues --   -0.55441  -0.55310  -0.55100  -0.54633  -0.54343
 Alpha  occ. eigenvalues --   -0.54050  -0.53738  -0.53412  -0.53357  -0.53084
 Alpha  occ. eigenvalues --   -0.53038  -0.52991  -0.52889  -0.52751  -0.52542
 Alpha  occ. eigenvalues --   -0.52530  -0.52277  -0.52011  -0.51765  -0.51714
 Alpha  occ. eigenvalues --   -0.51509  -0.51310  -0.51044  -0.50701  -0.50374
 Alpha  occ. eigenvalues --   -0.50137  -0.50038  -0.49828  -0.49730  -0.49645
 Alpha  occ. eigenvalues --   -0.49339  -0.49335  -0.49230  -0.49041  -0.48919
 Alpha  occ. eigenvalues --   -0.48713  -0.48561  -0.48552  -0.48393  -0.48235
 Alpha  occ. eigenvalues --   -0.48203  -0.47819  -0.47450  -0.47413  -0.46986
 Alpha  occ. eigenvalues --   -0.46914  -0.46705  -0.46558  -0.46471  -0.46394
 Alpha  occ. eigenvalues --   -0.46268  -0.46128  -0.45936  -0.45931  -0.45657
 Alpha  occ. eigenvalues --   -0.45298  -0.45062  -0.44692  -0.44634  -0.44355
 Alpha  occ. eigenvalues --   -0.44320  -0.44255  -0.44225  -0.44136  -0.43953
 Alpha  occ. eigenvalues --   -0.43945  -0.43797  -0.43612  -0.43513  -0.43399
 Alpha  occ. eigenvalues --   -0.43225  -0.43141  -0.42818  -0.42777  -0.42757
 Alpha  occ. eigenvalues --   -0.42739  -0.42418  -0.42124  -0.41822  -0.41819
 Alpha  occ. eigenvalues --   -0.41680  -0.41501  -0.41306  -0.41260  -0.41007
 Alpha  occ. eigenvalues --   -0.40944  -0.40817  -0.40674  -0.40592  -0.40549
 Alpha  occ. eigenvalues --   -0.40417  -0.40344  -0.40087  -0.39532  -0.39299
 Alpha  occ. eigenvalues --   -0.38577  -0.38207  -0.37921  -0.37511  -0.37427
 Alpha  occ. eigenvalues --   -0.37409  -0.37118  -0.37039  -0.36836  -0.36619
 Alpha  occ. eigenvalues --   -0.36311  -0.36065  -0.34401  -0.34091  -0.33903
 Alpha  occ. eigenvalues --   -0.33703  -0.33302  -0.33016  -0.31440  -0.31151
 Alpha  occ. eigenvalues --   -0.31146  -0.30810  -0.30130  -0.29775  -0.29562
 Alpha  occ. eigenvalues --   -0.29431  -0.29181  -0.29045  -0.24197  -0.23871
 Alpha  occ. eigenvalues --   -0.21243  -0.20958
 Alpha virt. eigenvalues --   -0.08888  -0.08635  -0.01862  -0.01527  -0.00173
 Alpha virt. eigenvalues --    0.00118   0.02096   0.02376   0.02979   0.03375
 Alpha virt. eigenvalues --    0.04577   0.04894   0.04967   0.05329   0.05993

 Mulliken charges:
               1
     1  Mg   0.838493
     2  C   -0.003275
     3  C   -0.095003
     4  C   -0.045382
     5  C   -0.063709
     6  N   -0.256720
     7  C   -0.052773
     8  C   -0.013844
     9  C   -0.086872
    10  C    0.046010
    11  C    0.104782
    12  C    0.053785
    13  C   -0.071398
    14  H    0.034799
    15  N   -0.433145
    16  C    0.168181
    17  C   -0.177750
    18  C   -0.003935
    19  C    0.148764
    20  C    0.110316
    21  C    0.012630
    22  O   -0.248687
    23  C    0.062633
    24  N   -0.341092
    25  C    0.041171
    26  C   -0.028315
    27  C   -0.024050
    28  C    0.074885
    29  C    0.076053
    30  C    0.035056
    31  C   -0.004568
    32  N   -0.310537
    33  C    0.080495
    34  C   -0.169389
    35  C    0.008568
    36  C    0.083039
    37  C    0.127236
    38  C    0.046334
    39  O   -0.187794
    40  C   -0.005445
    41  C    0.213113
    42  O   -0.257611
    43  O   -0.304661
    44  C    0.157576
    45  H   -0.017739
    46  H   -0.016325
    47  H   -0.041172
    48  H    0.001254
    49  H   -0.004657
    50  H    0.025717
    51  H    0.016731
    52  H    0.016679
    53  H    0.009852
    54  H    0.043644
    55  H    0.018737
    56  H    0.017394
    57  H    0.005539
    58  H    0.027198
    59  H    0.038189
    60  H    0.037284
    61  H    0.036408
    62  H    0.030147
    63  H    0.017085
    64  H    0.009671
    65  H    0.023594
    66  H    0.012529
    67  H    0.004883
    68  H    0.006638
    69  H    0.004735
    70  H    0.009470
    71  H    0.017514
    72  H    0.029021
    73  H    0.048045
    74  H    0.009255
    75  H    0.046247
    76  H    0.035360
    77  H    0.043654
    78  H    0.045843
    79  H    0.053608
    80  Mg   0.838319
    81  C   -0.016514
    82  C   -0.087857
    83  C   -0.045427
    84  C   -0.064737
    85  N   -0.254641
    86  C   -0.048736
    87  C   -0.015165
    88  C   -0.090929
    89  C    0.046334
    90  C    0.114659
    91  C    0.062615
    92  C   -0.077440
    93  H    0.034199
    94  N   -0.423449
    95  C    0.162972
    96  C   -0.175168
    97  C   -0.007911
    98  C    0.151967
    99  C    0.099833
   100  C    0.015501
   101  O   -0.253077
   102  C    0.061407
   103  N   -0.349907
   104  C    0.037443
   105  C   -0.019776
   106  C   -0.034793
   107  C    0.089091
   108  C    0.073740
   109  C    0.034773
   110  C   -0.007591
   111  N   -0.324291
   112  C    0.078902
   113  C   -0.162736
   114  C    0.002866
   115  C    0.096322
   116  C    0.131246
   117  C    0.043002
   118  O   -0.187538
   119  C    0.000580
   120  C    0.211033
   121  O   -0.251510
   122  O   -0.305185
   123  C    0.152229
   124  H   -0.020706
   125  H   -0.015638
   126  H   -0.040637
   127  H    0.000149
   128  H   -0.005716
   129  H    0.026407
   130  H    0.014887
   131  H    0.014820
   132  H    0.013462
   133  H    0.037518
   134  H    0.020860
   135  H    0.018889
   136  H    0.007913
   137  H    0.024613
   138  H    0.039197
   139  H    0.037397
   140  H    0.036179
   141  H    0.033544
   142  H    0.014095
   143  H    0.012256
   144  H    0.024855
   145  H    0.012457
   146  H    0.004971
   147  H    0.005897
   148  H    0.003509
   149  H    0.010799
   150  H    0.017638
   151  H    0.030259
   152  H    0.045745
   153  H    0.008045
   154  H    0.048283
   155  H    0.037201
   156  H    0.043861
   157  H    0.049105
   158  H    0.053234
 Sum of Mulliken charges =  -0.00000

 Dipole moment (field-independent basis, Debye):
    X=             -5.3654    Y=             -1.1877    Z=             -6.8326  Tot=              8.7683
 Quadrupole moment (field-independent basis, Debye-Ang):
   XX=           -529.7082   YY=           -542.9772   ZZ=           -453.5346
   XY=            -13.0573   XZ=              4.4922   YZ=            -51.7969

 Normal termination of Gaussian 16 at Fri Sep 10 11:50:10 2021.
