 Gaussian 16, Revision A.03,
 Gaussian 16:  ES64L-G16RevA.03 25-Dec-2016

 -----------------------------------
 #p cam-b3lyp/Def2SVP td=(nstates=5)
 -----------------------------------

 --------------------------------
 TDDFT excited states in gaussian
 --------------------------------
 Symbolic Z-matrix:
 Charge =  0 Multiplicity = 1

                         Standard orientation:
 ---------------------------------------------------------------------
 Center     Atomic      Atomic             Coordinates (Angstroms)
 Number     Number       Type             X           Y           Z
 ---------------------------------------------------------------------
      1         12           0        5.233043   -1.176926   -0.368410
      2          6           0        5.952006    2.271951   -1.001304
      3          6           0        6.633797   -0.749469    2.713511
      4          6           0        5.022752   -4.314378    0.042439
      5          6           0        4.946761   -1.597330   -3.816157
      6          7           0        6.141129    0.585674    0.616104
      7          6           0        6.300948    1.863957    0.288047
      8          6           0        6.804266    2.746636    1.469115
      9          6           0        7.501651    1.615117    2.349635
     10          6           0        6.688204    0.416664    1.893631
     11          6           0        8.965549    1.380143    1.991455
     12          6           0        5.627824    3.431146    2.243169
     13          6           0        6.040038    4.557720    3.195148
     14          1           0        5.158493    5.705672    3.344930
     15          7           0        5.295316   -2.259854    1.282723
     16          6           0        5.895021   -1.923175    2.449894
     17          6           0        5.662492   -3.057492    3.369642
     18          6           0        5.043034   -4.160723    2.583991
     19          6           0        5.120627   -3.625155    1.248879
     20          6           0        5.972450   -3.006140    4.834237
     21          6           0        4.481337   -5.491558    2.973229
     22          8           0        4.204808   -6.392215    2.108981
     23          6           0        4.344333   -5.749618    4.418108
     24          7           0        5.232098   -2.786278   -1.697929
     25          6           0        5.069107   -4.040566   -1.262982
     26          6           0        4.819447   -4.985067   -2.401195
     27          6           0        4.603200   -4.072517   -3.693573
     28          6           0        4.861994   -2.687646   -3.050590
     29          6           0        5.930252   -6.007450   -2.678425
     30          6           0        3.291358   -4.282011   -4.490820
     31          6           0        2.109254   -3.834006   -3.660746
     32          7           0        5.235786    0.118368   -2.110033
     33          6           0        5.124648   -0.273064   -3.452085
     34          6           0        5.287476    0.941982   -4.271364
     35          6           0        5.499928    1.959813   -3.343609
     36          6           0        5.497749    1.410876   -2.029473
     37          6           0        5.288196    0.994452   -5.693222
     38          6           0        5.752802    3.379496   -3.158102
     39          8           0        5.769384    4.361728   -3.901364
     40          6           0        6.176854    3.618996   -1.641973
     41          6           0        5.378922    4.785191   -1.125638
     42          8           0        4.141889    4.701327   -0.983929
     43          8           0        6.215735    5.724695   -0.659143
     44          6           0        5.487306    6.897015   -0.104877
     45          1           0        7.257545   -0.795095    3.608384
     46          1           0        4.838148   -5.385890    0.143541
     47          1           0        4.785510   -1.637576   -4.894967
     48          1           0        7.535981    3.505018    1.190056
     49          1           0        7.360378    1.785089    3.416815
     50          1           0        9.252750    1.939926    1.101467
     51          1           0        9.052818    0.308424    1.811744
     52          1           0        9.611922    1.594804    2.842866
     53          1           0        5.210857    2.724872    2.961066
     54          1           0        4.874138    3.803761    1.548588
     55          1           0        7.063359    4.883913    3.007211
     56          1           0        6.065357    4.156548    4.208371
     57          1           0        6.570408   -2.131330    5.086620
     58          1           0        6.623864   -3.852357    5.051690
     59          1           0        5.072678   -3.067991    5.446542
     60          1           0        5.322533   -5.668395    4.892530
     61          1           0        3.843782   -6.713305    4.505316
     62          1           0        3.724004   -4.968742    4.858988
     63          1           0        3.922001   -5.577549   -2.228042
     64          1           0        5.390333   -4.218485   -4.433701
     65          1           0        5.590765   -7.042961   -2.644196
     66          1           0        6.733167   -5.835259   -1.962206
     67          1           0        6.451567   -5.870483   -3.625467
     68          1           0        3.146313   -5.339044   -4.711247
     69          1           0        3.271272   -3.740220   -5.436499
     70          1           0        1.904322   -4.704847   -3.039079
     71          1           0        1.258621   -3.604059   -4.303209
     72          1           0        2.378487   -3.014146   -2.994541
     73          1           0        4.684942    1.860014   -5.966821
     74          1           0        4.884426    0.078236   -6.123478
     75          1           0        6.353398    1.114249   -5.890327
     76          1           0        7.246919    3.824125   -1.644427
     77          1           0        5.854984    7.779949   -0.627825
     78          1           0        5.616766    6.859142    0.976886
     79          1           0        4.421779    6.953110   -0.330365
     80         12           0       -5.093296    0.609768    1.069580
     81          6           0       -6.413916    0.195906   -2.241571
     82          6           0       -6.861869   -2.167378    1.960778
     83          6           0       -4.311642    1.201857    4.087177
     84          6           0       -4.378767    3.913731    0.221669
     85          7           0       -6.428242   -0.726696   -0.081104
     86          6           0       -6.806551   -0.821359   -1.346907
     87          6           0       -7.586304   -2.119033   -1.689819
     88          6           0       -8.141017   -2.461207   -0.222144
     89          6           0       -7.061898   -1.775226    0.613075
     90          6           0       -9.474878   -1.801513    0.086010
     91          6           0       -6.648061   -3.255419   -2.228647
     92          6           0       -7.374918   -4.438531   -2.871825
     93          1           0       -6.752183   -5.099771   -4.015257
     94          7           0       -5.111963   -0.579629    2.658159
     95          6           0       -5.875533   -1.676704    2.844358
     96          6           0       -5.530069   -2.185209    4.180865
     97          6           0       -4.620826   -1.205354    4.834972
     98          6           0       -4.663746   -0.122732    3.872594
     99          6           0       -5.987973   -3.522577    4.686047
    100          6           0       -3.851424   -1.232347    6.120853
    101          8           0       -3.313321   -0.174977    6.605884
    102          6           0       -3.825664   -2.512910    6.842650
    103          7           0       -4.634458    2.362424    2.089379
    104          6           0       -4.278098    2.334981    3.385595
    105          6           0       -3.729851    3.670351    3.828979
    106          6           0       -3.566463    4.532943    2.492257
    107          6           0       -4.158222    3.534754    1.473036
    108          6           0       -4.588158    4.442376    4.830811
    109          6           0       -2.162034    5.133052    2.209182
    110          6           0       -1.176550    4.024603    1.916665
    111          7           0       -5.166806    1.804723   -0.728948
    112          6           0       -4.848050    3.174464   -0.856583
    113          6           0       -5.163131    3.567204   -2.245440
    114          6           0       -5.668931    2.395124   -2.827577
    115          6           0       -5.687951    1.351236   -1.863516
    116          6           0       -5.018092    4.872624   -2.794056
    117          6           0       -6.201017    1.806400   -4.035461
    118          8           0       -6.340164    2.184650   -5.197907
    119          6           0       -6.825223    0.389843   -3.674697
    120          6           0       -6.330520   -0.607036   -4.686633
    121          8           0       -5.123535   -0.900551   -4.746931
    122          8           0       -7.386029   -1.207519   -5.266050
    123          6           0       -6.946217   -2.213024   -6.269714
    124          1           0       -7.551471   -2.889508    2.398806
    125          1           0       -3.929279    1.432515    5.084209
    126          1           0       -4.092838    4.900634   -0.148394
    127          1           0       -8.412556   -1.984205   -2.377505
    128          1           0       -8.140782   -3.532684   -0.039682
    129          1           0       -9.773518   -1.114102   -0.691435
    130          1           0       -9.334171   -1.276454    1.021719
    131          1           0      -10.236214   -2.562714    0.279084
    132          1           0       -6.177022   -3.764328   -1.377831
    133          1           0       -5.925039   -2.859178   -2.914842
    134          1           0       -8.425977   -4.209592   -3.085846
    135          1           0       -7.420680   -5.253930   -2.145848
    136          1           0       -6.777812   -3.943321    4.051584
    137          1           0       -6.477623   -3.349522    5.650485
    138          1           0       -5.163015   -4.223711    4.829298
    139          1           0       -4.843614   -2.818246    7.072853
    140          1           0       -3.154031   -2.357716    7.689241
    141          1           0       -3.409332   -3.279762    6.179909
    142          1           0       -2.758276    3.554567    4.293454
    143          1           0       -4.227509    5.412057    2.491280
    144          1           0       -4.050275    4.692706    5.764664
    145          1           0       -5.471667    3.856271    5.046304
    146          1           0       -5.013279    5.371554    4.455168
    147          1           0       -1.788195    5.655408    3.093233
    148          1           0       -2.152815    5.842195    1.388191
    149          1           0       -0.874309    3.693382    2.914682
    150          1           0       -0.327263    4.405892    1.353301
    151          1           0       -1.670286    3.178859    1.424128
    152          1           0       -4.576801    4.751097   -3.774351
    153          1           0       -4.404443    5.505828   -2.156684
    154          1           0       -6.062674    5.194949   -2.809266
    155          1           0       -7.910610    0.494195   -3.699577
    156          1           0       -7.428824   -1.951596   -7.216509
    157          1           0       -7.194092   -3.198877   -5.833348
    158          1           0       -5.901312   -2.210398   -6.557139
 ---------------------------------------------------------------------

 SCF Done:  E(RCAM-B3LYP) =  -4069.81192227     A.U. after   19 cycles

 Excitation energies and oscillator strengths:

 Excited State   1:      Singlet-A      1.6564 eV  748.52 nm  f=0.0052  <S**2>=0.000
     309 -> 315       -0.11299
     310 -> 316        0.12564
     311 -> 314       -0.45790
     312 -> 313        0.51233
 This state for optimization and/or second-order correction.
 Total Energy, E(TD-HF/TD-DFT) =  -4069.75105109
 Copying the excited state density for this state as the 1-particle RhoCI density.

 Excited State   2:      Singlet-A      1.6955 eV  731.27 nm  f=0.7186  <S**2>=0.000
     309 -> 315        0.13387
     310 -> 316        0.11891
     311 -> 314        0.51048
     312 -> 313        0.45635

 Excited State   3:      Singlet-A      2.1830 eV  567.94 nm  f=0.0317  <S**2>=0.000
     309 -> 314        0.25078
     310 -> 313        0.59277
     311 -> 315       -0.10481
     312 -> 316       -0.24946

 Excited State   4:      Singlet-A      2.1934 eV  565.26 nm  f=0.1535  <S**2>=0.000
     309 -> 314        0.58969
     310 -> 313       -0.24829
     311 -> 315       -0.25749
     312 -> 316        0.10934

 Excited State   5:      Singlet-A      2.5855 eV  479.53 nm  f=0.0000  <S**2>=0.000
     311 -> 313        0.70709

 The electronic state is 1-A.
 Alpha  occ. eigenvalues --  -46.87634 -46.87501 -19.26245 -19.26219 -19.19045
 Alpha  occ. eigenvalues --  -19.18945 -19.18693 -19.18625 -19.18026 -19.17905
 Alpha  occ. eigenvalues --  -14.42347 -14.42295 -14.41285 -14.41195 -14.39244
 Alpha  occ. eigenvalues --  -14.39201 -14.38435 -14.38421 -10.38999 -10.38973
 Alpha  occ. eigenvalues --  -10.35329 -10.35307 -10.34248 -10.34082 -10.31673
 Alpha  occ. eigenvalues --  -10.31646 -10.31248 -10.31151 -10.30892 -10.30769
 Alpha  occ. eigenvalues --  -10.30404 -10.30345 -10.30237 -10.30194 -10.30041
 Alpha  occ. eigenvalues --  -10.29978 -10.29753 -10.29723 -10.29470 -10.29286
 Alpha  occ. eigenvalues --  -10.29245 -10.29094 -10.28631 -10.28600 -10.28564
 Alpha  occ. eigenvalues --  -10.28465 -10.28260 -10.28214 -10.28016 -10.27987
 Alpha  occ. eigenvalues --  -10.27847 -10.27633 -10.27570 -10.27518 -10.27429
 Alpha  occ. eigenvalues --  -10.27351 -10.27336 -10.27332 -10.27321 -10.27310
 Alpha  occ. eigenvalues --  -10.27309 -10.27279 -10.27255 -10.27204 -10.27036
 Alpha  occ. eigenvalues --  -10.26917 -10.26604 -10.26583 -10.26373 -10.26315
 Alpha  occ. eigenvalues --  -10.26113 -10.25940 -10.25913 -10.25843 -10.25837
 Alpha  occ. eigenvalues --  -10.25751 -10.25638 -10.25629 -10.25292 -10.25271
 Alpha  occ. eigenvalues --  -10.24717 -10.24673 -10.24631 -10.24538 -10.24383
 Alpha  occ. eigenvalues --  -10.24308  -3.16376  -3.16251  -1.91257  -1.91133
 Alpha  occ. eigenvalues --   -1.90844  -1.90722  -1.90686  -1.90558  -1.16565
 Alpha  occ. eigenvalues --   -1.16536  -1.08513  -1.08487  -1.07098  -1.06882
 Alpha  occ. eigenvalues --   -1.06829  -1.06566  -1.04428  -1.04347  -1.03600
 Alpha  occ. eigenvalues --   -1.03508  -1.03071  -1.02876  -1.02250  -1.01952
 Alpha  occ. eigenvalues --   -0.91838  -0.91826  -0.89336  -0.89301  -0.89059
 Alpha  occ. eigenvalues --   -0.89021  -0.88109  -0.88027  -0.87697  -0.87619
 Alpha  occ. eigenvalues --   -0.87532  -0.87521  -0.87129  -0.86997  -0.84869
 Alpha  occ. eigenvalues --   -0.84852  -0.83752  -0.83667  -0.82828  -0.82812
 Alpha  occ. eigenvalues --   -0.82520  -0.82520  -0.81467  -0.81458  -0.80461
 Alpha  occ. eigenvalues --   -0.80305  -0.78642  -0.78491  -0.77060  -0.76991
 Alpha  occ. eigenvalues --   -0.76802  -0.76743  -0.75793  -0.75702  -0.74739
 Alpha  occ. eigenvalues --   -0.74635  -0.72609  -0.72532  -0.71526  -0.71437
 Alpha  occ. eigenvalues --   -0.69698  -0.69511  -0.68739  -0.68692  -0.67496
 Alpha  occ. eigenvalues --   -0.67459  -0.67100  -0.67085  -0.65153  -0.65137
 Alpha  occ. eigenvalues --   -0.64709  -0.64612  -0.64509  -0.64477  -0.64093
 Alpha  occ. eigenvalues --   -0.64009  -0.62184  -0.62140  -0.60290  -0.60201
 Alpha  occ. eigenvalues --   -0.59665  -0.59660  -0.58837  -0.58834  -0.58354
 Alpha  occ. eigenvalues --   -0.58273  -0.57460  -0.57415  -0.57156  -0.57079
 Alpha  occ. eigenvalues --   -0.56160  -0.56053  -0.55881  -0.55764  -0.55384
 Alpha  occ. eigenvalues --   -0.55333  -0.55183  -0.55073  -0.54381  -0.54309
 Alpha  occ. eigenvalues --   -0.53787  -0.53769  -0.53151  -0.53091  -0.53084
 Alpha  occ. eigenvalues --   -0.53005  -0.52785  -0.52763  -0.52629  -0.52567
 Alpha  occ. eigenvalues --   -0.52219  -0.52128  -0.51734  -0.51692  -0.51540
 Alpha  occ. eigenvalues --   -0.51492  -0.51042  -0.51034  -0.50435  -0.50363
 Alpha  occ. eigenvalues --   -0.49854  -0.49849  -0.49777  -0.49673  -0.49387
 Alpha  occ. eigenvalues --   -0.49371  -0.49076  -0.49072  -0.48964  -0.48963
 Alpha  occ. eigenvalues --   -0.48462  -0.48424  -0.48321  -0.48303  -0.48233
 Alpha  occ. eigenvalues --   -0.48210  -0.47553  -0.47454  -0.47155  -0.46984
 Alpha  occ. eigenvalues --   -0.46634  -0.46543  -0.46432  -0.46424  -0.46200
 Alpha  occ. eigenvalues --   -0.46106  -0.46009  -0.45924  -0.45682  -0.45667
 Alpha  occ. eigenvalues --   -0.45036  -0.45034  -0.44440  -0.44387  -0.44361
 Alpha  occ. eigenvalues --   -0.44316  -0.43998  -0.43989  -0.43946  -0.43883
 Alpha  occ. eigenvalues --   -0.43878  -0.43821  -0.43399  -0.43367  -0.43245
 Alpha  occ. eigenvalues --   -0.43239  -0.42877  -0.42800  -0.42749  -0.42603
 Alpha  occ. eigenvalues --   -0.42468  -0.42355  -0.41831  -0.41753  -0.41556
 Alpha  occ. eigenvalues --   -0.41518  -0.41400  -0.41302  -0.40998  -0.40848
 Alpha  occ. eigenvalues --   -0.40729  -0.40694  -0.40624  -0.40549  -0.40396
 Alpha  occ. eigenvalues --   -0.40293  -0.40124  -0.40120  -0.39220  -0.39162
 Alpha  occ. eigenvalues --   -0.38300  -0.38173  -0.37631  -0.37530  -0.37150
 Alpha  occ. eigenvalues --   -0.37129  -0.37091  -0.37058  -0.36642  -0.36608
 Alpha  occ. eigenvalues --   -0.36054  -0.36054  -0.34127  -0.34096  -0.33739
 Alpha  occ. eigenvalues --   -0.33681  -0.33031  -0.33018  -0.31223  -0.31183
 Alpha  occ. eigenvalues --   -0.30884  -0.30824  -0.29886  -0.29808  -0.29295
 Alpha  occ. eigenvalues --   -0.29186  -0.29159  -0.29050  -0.23922  -0.23879
 Alpha  occ. eigenvalues --   -0.20966  -0.20959
 Alpha virt. eigenvalues --   -0.08640  -0.08617  -0.01592  -0.01531   0.00081
 Alpha virt. eigenvalues --    0.00093   0.02355   0.02363   0.03264   0.03478
 Alpha virt. eigenvalues --    0.04857   0.04869   0.05186   0.05285   0.06272

 Mulliken charges:
               1
     1  Mg   0.839416
     2  C   -0.003286
     3  C   -0.093988
     4  C   -0.045918
     5  C   -0.063258
     6  N   -0.256779
     7  C   -0.052451
     8  C   -0.014095
     9  C   -0.087028
    10  C    0.046261
    11  C    0.104873
    12  C    0.053457
    13  C   -0.071347
    14  H    0.034608
    15  N   -0.433042
    16  C    0.168465
    17  C   -0.177119
    18  C   -0.004223
    19  C    0.148682
    20  C    0.110177
    21  C    0.012016
    22  O   -0.250234
    23  C    0.062482
    24  N   -0.341232
    25  C    0.041322
    26  C   -0.027950
    27  C   -0.024098
    28  C    0.075098
    29  C    0.076347
    30  C    0.034986
    31  C   -0.004770
    32  N   -0.310617
    33  C    0.080864
    34  C   -0.168642
    35  C    0.008298
    36  C    0.083420
    37  C    0.127128
    38  C    0.046312
    39  O   -0.188525
    40  C   -0.005521
    41  C    0.213059
    42  O   -0.257728
    43  O   -0.304589
    44  C    0.158063
    45  H   -0.017917
    46  H   -0.017251
    47  H   -0.040816
    48  H    0.000653
    49  H   -0.004068
    50  H    0.025301
    51  H    0.016455
    52  H    0.016390
    53  H    0.011903
    54  H    0.043473
    55  H    0.017849
    56  H    0.018337
    57  H    0.005856
    58  H    0.026288
    59  H    0.039901
    60  H    0.037346
    61  H    0.034617
    62  H    0.031722
    63  H    0.016369
    64  H    0.009159
    65  H    0.022693
    66  H    0.012226
    67  H    0.004600
    68  H    0.005622
    69  H    0.005462
    70  H    0.007490
    71  H    0.021653
    72  H    0.029167
    73  H    0.048465
    74  H    0.009985
    75  H    0.045520
    76  H    0.034962
    77  H    0.042947
    78  H    0.046257
    79  H    0.052497
    80  Mg   0.838362
    81  C   -0.017070
    82  C   -0.087943
    83  C   -0.045684
    84  C   -0.063870
    85  N   -0.254536
    86  C   -0.049752
    87  C   -0.015170
    88  C   -0.090446
    89  C    0.045608
    90  C    0.114482
    91  C    0.062566
    92  C   -0.077627
    93  H    0.034266
    94  N   -0.423301
    95  C    0.162756
    96  C   -0.174894
    97  C   -0.008260
    98  C    0.151977
    99  C    0.099435
   100  C    0.015030
   101  O   -0.254216
   102  C    0.061378
   103  N   -0.350260
   104  C    0.037675
   105  C   -0.019431
   106  C   -0.035002
   107  C    0.089491
   108  C    0.073972
   109  C    0.034595
   110  C   -0.009177
   111  N   -0.324379
   112  C    0.079236
   113  C   -0.161668
   114  C    0.002142
   115  C    0.096772
   116  C    0.131272
   117  C    0.042750
   118  O   -0.187745
   119  C    0.000726
   120  C    0.211286
   121  O   -0.250939
   122  O   -0.305667
   123  C    0.152220
   124  H   -0.020158
   125  H   -0.016314
   126  H   -0.039261
   127  H   -0.000879
   128  H   -0.004553
   129  H    0.022282
   130  H    0.014350
   131  H    0.015895
   132  H    0.014172
   133  H    0.037599
   134  H    0.020636
   135  H    0.019582
   136  H    0.008637
   137  H    0.025494
   138  H    0.039512
   139  H    0.038309
   140  H    0.034919
   141  H    0.033831
   142  H    0.013925
   143  H    0.011862
   144  H    0.024153
   145  H    0.011206
   146  H    0.005435
   147  H    0.004564
   148  H    0.004970
   149  H    0.008048
   150  H    0.026720
   151  H    0.029721
   152  H    0.047188
   153  H    0.009955
   154  H    0.046278
   155  H    0.034720
   156  H    0.043731
   157  H    0.049289
   158  H    0.053207
 Sum of Mulliken charges =  -0.00000

 Dipole moment (field-independent basis, Debye):
    X=              0.0219    Y=             -3.6947    Z=              6.0229  Tot=              7.0659
 Quadrupole moment (field-independent basis, Debye-Ang):
   XX=           -458.4257   YY=           -494.7772   ZZ=           -516.6353
   XY=             25.9420   XZ=             10.6859   YZ=             32.6257

 Normal termination of Gaussian 16 at Fri Sep 10 12:52:03 2021.
