 Gaussian 16, Revision A.03,
 Gaussian 16:  ES64L-G16RevA.03 25-Dec-2016

 -----------------------------------
 #p cam-b3lyp/Def2SVP td=(nstates=5)
 -----------------------------------

 --------------------------------
 TDDFT excited states in gaussian
 --------------------------------
 Symbolic Z-matrix:
 Charge =  0 Multiplicity = 1

                         Standard orientation:
 ---------------------------------------------------------------------
 Center     Atomic      Atomic             Coordinates (Angstroms)
 Number     Number       Type             X           Y           Z
 ---------------------------------------------------------------------
      1         12           0       -4.414322    0.641190    0.344465
      2          6           0       -4.717544   -2.554779   -1.238587
      3          6           0       -4.984393   -0.941333    3.313254
      4          6           0       -4.602791    3.498584    1.706962
      5          6           0       -4.998144    2.077836   -2.776570
      6          7           0       -4.787557   -1.482693    0.844928
      7          6           0       -4.818997   -2.617321    0.152974
      8          6           0       -4.894140   -3.887446    1.052145
      9          6           0       -5.536373   -3.234370    2.357146
     10          6           0       -5.045142   -1.808215    2.181946
     11          6           0       -7.061644   -3.232855    2.350114
     12          6           0       -3.479782   -4.489762    1.349698
     13          6           0       -3.482434   -5.902401    1.941135
     14          1           0       -2.423490   -6.823952    1.558078
     15          7           0       -4.261408    1.168229    2.242279
     16          6           0       -4.516778    0.390632    3.321823
     17          6           0       -4.256981    1.238291    4.505318
     18          6           0       -4.013308    2.627055    4.025680
     19          6           0       -4.312467    2.490374    2.623111
     20          6           0       -4.209603    0.705621    5.904521
     21          6           0       -3.589795    3.881106    4.722908
     22          8           0       -3.662373    5.028256    4.163129
     23          6           0       -3.165373    3.740488    6.127591
     24          7           0       -4.968383    2.522103   -0.371649
     25          6           0       -4.905574    3.604592    0.411457
     26          6           0       -5.073829    4.864805   -0.384465
     27          6           0       -5.022547    4.428278   -1.919577
     28          6           0       -4.909008    2.896048   -1.725546
     29          6           0       -6.362968    5.655359   -0.121494
     30          6           0       -3.978136    5.137399   -2.817781
     31          6           0       -2.582008    4.741118   -2.392472
     32          7           0       -4.617702   -0.072505   -1.695222
     33          6           0       -4.880464    0.699264   -2.836275
     34          6           0       -5.037680   -0.237127   -3.964337
     35          6           0       -4.870798   -1.497731   -3.394361
     36          6           0       -4.650992   -1.359073   -1.994093
     37          6           0       -5.357653    0.118600   -5.304303
     38          6           0       -4.851527   -2.930900   -3.638315
     39          8           0       -4.886728   -3.639684   -4.645231
     40          6           0       -4.872811   -3.678782   -2.232596
     41          6           0       -3.806977   -4.739998   -2.266180
     42          8           0       -2.598813   -4.431838   -2.318552
     43          8           0       -4.358280   -5.932548   -1.993360
     44          6           0       -3.349542   -7.025464   -1.981753
     45          1           0       -5.384673   -1.289812    4.267339
     46          1           0       -4.567827    4.510253    2.116524
     47          1           0       -5.097846    2.457806   -3.794968
     48          1           0       -5.544143   -4.675692    0.671898
     49          1           0       -5.128636   -3.666026    3.271009
     50          1           0       -7.455950   -3.564672    1.389728
     51          1           0       -7.352577   -2.200425    2.544896
     52          1           0       -7.453424   -3.816848    3.183324
     53          1           0       -3.023076   -3.943865    2.175214
     54          1           0       -2.857984   -4.475135    0.453886
     55          1           0       -4.458446   -6.376898    1.835485
     56          1           0       -3.335487   -5.821990    3.018233
     57          1           0       -4.590726   -0.313400    5.958235
     58          1           0       -4.916232    1.291244    6.492254
     59          1           0       -3.213707    0.785561    6.340563
     60          1           0       -3.983398    3.315900    6.709920
     61          1           0       -2.813384    4.724492    6.435309
     62          1           0       -2.347127    3.021610    6.178937
     63          1           0       -4.263331    5.564563   -0.184820
     64          1           0       -5.971789    4.603314   -2.426506
     65          1           0       -6.189029    6.686301    0.187712
     66          1           0       -6.942844    5.115305    0.626421
     67          1           0       -7.060716    5.683294   -0.958025
     68          1           0       -4.052974    6.218465   -2.705344
     69          1           0       -4.092817    4.905361   -3.876676
     70          1           0       -2.376621    5.421700   -1.566968
     71          1           0       -1.877125    4.895247   -3.210148
     72          1           0       -2.560514    3.727366   -1.992058
     73          1           0       -4.707231   -0.479613   -5.942318
     74          1           0       -5.210457    1.184495   -5.476941
     75          1           0       -6.407926   -0.169789   -5.344481
     76          1           0       -5.869742   -4.103306   -2.118450
     77          1           0       -3.686690   -7.780994   -2.691499
     78          1           0       -3.230695   -7.326415   -0.940740
     79          1           0       -2.369065   -6.780850   -2.391836
     80         12           0        4.547663    0.785976   -0.504243
     81          6           0        4.516050   -2.570283    0.766037
     82          6           0        3.954255    1.839580    2.685172
     83          6           0        4.122074    3.711772   -1.655758
     84          6           0        3.997935   -0.556181   -3.673171
     85          7           0        4.288991   -0.318136    1.394780
     86          6           0        4.358846   -1.587737    1.765694
     87          6           0        4.334873   -1.811346    3.301593
     88          6           0        3.590692   -0.454486    3.730553
     89          6           0        3.993875    0.428665    2.551511
     90          6           0        2.075943   -0.576049    3.740220
     91          6           0        5.776231   -1.894898    3.916025
     92          6           0        5.833428   -2.418009    5.352984
     93          1           0        6.971167   -3.243644    5.748363
     94          7           0        4.590677    2.545690    0.412332
     95          6           0        4.346930    2.789779    1.717048
     96          6           0        4.485042    4.244510    1.886848
     97          6           0        4.668070    4.858282    0.543525
     98          6           0        4.441610    3.706124   -0.305780
     99          6           0        4.516900    4.907172    3.233432
    100          6           0        4.980874    6.254252    0.096748
    101          8           0        4.858981    6.612553   -1.127832
    102          6           0        5.344143    7.213730    1.149803
    103          7           0        3.912223    1.495239   -2.352357
    104          6           0        3.866776    2.814486   -2.608129
    105          6           0        3.647273    3.077746   -4.078812
    106          6           0        3.796891    1.656533   -4.796682
    107          6           0        3.997421    0.764230   -3.552101
    108          6           0        2.299455    3.695771   -4.450081
    109          6           0        4.830461    1.556922   -5.951882
    110          6           0        6.231476    1.712917   -5.405786
    111          7           0        4.481874   -1.194898   -1.364395
    112          6           0        4.210522   -1.532629   -2.708420
    113          6           0        4.162410   -3.007135   -2.785620
    114          6           0        4.388070   -3.427781   -1.466294
    115          6           0        4.544295   -2.295005   -0.622549
    116          6           0        3.886995   -3.770372   -3.955114
    117          6           0        4.519074   -4.572350   -0.593649
    118          8           0        4.564994   -5.790564   -0.759692
    119          6           0        4.481940   -4.066262    0.912638
    120          6           0        5.615070   -4.723853    1.651634
    121          8           0        6.795558   -4.467600    1.356048
    122          8           0        5.124104   -5.375211    2.721708
    123          6           0        6.211317   -6.034639    3.493028
    124          1           0        3.544314    2.262476    3.602769
    125          1           0        4.073406    4.697292   -2.124640
    126          1           0        3.928906   -1.053495   -4.643018
    127          1           0        3.759442   -2.669794    3.626729
    128          1           0        3.994600   -0.058960    4.658867
    129          1           0        1.745247   -1.523584    3.341508
    130          1           0        1.711477    0.239404    3.129282
    131          1           0        1.689591   -0.394239    4.747205
    132          1           0        6.158935   -0.877898    4.070938
    133          1           0        6.422971   -2.480718    3.292201
    134          1           0        4.891568   -2.890379    5.657470
    135          1           0        5.936454   -1.565526    6.028773
    136          1           0        4.193759    4.221873    4.026743
    137          1           0        3.751225    5.690426    3.222558
    138          1           0        5.484490    5.361893    3.456319
    139          1           0        4.532924    7.283103    1.870618
    140          1           0        5.618730    8.131753    0.626636
    141          1           0        6.214128    6.825951    1.691451
    142          1           0        4.402374    3.749444   -4.468357
    143          1           0        2.854902    1.335453   -5.265078
    144          1           0        2.394042    4.649492   -5.002834
    145          1           0        1.727311    3.837226   -3.542794
    146          1           0        1.644462    3.055810   -5.038834
    147          1           0        4.682324    2.372475   -6.663975
    148          1           0        4.767764    0.627897   -6.508643
    149          1           0        6.352131    2.798492   -5.342281
    150          1           0        6.958773    1.274068   -6.085865
    151          1           0        6.303821    1.313087   -4.387682
    152          1           0        4.593619   -4.589558   -3.965849
    153          1           0        3.967471   -3.163103   -4.854287
    154          1           0        2.855263   -4.070649   -3.753561
    155          1           0        3.510343   -4.339367    1.326134
    156          1           0        5.950673   -7.094737    3.570152
    157          1           0        6.294039   -5.466189    4.438427
    158          1           0        7.190313   -6.090577    3.031637
 ---------------------------------------------------------------------

 SCF Done:  E(RCAM-B3LYP) =  -4069.81178945     A.U. after   19 cycles

 Excitation energies and oscillator strengths:

 Excited State   1:      Singlet-A      1.6546 eV  749.34 nm  f=0.1122  <S**2>=0.000
     309 -> 315       -0.11570
     310 -> 316        0.12227
     311 -> 313        0.47094
     312 -> 314        0.50019
 This state for optimization and/or second-order correction.
 Total Energy, E(TD-HF/TD-DFT) =  -4069.75098506
 Copying the excited state density for this state as the 1-particle RhoCI density.

 Excited State   2:      Singlet-A      1.6943 eV  731.75 nm  f=0.5658  <S**2>=0.000
     309 -> 315       -0.13008
     310 -> 316       -0.12273
     311 -> 313        0.49835
     312 -> 314       -0.46944

 Excited State   3:      Singlet-A      2.1838 eV  567.74 nm  f=0.0426  <S**2>=0.000
     309 -> 313       -0.33959
     310 -> 314        0.54666
     311 -> 315       -0.14210
     312 -> 316       -0.23086

 Excited State   4:      Singlet-A      2.1921 eV  565.58 nm  f=0.1451  <S**2>=0.000
     309 -> 313        0.54390
     310 -> 314        0.33668
     311 -> 315        0.23688
     312 -> 316       -0.14783

 Excited State   5:      Singlet-A      2.3490 eV  527.82 nm  f=0.0000  <S**2>=0.000
     312 -> 313        0.70708

 The electronic state is 1-A.
 Alpha  occ. eigenvalues --  -46.87892 -46.87450 -19.26268 -19.26247 -19.19051
 Alpha  occ. eigenvalues --  -19.19010 -19.18984 -19.18518 -19.18250 -19.17843
 Alpha  occ. eigenvalues --  -14.42541 -14.42303 -14.41539 -14.41148 -14.39509
 Alpha  occ. eigenvalues --  -14.39142 -14.38681 -14.38373 -10.39075 -10.38974
 Alpha  occ. eigenvalues --  -10.35623 -10.35198 -10.34464 -10.34023 -10.31716
 Alpha  occ. eigenvalues --  -10.31577 -10.31486 -10.31114 -10.31001 -10.30857
 Alpha  occ. eigenvalues --  -10.30665 -10.30608 -10.30309 -10.30167 -10.30131
 Alpha  occ. eigenvalues --  -10.30002 -10.29929 -10.29742 -10.29669 -10.29370
 Alpha  occ. eigenvalues --  -10.29216 -10.29167 -10.28800 -10.28634 -10.28622
 Alpha  occ. eigenvalues --  -10.28511 -10.28465 -10.28199 -10.28181 -10.28045
 Alpha  occ. eigenvalues --  -10.27902 -10.27824 -10.27770 -10.27707 -10.27657
 Alpha  occ. eigenvalues --  -10.27568 -10.27515 -10.27489 -10.27476 -10.27303
 Alpha  occ. eigenvalues --  -10.27284 -10.27269 -10.27241 -10.27208 -10.27189
 Alpha  occ. eigenvalues --  -10.26874 -10.26732 -10.26657 -10.26621 -10.26293
 Alpha  occ. eigenvalues --  -10.26239 -10.26226 -10.26115 -10.25983 -10.25951
 Alpha  occ. eigenvalues --  -10.25940 -10.25699 -10.25498 -10.25455 -10.25246
 Alpha  occ. eigenvalues --  -10.24936 -10.24881 -10.24706 -10.24631 -10.24553
 Alpha  occ. eigenvalues --  -10.24483  -3.16634  -3.16200  -1.91516  -1.91102
 Alpha  occ. eigenvalues --   -1.91082  -1.90945  -1.90671  -1.90507  -1.16602
 Alpha  occ. eigenvalues --   -1.16555  -1.08700  -1.08456  -1.07388  -1.06835
 Alpha  occ. eigenvalues --   -1.06774  -1.06632  -1.04671  -1.04304  -1.03852
 Alpha  occ. eigenvalues --   -1.03455  -1.03334  -1.02819  -1.02507  -1.01894
 Alpha  occ. eigenvalues --   -0.92053  -0.91786  -0.89595  -0.89287  -0.89247
 Alpha  occ. eigenvalues --   -0.89039  -0.88359  -0.88024  -0.87974  -0.87759
 Alpha  occ. eigenvalues --   -0.87537  -0.87473  -0.87422  -0.86910  -0.85049
 Alpha  occ. eigenvalues --   -0.84864  -0.83997  -0.83688  -0.83128  -0.82742
 Alpha  occ. eigenvalues --   -0.82718  -0.82507  -0.81617  -0.81438  -0.80667
 Alpha  occ. eigenvalues --   -0.80267  -0.78925  -0.78411  -0.77297  -0.76978
 Alpha  occ. eigenvalues --   -0.76973  -0.76754  -0.75975  -0.75690  -0.74961
 Alpha  occ. eigenvalues --   -0.74628  -0.72868  -0.72474  -0.71748  -0.71408
 Alpha  occ. eigenvalues --   -0.69963  -0.69568  -0.68950  -0.68680  -0.67737
 Alpha  occ. eigenvalues --   -0.67410  -0.67295  -0.67060  -0.65347  -0.65133
 Alpha  occ. eigenvalues --   -0.64921  -0.64678  -0.64580  -0.64495  -0.64340
 Alpha  occ. eigenvalues --   -0.64009  -0.62313  -0.62132  -0.60567  -0.60134
 Alpha  occ. eigenvalues --   -0.59880  -0.59646  -0.59068  -0.58796  -0.58585
 Alpha  occ. eigenvalues --   -0.58235  -0.57638  -0.57386  -0.57376  -0.57036
 Alpha  occ. eigenvalues --   -0.56413  -0.55995  -0.55987  -0.55759  -0.55631
 Alpha  occ. eigenvalues --   -0.55388  -0.55275  -0.55067  -0.54554  -0.54330
 Alpha  occ. eigenvalues --   -0.53955  -0.53799  -0.53416  -0.53309  -0.53027
 Alpha  occ. eigenvalues --   -0.52984  -0.52981  -0.52869  -0.52752  -0.52498
 Alpha  occ. eigenvalues --   -0.52490  -0.52211  -0.52013  -0.51696  -0.51562
 Alpha  occ. eigenvalues --   -0.51512  -0.51261  -0.51011  -0.50753  -0.50290
 Alpha  occ. eigenvalues --   -0.50110  -0.50047  -0.49828  -0.49680  -0.49608
 Alpha  occ. eigenvalues --   -0.49320  -0.49308  -0.49160  -0.49041  -0.48933
 Alpha  occ. eigenvalues --   -0.48650  -0.48592  -0.48514  -0.48393  -0.48191
 Alpha  occ. eigenvalues --   -0.48154  -0.47781  -0.47430  -0.47390  -0.46933
 Alpha  occ. eigenvalues --   -0.46873  -0.46616  -0.46529  -0.46445  -0.46420
 Alpha  occ. eigenvalues --   -0.46228  -0.46065  -0.45874  -0.45873  -0.45626
 Alpha  occ. eigenvalues --   -0.45275  -0.45031  -0.44661  -0.44604  -0.44379
 Alpha  occ. eigenvalues --   -0.44290  -0.44230  -0.44157  -0.44100  -0.43967
 Alpha  occ. eigenvalues --   -0.43892  -0.43758  -0.43536  -0.43457  -0.43408
 Alpha  occ. eigenvalues --   -0.43224  -0.43104  -0.42791  -0.42748  -0.42711
 Alpha  occ. eigenvalues --   -0.42651  -0.42360  -0.42064  -0.41800  -0.41783
 Alpha  occ. eigenvalues --   -0.41592  -0.41485  -0.41316  -0.41217  -0.40983
 Alpha  occ. eigenvalues --   -0.40914  -0.40831  -0.40634  -0.40575  -0.40552
 Alpha  occ. eigenvalues --   -0.40311  -0.40281  -0.40124  -0.39489  -0.39230
 Alpha  occ. eigenvalues --   -0.38532  -0.38177  -0.37792  -0.37547  -0.37396
 Alpha  occ. eigenvalues --   -0.37325  -0.37073  -0.37031  -0.36729  -0.36652
 Alpha  occ. eigenvalues --   -0.36231  -0.36046  -0.34376  -0.34048  -0.33782
 Alpha  occ. eigenvalues --   -0.33731  -0.33272  -0.32963  -0.31509  -0.31125
 Alpha  occ. eigenvalues --   -0.31080  -0.30774  -0.30104  -0.29752  -0.29573
 Alpha  occ. eigenvalues --   -0.29425  -0.29105  -0.28962  -0.24171  -0.23823
 Alpha  occ. eigenvalues --   -0.21226  -0.20902
 Alpha virt. eigenvalues --   -0.08882  -0.08571  -0.01850  -0.01476  -0.00187
 Alpha virt. eigenvalues --    0.00168   0.02107   0.02429   0.02854   0.03483
 Alpha virt. eigenvalues --    0.04653   0.04902   0.05092   0.05290   0.06168

 Mulliken charges:
               1
     1  Mg   0.838756
     2  C   -0.002714
     3  C   -0.094646
     4  C   -0.045792
     5  C   -0.064159
     6  N   -0.256817
     7  C   -0.052186
     8  C   -0.013907
     9  C   -0.086868
    10  C    0.046220
    11  C    0.104808
    12  C    0.053608
    13  C   -0.072945
    14  H    0.039403
    15  N   -0.433028
    16  C    0.168060
    17  C   -0.177944
    18  C   -0.004685
    19  C    0.148686
    20  C    0.110311
    21  C    0.011346
    22  O   -0.249529
    23  C    0.063140
    24  N   -0.341272
    25  C    0.041380
    26  C   -0.028230
    27  C   -0.024069
    28  C    0.075354
    29  C    0.076105
    30  C    0.034881
    31  C   -0.005438
    32  N   -0.310565
    33  C    0.080797
    34  C   -0.170043
    35  C    0.008477
    36  C    0.083218
    37  C    0.127356
    38  C    0.046057
    39  O   -0.187899
    40  C   -0.005202
    41  C    0.212831
    42  O   -0.256899
    43  O   -0.305064
    44  C    0.157138
    45  H   -0.017674
    46  H   -0.016892
    47  H   -0.041412
    48  H    0.001389
    49  H   -0.004205
    50  H    0.025668
    51  H    0.016290
    52  H    0.016781
    53  H    0.009806
    54  H    0.044944
    55  H    0.017881
    56  H    0.017199
    57  H    0.006103
    58  H    0.027009
    59  H    0.037324
    60  H    0.038022
    61  H    0.034919
    62  H    0.028913
    63  H    0.016873
    64  H    0.009600
    65  H    0.023357
    66  H    0.012416
    67  H    0.004914
    68  H    0.007017
    69  H    0.004275
    70  H    0.010060
    71  H    0.019296
    72  H    0.028537
    73  H    0.047258
    74  H    0.009046
    75  H    0.046454
    76  H    0.035379
    77  H    0.043194
    78  H    0.046944
    79  H    0.055259
    80  Mg   0.838008
    81  C   -0.016683
    82  C   -0.088000
    83  C   -0.045231
    84  C   -0.062261
    85  N   -0.254421
    86  C   -0.049715
    87  C   -0.014984
    88  C   -0.090623
    89  C    0.045577
    90  C    0.114797
    91  C    0.062721
    92  C   -0.077387
    93  H    0.034489
    94  N   -0.423415
    95  C    0.162466
    96  C   -0.174423
    97  C   -0.007967
    98  C    0.151804
    99  C    0.099288
   100  C    0.015484
   101  O   -0.253914
   102  C    0.061187
   103  N   -0.349748
   104  C    0.037144
   105  C   -0.019944
   106  C   -0.035299
   107  C    0.088889
   108  C    0.072913
   109  C    0.034688
   110  C   -0.007558
   111  N   -0.324659
   112  C    0.078717
   113  C   -0.159849
   114  C    0.003102
   115  C    0.096594
   116  C    0.130116
   117  C    0.043719
   118  O   -0.188473
   119  C    0.000459
   120  C    0.210934
   121  O   -0.251110
   122  O   -0.305964
   123  C    0.152194
   124  H   -0.020863
   125  H   -0.016169
   126  H   -0.039010
   127  H   -0.001742
   128  H   -0.005374
   129  H    0.022637
   130  H    0.015652
   131  H    0.012663
   132  H    0.014056
   133  H    0.037811
   134  H    0.019647
   135  H    0.019145
   136  H    0.007726
   137  H    0.027057
   138  H    0.038965
   139  H    0.038759
   140  H    0.035772
   141  H    0.033454
   142  H    0.013890
   143  H    0.014245
   144  H    0.023716
   145  H    0.012472
   146  H    0.005926
   147  H    0.005678
   148  H    0.004348
   149  H    0.010477
   150  H    0.017645
   151  H    0.030111
   152  H    0.044507
   153  H    0.008251
   154  H    0.054096
   155  H    0.035090
   156  H    0.043190
   157  H    0.048947
   158  H    0.053596
 Sum of Mulliken charges =  -0.00000

 Dipole moment (field-independent basis, Debye):
    X=             -3.4649    Y=              1.8389    Z=              6.9665  Tot=              7.9949
 Quadrupole moment (field-independent basis, Debye-Ang):
   XX=           -519.1411   YY=           -534.2956   ZZ=           -465.0100
   XY=             15.7434   XZ=              0.7002   YZ=            -32.5736

 Normal termination of Gaussian 16 at Fri Sep  3 22:52:11 2021.
