 Gaussian 16, Revision A.03,
 Gaussian 16:  ES64L-G16RevA.03 25-Dec-2016

 -----------------------------------
 #p cam-b3lyp/Def2SVP td=(nstates=5)
 -----------------------------------

 --------------------------------
 TDDFT excited states in gaussian
 --------------------------------
 Symbolic Z-matrix:
 Charge =  0 Multiplicity = 1

                         Standard orientation:
 ---------------------------------------------------------------------
 Center     Atomic      Atomic             Coordinates (Angstroms)
 Number     Number       Type             X           Y           Z
 ---------------------------------------------------------------------
      1         12           0        7.855902   -0.724294    0.165237
      2          6           0        8.092133    2.600484   -1.139469
      3          6           0        8.635176    0.579084    3.220888
      4          6           0        8.099842   -3.694554    1.249061
      5          6           0        8.219805   -1.874853   -3.104235
      6          7           0        8.284894    1.343330    0.829722
      7          6           0        8.284292    2.535898    0.242395
      8          6           0        8.431990    3.718731    1.245623
      9          6           0        9.150017    2.946409    2.441430
     10          6           0        8.632295    1.544737    2.170870
     11          6           0       10.671507    2.937246    2.334260
     12          6           0        7.046829    4.299231    1.688433
     13          6           0        7.103861    5.652315    2.403460
     14          1           0        6.032847    6.610576    2.175399
     15          7           0        7.820370   -1.420590    2.013685
     16          6           0        8.154003   -0.745598    3.139900
     17          6           0        7.961869   -1.695763    4.256570
     18          6           0        7.671858   -3.033910    3.670608
     19          6           0        7.880991   -2.772105    2.269501
     20          6           0        8.011354   -1.292054    5.698208
     21          6           0        7.280222   -4.343752    4.278117
     22          8           0        7.303325   -5.435731    3.613570
     23          6           0        6.949383   -4.328918    5.714559
     24          7           0        8.340974   -2.535422   -0.752454
     25          6           0        8.316777   -3.684170   -0.067783
     26          6           0        8.418755   -4.867828   -0.983477
     27          6           0        8.273021   -4.293483   -2.466259
     28          6           0        8.189709   -2.784596   -2.127746
     29          6           0        9.713170   -5.685986   -0.878031
     30          6           0        7.164590   -4.912453   -3.354332
     31          6           0        5.803563   -4.548831   -2.804347
     32          7           0        7.934713    0.170488   -1.810667
     33          6           0        8.114166   -0.495934   -3.031467
     34          6           0        8.208544    0.538121   -4.078316
     35          6           0        8.093291    1.742671   -3.387213
     36          6           0        7.963166    1.478675   -1.993777
     37          6           0        8.436912    0.303763   -5.463002
     38          6           0        8.074523    3.192151   -3.499074
     39          8           0        8.052419    3.989208   -4.438065
     40          6           0        8.195387    3.809215   -2.036047
     41          6           0        7.141739    4.874878   -1.903763
     42          8           0        5.929300    4.579317   -1.904365
     43          8           0        7.723078    6.034724   -1.561209
     44          6           0        6.729691    7.127543   -1.384901
     45          1           0        9.100399    0.837337    4.174205
     46          1           0        8.080016   -4.739019    1.567083
     47          1           0        8.248953   -2.161347   -4.157100
     48          1           0        9.064884    4.534693    0.896232
     49          1           0        8.807312    3.295538    3.415280
     50          1           0       11.006465    3.352722    1.383942
     51          1           0       10.962712    1.889831    2.415592
     52          1           0       11.123087    3.441055    3.189262
     53          1           0        6.638432    3.683143    2.489500
     54          1           0        6.368138    4.369361    0.837677
     55          1           0        8.076297    6.129129    2.277262
     56          1           0        7.026148    5.475264    3.476220
     57          1           0        8.406706   -0.284202    5.818529
     58          1           0        8.747903   -1.932443    6.183086
     59          1           0        7.044978   -1.405830    6.189639
     60          1           0        7.808209   -3.963396    6.277907
     61          1           0        6.606931   -5.334864    5.954664
     62          1           0        6.144404   -3.613231    5.884116
     63          1           0        7.615010   -5.578402   -0.795050
     64          1           0        9.185352   -4.426938   -3.048079
     65          1           0        9.547945   -6.739779   -0.652363
     66          1           0       10.346409   -5.219213   -0.124094
     67          1           0       10.354855   -5.641663   -1.757629
     68          1           0        7.234278   -5.999653   -3.345045
     69          1           0        7.213010   -4.585881   -4.393205
     70          1           0        5.644410   -5.300411   -2.031929
     71          1           0        5.045448   -4.624266   -3.584592
     72          1           0        5.819587   -3.575510   -2.313558
     73          1           0        7.753333    0.960948   -6.000399
     74          1           0        8.266739   -0.741245   -5.721078
     75          1           0        9.485579    0.588894   -5.545800
     76          1           0        9.202378    4.216199   -1.949701
     77          1           0        7.028675    7.942536   -2.044164
     78          1           0        6.682009    7.333396   -0.315436
     79          1           0        5.721977    6.926498   -1.750183
     80         12           0       -8.019358   -0.754544   -0.314470
     81          6           0       -7.848198    2.708813    0.610146
     82          6           0       -7.239721   -1.502608    2.920834
     83          6           0       -7.719274   -3.788715   -1.192646
     84          6           0       -7.652132    0.255738   -3.629611
     85          7           0       -7.619826    0.524816    1.445041
     86          6           0       -7.643778    1.826060    1.691077
     87          6           0       -7.516960    2.199209    3.192487
     88          6           0       -6.770107    0.874071    3.707353
     89          6           0       -7.263610   -0.111181    2.649807
     90          6           0       -5.256017    0.960351    3.610208
     91          6           0       -8.914046    2.376715    3.884349
     92          6           0       -8.869463    3.039985    5.262685
     93          1           0       -9.964981    3.927066    5.644014
     94          7           0       -8.033417   -2.413949    0.773992
     95          6           0       -7.710286   -2.534026    2.078769
     96          6           0       -7.862147   -3.961322    2.401153
     97          6           0       -8.141939   -4.699926    1.139845
     98          6           0       -7.950949   -3.642640    0.167337
     99          6           0       -7.818495   -4.487223    3.806480
    100          6           0       -8.506863   -6.125368    0.854985
    101          8           0       -8.470362   -6.605274   -0.332950
    102          6           0       -8.817903   -6.967671    2.019140
    103          7           0       -7.516704   -1.657090   -2.118656
    104          6           0       -7.510535   -2.995825   -2.243865
    105          6           0       -7.390886   -3.407716   -3.691770
    106          6           0       -7.562035   -2.060974   -4.537105
    107          6           0       -7.666517   -1.045985   -3.377677
    108          6           0       -6.080643   -4.090799   -4.082981
    109          6           0       -8.666077   -2.051340   -5.629647
    110          6           0      -10.031438   -2.119813   -4.984281
    111          7           0       -7.975127    1.129905   -1.370385
    112          6           0       -7.785242    1.327162   -2.755701
    113          6           0       -7.716867    2.785359   -2.982484
    114          6           0       -7.849720    3.339080   -1.700209
    115          6           0       -7.970657    2.298877   -0.739549
    116          6           0       -7.504360    3.423039   -4.237207
    117          6           0       -7.904472    4.566774   -0.939635
    118          8           0       -7.940060    5.763456   -1.223197
    119          6           0       -7.778990    4.210748    0.604350
    120          6           0       -8.850628    4.964367    1.343376
    121          8           0      -10.051959    4.708070    1.149152
    122          8           0       -8.280562    5.706209    2.310359
    123          6           0       -9.304275    6.463761    3.078440
    124          1           0       -6.778790   -1.842615    3.848642
    125          1           0       -7.717893   -4.816492   -1.562984
    126          1           0       -7.637254    0.653365   -4.646640
    127          1           0       -6.907092    3.071738    3.393780
    128          1           0       -7.120054    0.581482    4.693907
    129          1           0       -4.935484    1.855987    3.099081
    130          1           0       -4.945791    0.080355    3.062109
    131          1           0       -4.808724    0.869556    4.604204
    132          1           0       -9.303389    1.389189    4.163547
    133          1           0       -9.589500    2.913296    3.246798
    134          1           0       -7.901939    3.517775    5.459100
    135          1           0       -8.943341    2.260854    6.025268
    136          1           0       -7.433135   -3.734918    4.505716
    137          1           0       -7.068690   -5.285518    3.826003
    138          1           0       -8.777367   -4.894924    4.133623
    139          1           0       -7.963202   -6.984771    2.691189
    140          1           0       -9.141405   -7.926040    1.608339
    141          1           0       -9.644356   -6.508096    2.572666
    142          1           0       -8.180969   -4.096572   -3.964429
    143          1           0       -6.646822   -1.809816   -5.093105
    144          1           0       -6.227063   -5.091829   -4.530831
    145          1           0       -5.453689   -4.155635   -3.203624
    146          1           0       -5.454069   -3.527505   -4.772412
    147          1           0       -8.578205   -2.936313   -6.264670
    148          1           0       -8.623445   -1.183388   -6.279148
    149          1           0      -10.166380   -3.190737   -4.805364
    150          1           0      -10.793421   -1.733104   -5.657977
    151          1           0      -10.031088   -1.620086   -4.008621
    152          1           0       -8.196020    4.253574   -4.285454
    153          1           0       -7.653081    2.732233   -5.064514
    154          1           0       -6.456770    3.717367   -4.131451
    155          1           0       -6.778193    4.500323    0.927027
    156          1           0       -9.021014    7.519879    3.032972
    157          1           0       -9.335627    5.993273    4.079143
    158          1           0      -10.309879    6.496992    2.675816
 ---------------------------------------------------------------------

 SCF Done:  E(RCAM-B3LYP) =  -4069.81171817     A.U. after   19 cycles

 Excitation energies and oscillator strengths:

 Excited State   1:      Singlet-A      1.6711 eV  741.95 nm  f=0.0955  <S**2>=0.000
     309 -> 315       -0.10082
     310 -> 316        0.14027
     311 -> 313       -0.39919
     312 -> 314        0.55821
 This state for optimization and/or second-order correction.
 Total Energy, E(TD-HF/TD-DFT) =  -4069.75030795
 Copying the excited state density for this state as the 1-particle RhoCI density.

 Excited State   2:      Singlet-A      1.6838 eV  736.33 nm  f=0.6576  <S**2>=0.000
     309 -> 315        0.14353
     310 -> 316        0.10228
     311 -> 313        0.55752
     312 -> 314        0.39881

 Excited State   3:      Singlet-A      2.1857 eV  567.25 nm  f=0.0729  <S**2>=0.000
     309 -> 313       -0.11484
     310 -> 314        0.63227
     312 -> 316       -0.26860

 Excited State   4:      Singlet-A      2.1924 eV  565.53 nm  f=0.1231  <S**2>=0.000
     309 -> 313        0.63039
     310 -> 314        0.11399
     311 -> 315       -0.27381

 Excited State   5:      Singlet-A      2.7654 eV  448.34 nm  f=0.0000  <S**2>=0.000
     312 -> 313        0.70710

 The electronic state is 1-A.
 Alpha  occ. eigenvalues --  -46.87834 -46.87590 -19.26304 -19.26287 -19.19111
 Alpha  occ. eigenvalues --  -19.19028 -19.18867 -19.18653 -19.18195 -19.17980
 Alpha  occ. eigenvalues --  -14.42486 -14.42431 -14.41486 -14.41288 -14.39442
 Alpha  occ. eigenvalues --  -14.39283 -14.38622 -14.38528 -10.39089 -10.39039
 Alpha  occ. eigenvalues --  -10.35502 -10.35331 -10.34414 -10.34158 -10.31722
 Alpha  occ. eigenvalues --  -10.31670 -10.31437 -10.31242 -10.30962 -10.30945
 Alpha  occ. eigenvalues --  -10.30604 -10.30544 -10.30325 -10.30289 -10.30246
 Alpha  occ. eigenvalues --  -10.30070 -10.29954 -10.29819 -10.29669 -10.29367
 Alpha  occ. eigenvalues --  -10.29331 -10.29295 -10.28778 -10.28669 -10.28630
 Alpha  occ. eigenvalues --  -10.28560 -10.28401 -10.28337 -10.28147 -10.28088
 Alpha  occ. eigenvalues --  -10.27930 -10.27829 -10.27764 -10.27625 -10.27603
 Alpha  occ. eigenvalues --  -10.27536 -10.27535 -10.27483 -10.27440 -10.27437
 Alpha  occ. eigenvalues --  -10.27416 -10.27413 -10.27398 -10.27300 -10.27180
 Alpha  occ. eigenvalues --  -10.26985 -10.26733 -10.26654 -10.26479 -10.26363
 Alpha  occ. eigenvalues --  -10.26262 -10.26217 -10.26065 -10.26056 -10.25971
 Alpha  occ. eigenvalues --  -10.25871 -10.25860 -10.25754 -10.25467 -10.25314
 Alpha  occ. eigenvalues --  -10.24867 -10.24824 -10.24800 -10.24723 -10.24666
 Alpha  occ. eigenvalues --  -10.24619  -3.16577  -3.16340  -1.91458  -1.91222
 Alpha  occ. eigenvalues --   -1.91045  -1.90887  -1.90811  -1.90648  -1.16637
 Alpha  occ. eigenvalues --   -1.16597  -1.08650  -1.08588  -1.07269  -1.06906
 Alpha  occ. eigenvalues --   -1.06895  -1.06650  -1.04616  -1.04429  -1.03797
 Alpha  occ. eigenvalues --   -1.03594  -1.03271  -1.02967  -1.02447  -1.02040
 Alpha  occ. eigenvalues --   -0.92003  -0.91919  -0.89554  -0.89423  -0.89218
 Alpha  occ. eigenvalues --   -0.89098  -0.88321  -0.88148  -0.87903  -0.87715
 Alpha  occ. eigenvalues --   -0.87708  -0.87618  -0.87321  -0.87058  -0.85014
 Alpha  occ. eigenvalues --   -0.84944  -0.83969  -0.83805  -0.83018  -0.82870
 Alpha  occ. eigenvalues --   -0.82681  -0.82596  -0.81606  -0.81538  -0.80627
 Alpha  occ. eigenvalues --   -0.80381  -0.78839  -0.78568  -0.77252  -0.77083
 Alpha  occ. eigenvalues --   -0.76960  -0.76840  -0.75950  -0.75780  -0.74929
 Alpha  occ. eigenvalues --   -0.74732  -0.72809  -0.72628  -0.71704  -0.71514
 Alpha  occ. eigenvalues --   -0.69941  -0.69687  -0.68906  -0.68770  -0.67676
 Alpha  occ. eigenvalues --   -0.67536  -0.67255  -0.67149  -0.65316  -0.65215
 Alpha  occ. eigenvalues --   -0.64883  -0.64704  -0.64650  -0.64594  -0.64303
 Alpha  occ. eigenvalues --   -0.64134  -0.62315  -0.62221  -0.60485  -0.60273
 Alpha  occ. eigenvalues --   -0.59837  -0.59737  -0.59020  -0.58925  -0.58536
 Alpha  occ. eigenvalues --   -0.58359  -0.57607  -0.57490  -0.57342  -0.57168
 Alpha  occ. eigenvalues --   -0.56345  -0.56137  -0.55994  -0.55834  -0.55559
 Alpha  occ. eigenvalues --   -0.55392  -0.55366  -0.55180  -0.54546  -0.54425
 Alpha  occ. eigenvalues --   -0.53925  -0.53860  -0.53337  -0.53257  -0.53161
 Alpha  occ. eigenvalues --   -0.53083  -0.52942  -0.52844  -0.52800  -0.52612
 Alpha  occ. eigenvalues --   -0.52472  -0.52332  -0.51945  -0.51799  -0.51651
 Alpha  occ. eigenvalues --   -0.51605  -0.51225  -0.51135  -0.50627  -0.50417
 Alpha  occ. eigenvalues --   -0.50068  -0.49962  -0.49920  -0.49797  -0.49551
 Alpha  occ. eigenvalues --   -0.49429  -0.49248  -0.49141  -0.49125  -0.49043
 Alpha  occ. eigenvalues --   -0.48619  -0.48502  -0.48497  -0.48478  -0.48304
 Alpha  occ. eigenvalues --   -0.48278  -0.47730  -0.47534  -0.47333  -0.47054
 Alpha  occ. eigenvalues --   -0.46830  -0.46644  -0.46586  -0.46500  -0.46393
 Alpha  occ. eigenvalues --   -0.46203  -0.46191  -0.46014  -0.45844  -0.45756
 Alpha  occ. eigenvalues --   -0.45235  -0.45137  -0.44605  -0.44547  -0.44452
 Alpha  occ. eigenvalues --   -0.44416  -0.44181  -0.44120  -0.44066  -0.44052
 Alpha  occ. eigenvalues --   -0.44013  -0.43879  -0.43516  -0.43496  -0.43419
 Alpha  occ. eigenvalues --   -0.43324  -0.43058  -0.42875  -0.42835  -0.42722
 Alpha  occ. eigenvalues --   -0.42675  -0.42485  -0.42041  -0.41902  -0.41735
 Alpha  occ. eigenvalues --   -0.41603  -0.41565  -0.41402  -0.41173  -0.40925
 Alpha  occ. eigenvalues --   -0.40903  -0.40870  -0.40667  -0.40642  -0.40604
 Alpha  occ. eigenvalues --   -0.40424  -0.40265  -0.40182  -0.39476  -0.39355
 Alpha  occ. eigenvalues --   -0.38502  -0.38282  -0.37777  -0.37606  -0.37355
 Alpha  occ. eigenvalues --   -0.37295  -0.37197  -0.37140  -0.36729  -0.36717
 Alpha  occ. eigenvalues --   -0.36217  -0.36152  -0.34321  -0.34184  -0.33808
 Alpha  occ. eigenvalues --   -0.33784  -0.33220  -0.33106  -0.31396  -0.31212
 Alpha  occ. eigenvalues --   -0.31070  -0.30905  -0.30053  -0.29885  -0.29490
 Alpha  occ. eigenvalues --   -0.29357  -0.29259  -0.29138  -0.24116  -0.23966
 Alpha  occ. eigenvalues --   -0.21164  -0.21047
 Alpha virt. eigenvalues --   -0.08812  -0.08722  -0.01787  -0.01614  -0.00100
 Alpha virt. eigenvalues --    0.00035   0.02169   0.02280   0.03078   0.03290
 Alpha virt. eigenvalues --    0.04686   0.04791   0.05086   0.05218   0.06153

 Mulliken charges:
               1
     1  Mg   0.838609
     2  C   -0.002940
     3  C   -0.094227
     4  C   -0.045915
     5  C   -0.063976
     6  N   -0.256787
     7  C   -0.052424
     8  C   -0.013981
     9  C   -0.086975
    10  C    0.046293
    11  C    0.104809
    12  C    0.053496
    13  C   -0.071896
    14  H    0.036465
    15  N   -0.433113
    16  C    0.168313
    17  C   -0.177296
    18  C   -0.004150
    19  C    0.148658
    20  C    0.110203
    21  C    0.012120
    22  O   -0.249638
    23  C    0.062580
    24  N   -0.341148
    25  C    0.041218
    26  C   -0.028184
    27  C   -0.024017
    28  C    0.074903
    29  C    0.076160
    30  C    0.035123
    31  C   -0.004497
    32  N   -0.310524
    33  C    0.080505
    34  C   -0.169657
    35  C    0.008462
    36  C    0.083014
    37  C    0.127289
    38  C    0.046203
    39  O   -0.188119
    40  C   -0.005334
    41  C    0.212919
    42  O   -0.257037
    43  O   -0.304835
    44  C    0.157548
    45  H   -0.017637
    46  H   -0.016877
    47  H   -0.041409
    48  H    0.001086
    49  H   -0.004118
    50  H    0.025557
    51  H    0.016428
    52  H    0.016682
    53  H    0.010931
    54  H    0.044228
    55  H    0.017980
    56  H    0.017758
    57  H    0.005880
    58  H    0.026824
    59  H    0.039082
    60  H    0.037429
    61  H    0.035451
    62  H    0.031060
    63  H    0.016512
    64  H    0.009549
    65  H    0.023222
    66  H    0.012550
    67  H    0.004822
    68  H    0.006453
    69  H    0.004787
    70  H    0.008761
    71  H    0.018165
    72  H    0.028894
    73  H    0.047700
    74  H    0.009126
    75  H    0.046125
    76  H    0.035239
    77  H    0.043174
    78  H    0.046373
    79  H    0.053990
    80  Mg   0.838004
    81  C   -0.016823
    82  C   -0.087849
    83  C   -0.045441
    84  C   -0.064512
    85  N   -0.254533
    86  C   -0.049761
    87  C   -0.015102
    88  C   -0.090540
    89  C    0.045782
    90  C    0.114401
    91  C    0.062585
    92  C   -0.077736
    93  H    0.034677
    94  N   -0.423483
    95  C    0.162871
    96  C   -0.174700
    97  C   -0.007853
    98  C    0.152079
    99  C    0.099408
   100  C    0.015532
   101  O   -0.253240
   102  C    0.061224
   103  N   -0.349986
   104  C    0.037565
   105  C   -0.019885
   106  C   -0.034887
   107  C    0.088944
   108  C    0.073576
   109  C    0.034720
   110  C   -0.007649
   111  N   -0.324170
   112  C    0.078508
   113  C   -0.162836
   114  C    0.002369
   115  C    0.096255
   116  C    0.131431
   117  C    0.042597
   118  O   -0.187785
   119  C    0.000821
   120  C    0.211200
   121  O   -0.251103
   122  O   -0.305609
   123  C    0.152099
   124  H   -0.019931
   125  H   -0.015611
   126  H   -0.040189
   127  H   -0.000732
   128  H   -0.004653
   129  H    0.022765
   130  H    0.014732
   131  H    0.015703
   132  H    0.013878
   133  H    0.037682
   134  H    0.020614
   135  H    0.019415
   136  H    0.008524
   137  H    0.026086
   138  H    0.039576
   139  H    0.038235
   140  H    0.036274
   141  H    0.033765
   142  H    0.014248
   143  H    0.012854
   144  H    0.024930
   145  H    0.011825
   146  H    0.006003
   147  H    0.006217
   148  H    0.003784
   149  H    0.010831
   150  H    0.017841
   151  H    0.030049
   152  H    0.045877
   153  H    0.008556
   154  H    0.047794
   155  H    0.035258
   156  H    0.043803
   157  H    0.049303
   158  H    0.053528
 Sum of Mulliken charges =  -0.00000

 Dipole moment (field-independent basis, Debye):
    X=              3.8137    Y=             -2.2215    Z=              7.4000  Tot=              8.6162
 Quadrupole moment (field-independent basis, Debye-Ang):
   XX=           -517.8627   YY=           -541.5446   ZZ=           -457.4283
   XY=             22.7471   XZ=              4.6553   YZ=             39.0380

 Normal termination of Gaussian 16 at Sat Sep  4 15:13:56 2021.
