 Gaussian 16, Revision A.03,
 Gaussian 16:  ES64L-G16RevA.03 25-Dec-2016

 -----------------------------------
 #p cam-b3lyp/Def2SVP td=(nstates=5)
 -----------------------------------

 --------------------------------
 TDDFT excited states in gaussian
 --------------------------------
 Symbolic Z-matrix:
 Charge =  0 Multiplicity = 1

                         Standard orientation:
 ---------------------------------------------------------------------
 Center     Atomic      Atomic             Coordinates (Angstroms)
 Number     Number       Type             X           Y           Z
 ---------------------------------------------------------------------
      1         12           0       -5.186197    0.546461   -0.649141
      2          6           0       -5.471408   -2.701832    0.827158
      3          6           0       -6.433125    1.815785    2.262396
      4          6           0       -5.371224    3.367788   -2.085283
      5          6           0       -5.053317   -1.036933   -3.750894
      6          7           0       -5.831213   -0.421479    1.234391
      7          6           0       -5.833822   -1.668723    1.694331
      8          6           0       -6.185691   -1.767981    3.208831
      9          6           0       -6.998347   -0.405568    3.368271
     10          6           0       -6.359506    0.391253    2.244490
     11          6           0       -8.489787   -0.548761    3.082607
     12          6           0       -4.909505   -1.783342    4.115938
     13          6           0       -5.146006   -2.203895    5.569402
     14          1           0       -4.119808   -2.979263    6.249894
     15          7           0       -5.341437    2.363298    0.111027
     16          6           0       -5.859715    2.694587    1.318057
     17          6           0       -5.749868    4.165794    1.418875
     18          6           0       -5.300264    4.680260    0.095518
     19          6           0       -5.345463    3.478087   -0.697019
     20          6           0       -6.009434    4.925548    2.683450
     21          6           0       -4.904367    6.041631   -0.382045
     22          8           0       -4.770741    6.314581   -1.623905
     23          6           0       -4.761380    7.084117    0.650341
     24          7           0       -5.430261    1.111190   -2.643922
     25          6           0       -5.418415    2.399639   -3.002729
     26          6           0       -5.324760    2.550822   -4.492129
     27          6           0       -5.028834    1.090758   -5.066929
     28          6           0       -5.088578    0.297483   -3.738239
     29          6           0       -6.565573    3.130359   -5.185333
     30          6           0       -3.777873    0.929462   -5.966649
     31          6           0       -2.525034    1.140046   -5.146194
     32          7           0       -5.070527   -1.501464   -1.358838
     33          6           0       -5.048502   -1.931284   -2.693545
     34          6           0       -5.076024   -3.405359   -2.673189
     35          6           0       -5.129229   -3.732478   -1.319672
     36          6           0       -5.161098   -2.538075   -0.544636
     37          6           0       -5.109815   -4.254079   -3.814665
     38          6           0       -5.191433   -4.812950   -0.348813
     39          8           0       -5.101911   -6.040030   -0.410086
     40          6           0       -5.538362   -4.188422    1.074364
     41          6           0       -4.582416   -4.778605    2.074943
     42          8           0       -3.363075   -4.517516    2.025874
     43          8           0       -5.277549   -5.359530    3.064821
     44          6           0       -4.388642   -5.939533    4.106740
     45          1           0       -7.032218    2.303694    3.033742
     46          1           0       -5.323718    4.319338   -2.618887
     47          1           0       -4.928909   -1.600657   -4.677279
     48          1           0       -6.820922   -2.613509    3.473383
     49          1           0       -6.806463    0.072742    4.328543
     50          1           0       -8.727156   -1.537537    2.690306
     51          1           0       -8.719668    0.219199    2.343767
     52          1           0       -9.078925   -0.300696    3.965872
     53          1           0       -4.567239   -0.760349    4.272146
     54          1           0       -4.133791   -2.413774    3.679876
     55          1           0       -6.123522   -2.670269    5.695361
     56          1           0       -5.194491   -1.303510    6.181902
     57          1           0       -6.482156    4.297927    3.437884
     58          1           0       -6.758277    5.682752    2.451968
     59          1           0       -5.108369    5.404702    3.066629
     60          1           0       -5.707229    7.197774    1.180437
     61          1           0       -4.387166    7.968123    0.135222
     62          1           0       -4.033333    6.750646    1.390405
     63          1           0       -4.506804    3.215492   -4.767059
     64          1           0       -5.848655    0.719578   -5.682390
     65          1           0       -6.361768    4.028568   -5.768760
     66          1           0       -7.319153    3.322413   -4.422100
     67          1           0       -7.091182    2.434309   -5.838531
     68          1           0       -3.776721    1.683378   -6.753132
     69          1           0       -3.714531   -0.048287   -6.444401
     70          1           0       -2.416885    2.224070   -5.140869
     71          1           0       -1.670178    0.664772   -5.628425
     72          1           0       -2.667407    0.821708   -4.113296
     73          1           0       -4.407786   -5.063305   -3.613974
     74          1           0       -4.839908   -3.710937   -4.720065
     75          1           0       -6.155743   -4.560412   -3.807634
     76          1           0       -6.572641   -4.454784    1.289867
     77          1           0       -4.653784   -6.992271    4.205110
     78          1           0       -4.491540   -5.307278    4.988823
     79          1           0       -3.331531   -6.016678    3.850025
     80         12           0        5.332374    0.821855    0.554355
     81          6           0        5.429682   -2.175226   -1.417209
     82          6           0        4.205744   -1.094674    3.141294
     83          6           0        4.806908    3.497272    2.177145
     84          6           0        5.355308    2.620509   -2.430609
     85          7           0        4.912708   -1.343621    0.718245
     86          6           0        5.045497   -2.393863   -0.077794
     87          6           0        4.827702   -3.762528    0.621413
     88          6           0        3.910347   -3.265597    1.842236
     89          6           0        4.392081   -1.819353    1.937042
     90          6           0        2.426544   -3.254260    1.514295
     91          6           0        6.170660   -4.393421    1.131754
     92          6           0        6.074022   -5.863364    1.546098
     93          1           0        7.215859   -6.736048    1.287055
     94          7           0        5.086356    1.115479    2.501623
     95          6           0        4.641541    0.221554    3.409539
     96          6           0        4.621405    0.932254    4.697433
     97          6           0        4.933562    2.365647    4.447128
     98          6           0        4.933918    2.386224    2.998109
     99          6           0        4.404327    0.234336    6.008625
    100          6           0        5.177150    3.528515    5.360693
    101          8           0        5.195356    4.734111    4.925887
    102          6           0        5.300788    3.222096    6.793282
    103          7           0        4.899327    2.767475   -0.036714
    104          6           0        4.770002    3.752635    0.869194
    105          6           0        4.735000    5.106602    0.201417
    106          6           0        5.112335    4.840372   -1.329704
    107          6           0        5.217543    3.299773   -1.300215
    108          6           0        3.401594    5.850268    0.274793
    109          6           0        6.301862    5.651459   -1.912663
    110          6           0        7.592759    5.219015   -1.255406
    111          7           0        5.568192    0.353985   -1.541720
    112          6           0        5.519159    1.255333   -2.627656
    113          6           0        5.616904    0.452955   -3.864198
    114          6           0        5.693460   -0.871937   -3.408908
    115          6           0        5.626397   -0.895217   -1.989587
    116          6           0        5.578268    0.963461   -5.192358
    117          6           0        5.805059   -2.256866   -3.806654
    118          8           0        5.984570   -2.842452   -4.873710
    119          6           0        5.511921   -3.171554   -2.540242
    120          6           0        6.585894   -4.222180   -2.467514
    121          8           0        7.767781   -3.903710   -2.247702
    122          8           0        6.011712   -5.438919   -2.452373
    123          6           0        7.036059   -6.513949   -2.369700
    124          1           0        3.634830   -1.561274    3.944558
    125          1           0        4.734586    4.458119    2.691954
    126          1           0        5.468052    3.114134   -3.398236
    127          1           0        4.293159   -4.495343    0.028933
    128          1           0        4.142885   -3.805648    2.756362
    129          1           0        2.242544   -3.470427    0.472398
    130          1           0        2.078196   -2.260018    1.761672
    131          1           0        1.888391   -3.936193    2.178885
    132          1           0        6.433662   -3.942899    2.097467
    133          1           0        6.948869   -4.273740    0.403266
    134          1           0        5.145879   -6.330445    1.194917
    135          1           0        6.003513   -5.912933    2.635406
    136          1           0        4.037368   -0.789231    5.863574
    137          1           0        3.579510    0.749752    6.512486
    138          1           0        5.285784    0.264225    6.652689
    139          1           0        4.393927    2.730199    7.136945
    140          1           0        5.560939    4.167657    7.272983
    141          1           0        6.118269    2.505114    6.928411
    142          1           0        5.472710    5.770730    0.634805
    143          1           0        4.278219    5.085562   -2.003481
    144          1           0        3.485132    6.851460    0.738160
    145          1           0        2.697834    5.236100    0.820755
    146          1           0        2.896341    5.987716   -0.679685
    147          1           0        6.180923    6.714377   -1.689657
    148          1           0        6.402490    5.557593   -2.988795
    149          1           0        7.603897    5.799274   -0.327907
    150          1           0        8.444856    5.465701   -1.885577
    151          1           0        7.558316    4.158443   -0.980335
    152          1           0        6.351158    0.447861   -5.746698
    153          1           0        5.727858    2.041024   -5.208628
    154          1           0        4.560202    0.686014   -5.478413
    155          1           0        4.521069   -3.607519   -2.673310
    156          1           0        6.864919   -7.184238   -3.217701
    157          1           0        6.933759   -6.946821   -1.356821
    158          1           0        8.070898   -6.233387   -2.527371
 ---------------------------------------------------------------------

 SCF Done:  E(RCAM-B3LYP) =  -4069.81222396     A.U. after   19 cycles

 Excitation energies and oscillator strengths:

 Excited State   1:      Singlet-A      1.6652 eV  744.56 nm  f=0.1615  <S**2>=0.000
     309 -> 315       -0.10489
     310 -> 316        0.13483
     311 -> 313       -0.41918
     312 -> 314        0.54381
 This state for optimization and/or second-order correction.
 Total Energy, E(TD-HF/TD-DFT) =  -4069.75102882
 Copying the excited state density for this state as the 1-particle RhoCI density.

 Excited State   2:      Singlet-A      1.6860 eV  735.36 nm  f=0.5474  <S**2>=0.000
     309 -> 315        0.14058
     310 -> 316        0.10670
     311 -> 313        0.54261
     312 -> 314        0.41829

 Excited State   3:      Singlet-A      2.1830 eV  567.95 nm  f=0.0722  <S**2>=0.000
     309 -> 313       -0.18017
     310 -> 314        0.61783
     312 -> 316       -0.25879

 Excited State   4:      Singlet-A      2.1942 eV  565.07 nm  f=0.1203  <S**2>=0.000
     309 -> 313        0.61470
     310 -> 314        0.17824
     311 -> 315       -0.26845

 Excited State   5:      Singlet-A      2.4756 eV  500.83 nm  f=0.0000  <S**2>=0.000
     312 -> 313        0.70709

 The electronic state is 1-A.
 Alpha  occ. eigenvalues --  -46.87895 -46.87472 -19.26521 -19.26125 -19.19261
 Alpha  occ. eigenvalues --  -19.18952 -19.18892 -19.18607 -19.18296 -19.17873
 Alpha  occ. eigenvalues --  -14.42555 -14.42281 -14.41541 -14.41177 -14.39498
 Alpha  occ. eigenvalues --  -14.39172 -14.38688 -14.38416 -10.39309 -10.38879
 Alpha  occ. eigenvalues --  -10.35523 -10.35289 -10.34520 -10.34044 -10.31949
 Alpha  occ. eigenvalues --  -10.31536 -10.31517 -10.31071 -10.31025 -10.30803
 Alpha  occ. eigenvalues --  -10.30671 -10.30602 -10.30284 -10.30230 -10.30173
 Alpha  occ. eigenvalues --  -10.30010 -10.29974 -10.29726 -10.29724 -10.29341
 Alpha  occ. eigenvalues --  -10.29265 -10.29239 -10.28902 -10.28769 -10.28471
 Alpha  occ. eigenvalues --  -10.28404 -10.28383 -10.28248 -10.28217 -10.27887
 Alpha  occ. eigenvalues --  -10.27829 -10.27826 -10.27766 -10.27675 -10.27554
 Alpha  occ. eigenvalues --  -10.27552 -10.27516 -10.27512 -10.27451 -10.27374
 Alpha  occ. eigenvalues --  -10.27343 -10.27311 -10.27311 -10.27283 -10.27239
 Alpha  occ. eigenvalues --  -10.26910 -10.26834 -10.26463 -10.26427 -10.26350
 Alpha  occ. eigenvalues --  -10.26349 -10.26211 -10.26101 -10.26015 -10.25908
 Alpha  occ. eigenvalues --  -10.25760 -10.25719 -10.25490 -10.25434 -10.25275
 Alpha  occ. eigenvalues --  -10.24934 -10.24881 -10.24713 -10.24698 -10.24617
 Alpha  occ. eigenvalues --  -10.24520  -3.16638  -3.16222  -1.91520  -1.91106
 Alpha  occ. eigenvalues --   -1.91104  -1.90948  -1.90692  -1.90530  -1.16869
 Alpha  occ. eigenvalues --   -1.16423  -1.08762  -1.08477  -1.07292  -1.06878
 Alpha  occ. eigenvalues --   -1.06863  -1.06736  -1.04689  -1.04279  -1.03855
 Alpha  occ. eigenvalues --   -1.03473  -1.03329  -1.02862  -1.02507  -1.01928
 Alpha  occ. eigenvalues --   -0.92090  -0.91787  -0.89596  -0.89331  -0.89327
 Alpha  occ. eigenvalues --   -0.88829  -0.88361  -0.88065  -0.87960  -0.87781
 Alpha  occ. eigenvalues --   -0.87627  -0.87475  -0.87355  -0.86984  -0.85116
 Alpha  occ. eigenvalues --   -0.84739  -0.84012  -0.83728  -0.83038  -0.82815
 Alpha  occ. eigenvalues --   -0.82774  -0.82418  -0.81744  -0.81393  -0.80720
 Alpha  occ. eigenvalues --   -0.80250  -0.78883  -0.78478  -0.77321  -0.77073
 Alpha  occ. eigenvalues --   -0.76941  -0.76658  -0.76057  -0.75566  -0.74985
 Alpha  occ. eigenvalues --   -0.74631  -0.72867  -0.72514  -0.71778  -0.71354
 Alpha  occ. eigenvalues --   -0.69965  -0.69608  -0.68998  -0.68584  -0.67749
 Alpha  occ. eigenvalues --   -0.67426  -0.67360  -0.66986  -0.65424  -0.65020
 Alpha  occ. eigenvalues --   -0.64976  -0.64741  -0.64575  -0.64437  -0.64351
 Alpha  occ. eigenvalues --   -0.64037  -0.62464  -0.62079  -0.60523  -0.60193
 Alpha  occ. eigenvalues --   -0.59928  -0.59528  -0.59092  -0.58802  -0.58613
 Alpha  occ. eigenvalues --   -0.58238  -0.57739  -0.57406  -0.57354  -0.57075
 Alpha  occ. eigenvalues --   -0.56416  -0.56161  -0.56025  -0.55676  -0.55621
 Alpha  occ. eigenvalues --   -0.55448  -0.55277  -0.55078  -0.54655  -0.54310
 Alpha  occ. eigenvalues --   -0.54038  -0.53610  -0.53393  -0.53344  -0.53062
 Alpha  occ. eigenvalues --   -0.53057  -0.52940  -0.52853  -0.52701  -0.52495
 Alpha  occ. eigenvalues --   -0.52474  -0.52261  -0.52002  -0.51750  -0.51733
 Alpha  occ. eigenvalues --   -0.51426  -0.51310  -0.51009  -0.50641  -0.50349
 Alpha  occ. eigenvalues --   -0.50104  -0.50009  -0.49785  -0.49697  -0.49632
 Alpha  occ. eigenvalues --   -0.49330  -0.49276  -0.49224  -0.49001  -0.48814
 Alpha  occ. eigenvalues --   -0.48729  -0.48562  -0.48535  -0.48327  -0.48227
 Alpha  occ. eigenvalues --   -0.48180  -0.47803  -0.47395  -0.47390  -0.46951
 Alpha  occ. eigenvalues --   -0.46896  -0.46696  -0.46512  -0.46460  -0.46282
 Alpha  occ. eigenvalues --   -0.46267  -0.46101  -0.45955  -0.45914  -0.45617
 Alpha  occ. eigenvalues --   -0.45280  -0.45047  -0.44703  -0.44607  -0.44330
 Alpha  occ. eigenvalues --   -0.44246  -0.44246  -0.44204  -0.44132  -0.43925
 Alpha  occ. eigenvalues --   -0.43855  -0.43760  -0.43642  -0.43497  -0.43349
 Alpha  occ. eigenvalues --   -0.43160  -0.43135  -0.42892  -0.42733  -0.42727
 Alpha  occ. eigenvalues --   -0.42700  -0.42401  -0.42108  -0.41817  -0.41779
 Alpha  occ. eigenvalues --   -0.41666  -0.41469  -0.41249  -0.41222  -0.40989
 Alpha  occ. eigenvalues --   -0.40919  -0.40748  -0.40652  -0.40569  -0.40468
 Alpha  occ. eigenvalues --   -0.40400  -0.40284  -0.39972  -0.39496  -0.39282
 Alpha  occ. eigenvalues --   -0.38555  -0.38173  -0.37913  -0.37417  -0.37406
 Alpha  occ. eigenvalues --   -0.37397  -0.37082  -0.36961  -0.36902  -0.36571
 Alpha  occ. eigenvalues --   -0.36322  -0.36023  -0.34388  -0.34060  -0.33989
 Alpha  occ. eigenvalues --   -0.33659  -0.33292  -0.32990  -0.31423  -0.31163
 Alpha  occ. eigenvalues --   -0.31140  -0.30778  -0.30159  -0.29773  -0.29541
 Alpha  occ. eigenvalues --   -0.29420  -0.29171  -0.29040  -0.24182  -0.23844
 Alpha  occ. eigenvalues --   -0.21223  -0.20929
 Alpha virt. eigenvalues --   -0.08870  -0.08617  -0.01843  -0.01504  -0.00153
 Alpha virt. eigenvalues --    0.00139   0.02094   0.02379   0.03007   0.03401
 Alpha virt. eigenvalues --    0.04590   0.04885   0.04965   0.05376   0.05989

 Mulliken charges:
               1
     1  Mg   0.838648
     2  C   -0.003645
     3  C   -0.094262
     4  C   -0.045708
     5  C   -0.063477
     6  N   -0.256781
     7  C   -0.052703
     8  C   -0.014045
     9  C   -0.086976
    10  C    0.046174
    11  C    0.104746
    12  C    0.053603
    13  C   -0.071250
    14  H    0.033924
    15  N   -0.433206
    16  C    0.168525
    17  C   -0.176919
    18  C   -0.003736
    19  C    0.148726
    20  C    0.110053
    21  C    0.012351
    22  O   -0.249607
    23  C    0.062339
    24  N   -0.341102
    25  C    0.041365
    26  C   -0.028250
    27  C   -0.024025
    28  C    0.074691
    29  C    0.076120
    30  C    0.035027
    31  C   -0.004632
    32  N   -0.310371
    33  C    0.080188
    34  C   -0.169489
    35  C    0.008139
    36  C    0.082721
    37  C    0.127326
    38  C    0.045692
    39  O   -0.188811
    40  C   -0.005256
    41  C    0.213131
    42  O   -0.258961
    43  O   -0.304200
    44  C    0.158193
    45  H   -0.017475
    46  H   -0.016637
    47  H   -0.040866
    48  H    0.000918
    49  H   -0.004159
    50  H    0.025537
    51  H    0.016792
    52  H    0.016796
    53  H    0.011215
    54  H    0.042757
    55  H    0.018501
    56  H    0.018260
    57  H    0.005783
    58  H    0.027063
    59  H    0.040148
    60  H    0.037471
    61  H    0.035795
    62  H    0.032048
    63  H    0.016570
    64  H    0.009725
    65  H    0.023365
    66  H    0.012517
    67  H    0.005032
    68  H    0.006567
    69  H    0.005431
    70  H    0.008256
    71  H    0.019215
    72  H    0.028686
    73  H    0.047561
    74  H    0.009849
    75  H    0.046119
    76  H    0.035414
    77  H    0.043356
    78  H    0.046387
    79  H    0.051730
    80  Mg   0.837844
    81  C   -0.016808
    82  C   -0.087474
    83  C   -0.046247
    84  C   -0.065181
    85  N   -0.254877
    86  C   -0.048790
    87  C   -0.015324
    88  C   -0.090668
    89  C    0.046138
    90  C    0.114693
    91  C    0.062430
    92  C   -0.077715
    93  H    0.033658
    94  N   -0.423483
    95  C    0.162893
    96  C   -0.174837
    97  C   -0.008551
    98  C    0.152358
    99  C    0.099612
   100  C    0.015006
   101  O   -0.253969
   102  C    0.061406
   103  N   -0.350125
   104  C    0.037662
   105  C   -0.019790
   106  C   -0.034818
   107  C    0.089005
   108  C    0.073656
   109  C    0.034845
   110  C   -0.007575
   111  N   -0.324110
   112  C    0.078644
   113  C   -0.163513
   114  C    0.002312
   115  C    0.096185
   116  C    0.131546
   117  C    0.042105
   118  O   -0.188259
   119  C    0.001088
   120  C    0.211133
   121  O   -0.251533
   122  O   -0.304978
   123  C    0.152256
   124  H   -0.018844
   125  H   -0.016479
   126  H   -0.040940
   127  H    0.001046
   128  H   -0.005149
   129  H    0.024716
   130  H    0.014275
   131  H    0.021322
   132  H    0.013190
   133  H    0.036964
   134  H    0.022420
   135  H    0.019227
   136  H    0.009124
   137  H    0.025001
   138  H    0.039236
   139  H    0.037582
   140  H    0.035643
   141  H    0.033982
   142  H    0.013893
   143  H    0.012649
   144  H    0.024236
   145  H    0.011086
   146  H    0.006603
   147  H    0.005923
   148  H    0.003482
   149  H    0.010633
   150  H    0.017568
   151  H    0.030320
   152  H    0.045685
   153  H    0.008211
   154  H    0.046390
   155  H    0.036515
   156  H    0.043786
   157  H    0.049884
   158  H    0.052968
 Sum of Mulliken charges =  -0.00000

 Dipole moment (field-independent basis, Debye):
    X=             -5.0030    Y=              1.8409    Z=              6.0665  Tot=              8.0760
 Quadrupole moment (field-independent basis, Debye-Ang):
   XX=           -518.3704   YY=           -526.9340   ZZ=           -473.2184
   XY=            -13.8191   XZ=              1.5769   YZ=            -26.7198

 Normal termination of Gaussian 16 at Sat Sep  4 06:11:07 2021.
