 Gaussian 16, Revision A.03,
 Gaussian 16:  ES64L-G16RevA.03 25-Dec-2016

 -----------------------------------
 #p cam-b3lyp/Def2SVP td=(nstates=5)
 -----------------------------------

 --------------------------------
 TDDFT excited states in gaussian
 --------------------------------
 Symbolic Z-matrix:
 Charge =  0 Multiplicity = 1

                         Standard orientation:
 ---------------------------------------------------------------------
 Center     Atomic      Atomic             Coordinates (Angstroms)
 Number     Number       Type             X           Y           Z
 ---------------------------------------------------------------------
      1         12           0       -6.539204   -0.722305    0.006022
      2          6           0       -6.721666    2.790921    0.666449
      3          6           0       -7.373250   -0.007254   -3.224479
      4          6           0       -6.829320   -3.840251   -0.494839
      5          6           0       -6.842293   -1.233767    3.440000
      6          7           0       -6.966141    1.188509   -1.027013
      7          6           0       -6.943731    2.470099   -0.674597
      8          6           0       -7.103559    3.445015   -1.879324
      9          6           0       -7.852904    2.470198   -2.894317
     10          6           0       -7.340468    1.138384   -2.375084
     11          6           0       -9.371790    2.499073   -2.757735
     12          6           0       -5.723670    3.915791   -2.450296
     13          6           0       -5.785386    5.111007   -3.405808
     14          1           0       -4.702322    6.082499   -3.382947
     15          7           0       -6.548502   -1.753862   -1.678809
     16          6           0       -6.900795   -1.298646   -2.905167
     17          6           0       -6.739912   -2.443870   -3.826721
     18          6           0       -6.447911   -3.651380   -3.005290
     19          6           0       -6.625089   -3.128571   -1.674630
     20          6           0       -6.816966   -2.317663   -5.317320
     21          6           0       -6.079528   -5.056513   -3.363103
     22          8           0       -6.096968   -6.003841   -2.504710
     23          6           0       -5.779274   -5.315687   -4.782863
     24          7           0       -7.018701   -2.322977    1.257247
     25          6           0       -7.018052   -3.580110    0.800519
     26          6           0       -7.109708   -4.569372    1.924307
     27          6           0       -6.927934   -3.728402    3.269476
     28          6           0       -6.840104   -2.311064    2.651650
     29          6           0       -8.412410   -5.377623    1.999848
     30          6           0       -5.805683   -4.182373    4.236368
     31          6           0       -4.453896   -3.944453    3.601416
     32          7           0       -6.568911    0.528642    1.779520
     33          6           0       -6.727490    0.105596    3.107134
     34          6           0       -6.791476    1.318952    3.942444
     35          6           0       -6.681599    2.370775    3.035008
     36          6           0       -6.583263    1.848176    1.713829
     37          6           0       -6.992099    1.351607    5.350676
     38          6           0       -6.649160    3.815139    2.871860
     39          8           0       -6.600839    4.774111    3.643566
     40          6           0       -6.796368    4.147700    1.321518
     41          6           0       -5.737509    5.157172    0.970673
     42          8           0       -4.527672    4.852874    1.003250
     43          8           0       -6.316964    6.238700    0.427466
     44          6           0       -5.319077    7.267274    0.029457
     45          1           0       -7.856660    0.072692   -4.200114
     46          1           0       -6.824414   -4.926026   -0.611062
     47          1           0       -6.851225   -1.316982    4.528323
     48          1           0       -7.722487    4.319414   -1.677385
     49          1           0       -7.528323    2.626119   -3.922937
     50          1           0       -9.683170    3.089576   -1.896185
     51          1           0       -9.672813    1.458498   -2.634928
     52          1           0       -9.837551    2.838498   -3.683281
     53          1           0       -5.337251    3.155448   -3.128986
     54          1           0       -5.026475    4.136599   -1.641292
     55          1           0       -6.751168    5.614344   -3.352637
     56          1           0       -5.731936    4.734660   -4.427428
     57          1           0       -7.206929   -1.345827   -5.617335
     58          1           0       -7.568648   -3.029117   -5.658663
     59          1           0       -5.862199   -2.533003   -5.797300
     60          1           0       -6.647039   -5.052532   -5.388076
     61          1           0       -5.449865   -6.352752   -4.836100
     62          1           0       -4.972541   -4.654036   -5.099643
     63          1           0       -6.315722   -5.312015    1.857280
     64          1           0       -7.828670   -3.739519    3.883664
     65          1           0       -8.260247   -6.456902    1.973236
     66          1           0       -9.057919   -5.053466    1.184046
     67          1           0       -9.034838   -5.161349    2.867734
     68          1           0       -5.884020   -5.251068    4.433091
     69          1           0       -5.829404   -3.665886    5.196019
     70          1           0       -4.317101   -4.829577    2.981194
     71          1           0       -3.679934   -3.880781    4.367014
     72          1           0       -4.472793   -3.080558    2.936725
     73          1           0       -6.292122    2.090042    5.741463
     74          1           0       -6.824609    0.371787    5.797333
     75          1           0       -8.036509    1.659423    5.398767
     76          1           0       -7.801770    4.542924    1.179788
     77          1           0       -5.597585    8.195048    0.529359
     78          1           0       -5.292598    7.267955   -1.060361
     79          1           0       -4.305403    7.126706    0.406344
     80         12           0        6.696338   -0.823438    0.144652
     81          6           0        6.520720    2.752625   -0.100274
     82          6           0        5.854699   -0.941694   -3.158715
     83          6           0        6.401490   -3.969307    0.434546
     84          6           0        6.393731   -0.462932    3.597795
     85          7           0        6.269156    0.767586   -1.331287
     86          6           0        6.293290    2.091870   -1.325476
     87          6           0        6.140257    2.744101   -2.725741
     88          6           0        5.379289    1.541290   -3.469416
     89          6           0        5.888581    0.372660   -2.628219
     90          6           0        3.867562    1.607563   -3.329283
     91          6           0        7.525029    3.050042   -3.397178
     92          6           0        7.457519    3.963659   -4.622948
     93          1           0        8.549033    4.907073   -4.848845
     94          7           0        6.684415   -2.245212   -1.239900
     95          6           0        6.336923   -2.114615   -2.537390
     96          6           0        6.477688   -3.454410   -3.128411
     97          6           0        6.777946   -4.419691   -2.036254
     98          6           0        6.608673   -3.566939   -0.876845
     99          6           0        6.406324   -3.703074   -4.607091
    100          6           0        7.142893   -5.873313   -2.034890
    101          8           0        7.126489   -6.570653   -0.959586
    102          6           0        7.429452   -6.478528   -3.343738
    103          7           0        6.223665   -2.053019    1.753091
    104          6           0        6.214964   -3.391102    1.621219
    105          6           0        6.120454   -4.071167    2.966196
    106          6           0        6.311962   -2.910054    4.049121
    107          6           0        6.398779   -1.692853    3.102405
    108          6           0        4.815158   -4.816190    3.244664
    109          6           0        7.435920   -3.108692    5.102652
    110          6           0        8.788928   -3.053080    4.430605
    111          7           0        6.678312    0.825442    1.540686
    112          6           0        6.514631    0.755301    2.941536
    113          6           0        6.455695    2.143632    3.443030
    114          6           0        6.566955    2.931392    2.287377
    115          6           0        6.666479    2.093158    1.144147
    116          6           0        6.268576    2.530718    4.799963
    117          6           0        6.612162    4.281455    1.773576
    118          8           0        6.657266    5.402241    2.279081
    119          6           0        6.457054    4.225965    0.192674
    120          6           0        7.517644    5.106481   -0.409289
    121          8           0        8.721401    4.817834   -0.289934
    122          8           0        6.932583    6.018915   -1.206489
    123          6           0        7.944741    6.908822   -1.835321
    124          1           0        5.375572   -1.098779   -4.125485
    125          1           0        6.403212   -5.048799    0.602390
    126          1           0        6.398972   -0.266246    4.672023
    127          1           0        5.529941    3.639025   -2.745767
    128          1           0        5.709996    1.441903   -4.500000
    129          1           0        3.559714    2.389481   -2.651075
    130          1           0        3.564283    0.639309   -2.953050
    131          1           0        3.401766    1.707728   -4.313821
    132          1           0        7.905614    2.133747   -3.866532
    133          1           0        8.214012    3.455373   -2.681896
    134          1           0        6.488285    4.470151   -4.706649
    135          1           0        7.514557    3.344001   -5.521159
    136          1           0        6.010897   -2.831360   -5.142964
    137          1           0        5.653419   -4.483014   -4.764202
    138          1           0        7.357546   -4.041046   -5.023764
    139          1           0        6.562495   -6.367303   -3.990633
    140          1           0        7.756982   -7.497602   -3.129053
    141          1           0        8.247241   -5.921998   -3.815007
    142          1           0        6.912916   -4.799374    3.087876
    143          1           0        5.408034   -2.769333    4.659817
    144          1           0        4.966164   -5.884202    3.490910
    145          1           0        4.171929   -4.712370    2.380938
    146          1           0        4.203405   -4.394469    4.040335
    147          1           0        7.356533   -4.098390    5.559103
    148          1           0        7.408364   -2.380311    5.906208
    149          1           0        8.916711   -4.070340    4.048569
    150          1           0        9.564553   -2.801772    5.151217
    151          1           0        8.772465   -2.376706    3.568116
    152          1           0        6.963993    3.336837    4.992496
    153          1           0        6.429976    1.695007    5.477687
    154          1           0        5.220288    2.839850    4.771821
    155          1           0        5.451542    4.571738   -0.050177
    156          1           0        7.666165    7.936962   -1.584310
    157          1           0        7.955998    6.637512   -2.907702
    158          1           0        8.957693    6.864734   -1.452637
 ---------------------------------------------------------------------

 SCF Done:  E(RCAM-B3LYP) =  -4069.81158491     A.U. after   19 cycles

 Excitation energies and oscillator strengths:

 Excited State   1:      Singlet-A      1.6657 eV  744.33 nm  f=0.0203  <S**2>=0.000
     309 -> 315       -0.11042
     310 -> 316        0.13113
     311 -> 313       -0.44077
     312 -> 314        0.52643
 This state for optimization and/or second-order correction.
 Total Energy, E(TD-HF/TD-DFT) =  -4069.75037134
 Copying the excited state density for this state as the 1-particle RhoCI density.

 Excited State   2:      Singlet-A      1.6889 eV  734.10 nm  f=0.7218  <S**2>=0.000
     309 -> 315        0.13639
     310 -> 316        0.11365
     311 -> 313        0.52527
     312 -> 314        0.43990

 Excited State   3:      Singlet-A      2.1849 eV  567.47 nm  f=0.0421  <S**2>=0.000
     309 -> 313       -0.20237
     310 -> 314        0.61034
     312 -> 316       -0.25850

 Excited State   4:      Singlet-A      2.1930 eV  565.36 nm  f=0.1476  <S**2>=0.000
     309 -> 313        0.60805
     310 -> 314        0.20069
     311 -> 315       -0.26472

 Excited State   5:      Singlet-A      2.6497 eV  467.91 nm  f=0.0000  <S**2>=0.000
     312 -> 313        0.70710

 The electronic state is 1-A.
 Alpha  occ. eigenvalues --  -46.87851 -46.87551 -19.26301 -19.26253 -19.19062
 Alpha  occ. eigenvalues --  -19.19041 -19.18877 -19.18623 -19.18204 -19.17925
 Alpha  occ. eigenvalues --  -14.42505 -14.42391 -14.41501 -14.41250 -14.39458
 Alpha  occ. eigenvalues --  -14.39245 -14.38638 -14.38486 -10.39102 -10.38989
 Alpha  occ. eigenvalues --  -10.35512 -10.35302 -10.34424 -10.34102 -10.31685
 Alpha  occ. eigenvalues --  -10.31676 -10.31456 -10.31199 -10.30966 -10.30924
 Alpha  occ. eigenvalues --  -10.30621 -10.30558 -10.30284 -10.30262 -10.30247
 Alpha  occ. eigenvalues --  -10.30039 -10.29967 -10.29780 -10.29683 -10.29332
 Alpha  occ. eigenvalues --  -10.29311 -10.29291 -10.28808 -10.28627 -10.28612
 Alpha  occ. eigenvalues --  -10.28601 -10.28417 -10.28295 -10.28175 -10.28047
 Alpha  occ. eigenvalues --  -10.27888 -10.27843 -10.27783 -10.27641 -10.27567
 Alpha  occ. eigenvalues --  -10.27560 -10.27547 -10.27493 -10.27454 -10.27417
 Alpha  occ. eigenvalues --  -10.27395 -10.27374 -10.27361 -10.27274 -10.27193
 Alpha  occ. eigenvalues --  -10.26927 -10.26776 -10.26620 -10.26491 -10.26344
 Alpha  occ. eigenvalues --  -10.26285 -10.26230 -10.26071 -10.26048 -10.25919
 Alpha  occ. eigenvalues --  -10.25878 -10.25825 -10.25701 -10.25474 -10.25294
 Alpha  occ. eigenvalues --  -10.24881 -10.24838 -10.24755 -10.24736 -10.24647
 Alpha  occ. eigenvalues --  -10.24581  -3.16594  -3.16301  -1.91475  -1.91183
 Alpha  occ. eigenvalues --   -1.91062  -1.90904  -1.90772  -1.90608  -1.16651
 Alpha  occ. eigenvalues --   -1.16547  -1.08659  -1.08531  -1.07278  -1.06876
 Alpha  occ. eigenvalues --   -1.06846  -1.06663  -1.04635  -1.04388  -1.03813
 Alpha  occ. eigenvalues --   -1.03555  -1.03286  -1.02929  -1.02463  -1.02001
 Alpha  occ. eigenvalues --   -0.92019  -0.91874  -0.89568  -0.89390  -0.89246
 Alpha  occ. eigenvalues --   -0.89057  -0.88334  -0.88118  -0.87916  -0.87728
 Alpha  occ. eigenvalues --   -0.87670  -0.87581  -0.87338  -0.87027  -0.85040
 Alpha  occ. eigenvalues --   -0.84906  -0.83981  -0.83776  -0.83032  -0.82844
 Alpha  occ. eigenvalues --   -0.82703  -0.82560  -0.81622  -0.81494  -0.80644
 Alpha  occ. eigenvalues --   -0.80341  -0.78855  -0.78533  -0.77272  -0.77047
 Alpha  occ. eigenvalues --   -0.76982  -0.76802  -0.75969  -0.75738  -0.74942
 Alpha  occ. eigenvalues --   -0.74701  -0.72824  -0.72588  -0.71721  -0.71476
 Alpha  occ. eigenvalues --   -0.69955  -0.69661  -0.68929  -0.68732  -0.67692
 Alpha  occ. eigenvalues --   -0.67498  -0.67284  -0.67115  -0.65341  -0.65175
 Alpha  occ. eigenvalues --   -0.64899  -0.64668  -0.64665  -0.64554  -0.64317
 Alpha  occ. eigenvalues --   -0.64102  -0.62329  -0.62178  -0.60500  -0.60241
 Alpha  occ. eigenvalues --   -0.59860  -0.59696  -0.59036  -0.58886  -0.58551
 Alpha  occ. eigenvalues --   -0.58319  -0.57621  -0.57440  -0.57355  -0.57132
 Alpha  occ. eigenvalues --   -0.56361  -0.56098  -0.56012  -0.55792  -0.55575
 Alpha  occ. eigenvalues --   -0.55379  -0.55355  -0.55144  -0.54559  -0.54389
 Alpha  occ. eigenvalues --   -0.53953  -0.53820  -0.53353  -0.53278  -0.53126
 Alpha  occ. eigenvalues --   -0.53045  -0.52958  -0.52820  -0.52805  -0.52583
 Alpha  occ. eigenvalues --   -0.52485  -0.52307  -0.51955  -0.51749  -0.51675
 Alpha  occ. eigenvalues --   -0.51569  -0.51240  -0.51094  -0.50645  -0.50393
 Alpha  occ. eigenvalues --   -0.50083  -0.49979  -0.49885  -0.49769  -0.49571
 Alpha  occ. eigenvalues --   -0.49394  -0.49263  -0.49147  -0.49099  -0.48999
 Alpha  occ. eigenvalues --   -0.48635  -0.48515  -0.48490  -0.48455  -0.48272
 Alpha  occ. eigenvalues --   -0.48244  -0.47748  -0.47500  -0.47349  -0.47023
 Alpha  occ. eigenvalues --   -0.46848  -0.46612  -0.46608  -0.46463  -0.46408
 Alpha  occ. eigenvalues --   -0.46204  -0.46167  -0.45975  -0.45859  -0.45710
 Alpha  occ. eigenvalues --   -0.45248  -0.45106  -0.44620  -0.44567  -0.44411
 Alpha  occ. eigenvalues --   -0.44378  -0.44196  -0.44144  -0.44066  -0.44026
 Alpha  occ. eigenvalues --   -0.43981  -0.43841  -0.43531  -0.43454  -0.43439
 Alpha  occ. eigenvalues --   -0.43285  -0.43074  -0.42831  -0.42792  -0.42736
 Alpha  occ. eigenvalues --   -0.42689  -0.42456  -0.42058  -0.41869  -0.41750
 Alpha  occ. eigenvalues --   -0.41591  -0.41558  -0.41367  -0.41191  -0.40926
 Alpha  occ. eigenvalues --   -0.40887  -0.40886  -0.40635  -0.40619  -0.40609
 Alpha  occ. eigenvalues --   -0.40393  -0.40301  -0.40148  -0.39489  -0.39330
 Alpha  occ. eigenvalues --   -0.38519  -0.38252  -0.37810  -0.37571  -0.37370
 Alpha  occ. eigenvalues --   -0.37320  -0.37164  -0.37101  -0.36743  -0.36673
 Alpha  occ. eigenvalues --   -0.36233  -0.36116  -0.34337  -0.34144  -0.33797
 Alpha  occ. eigenvalues --   -0.33761  -0.33236  -0.33067  -0.31406  -0.31181
 Alpha  occ. eigenvalues --   -0.31087  -0.30866  -0.30062  -0.29829  -0.29505
 Alpha  occ. eigenvalues --   -0.29370  -0.29221  -0.29092  -0.24132  -0.23925
 Alpha  occ. eigenvalues --   -0.21180  -0.21008
 Alpha virt. eigenvalues --   -0.08827  -0.08682  -0.01803  -0.01577  -0.00115
 Alpha virt. eigenvalues --    0.00072   0.02157   0.02327   0.03057   0.03323
 Alpha virt. eigenvalues --    0.04662   0.04830   0.05073   0.05268   0.06117

 Mulliken charges:
               1
     1  Mg   0.838540
     2  C   -0.002971
     3  C   -0.094441
     4  C   -0.045822
     5  C   -0.063920
     6  N   -0.256768
     7  C   -0.052491
     8  C   -0.013954
     9  C   -0.086934
    10  C    0.046202
    11  C    0.104809
    12  C    0.053598
    13  C   -0.071734
    14  H    0.036037
    15  N   -0.433116
    16  C    0.168256
    17  C   -0.177428
    18  C   -0.004128
    19  C    0.148637
    20  C    0.110245
    21  C    0.012196
    22  O   -0.249435
    23  C    0.062590
    24  N   -0.341106
    25  C    0.041202
    26  C   -0.028217
    27  C   -0.023995
    28  C    0.074862
    29  C    0.076134
    30  C    0.035105
    31  C   -0.004484
    32  N   -0.310534
    33  C    0.080491
    34  C   -0.169572
    35  C    0.008547
    36  C    0.083038
    37  C    0.127264
    38  C    0.046313
    39  O   -0.187869
    40  C   -0.005400
    41  C    0.212994
    42  O   -0.257005
    43  O   -0.304860
    44  C    0.157461
    45  H   -0.017704
    46  H   -0.016759
    47  H   -0.041353
    48  H    0.001148
    49  H   -0.004317
    50  H    0.025614
    51  H    0.016499
    52  H    0.016635
    53  H    0.010614
    54  H    0.044206
    55  H    0.018164
    56  H    0.017541
    57  H    0.005747
    58  H    0.026895
    59  H    0.038813
    60  H    0.037390
    61  H    0.035664
    62  H    0.030838
    63  H    0.016628
    64  H    0.009586
    65  H    0.023319
    66  H    0.012548
    67  H    0.004836
    68  H    0.006503
    69  H    0.004759
    70  H    0.008941
    71  H    0.017933
    72  H    0.028915
    73  H    0.047885
    74  H    0.009123
    75  H    0.046169
    76  H    0.035253
    77  H    0.043340
    78  H    0.046105
    79  H    0.054184
    80  Mg   0.838050
    81  C   -0.016704
    82  C   -0.087896
    83  C   -0.045472
    84  C   -0.064508
    85  N   -0.254532
    86  C   -0.049483
    87  C   -0.015116
    88  C   -0.090613
    89  C    0.045867
    90  C    0.114397
    91  C    0.062600
    92  C   -0.077650
    93  H    0.034578
    94  N   -0.423459
    95  C    0.162865
    96  C   -0.174882
    97  C   -0.007914
    98  C    0.152020
    99  C    0.099514
   100  C    0.015467
   101  O   -0.253308
   102  C    0.061268
   103  N   -0.349974
   104  C    0.037536
   105  C   -0.019831
   106  C   -0.034865
   107  C    0.089004
   108  C    0.073674
   109  C    0.034753
   110  C   -0.007626
   111  N   -0.324274
   112  C    0.078668
   113  C   -0.162645
   114  C    0.002701
   115  C    0.096273
   116  C    0.131309
   117  C    0.042928
   118  O   -0.187436
   119  C    0.000673
   120  C    0.211154
   121  O   -0.251256
   122  O   -0.305454
   123  C    0.152126
   124  H   -0.020284
   125  H   -0.015712
   126  H   -0.040281
   127  H   -0.000472
   128  H   -0.004940
   129  H    0.023639
   130  H    0.014667
   131  H    0.015211
   132  H    0.013764
   133  H    0.037683
   134  H    0.020650
   135  H    0.019228
   136  H    0.008286
   137  H    0.025763
   138  H    0.039429
   139  H    0.038084
   140  H    0.036181
   141  H    0.033691
   142  H    0.014161
   143  H    0.012667
   144  H    0.024823
   145  H    0.011973
   146  H    0.005647
   147  H    0.006047
   148  H    0.003711
   149  H    0.010795
   150  H    0.017771
   151  H    0.030146
   152  H    0.045855
   153  H    0.008296
   154  H    0.048475
   155  H    0.036037
   156  H    0.043876
   157  H    0.049168
   158  H    0.053438
 Sum of Mulliken charges =  -0.00000

 Dipole moment (field-independent basis, Debye):
    X=             -3.9961    Y=             -2.2416    Z=             -7.5442  Tot=              8.8266
 Quadrupole moment (field-independent basis, Debye-Ang):
   XX=           -517.9289   YY=           -549.9742   ZZ=           -449.1275
   XY=            -10.8648   XZ=              1.3835   YZ=            -46.9020

 Normal termination of Gaussian 16 at Sat Sep  4 10:45:30 2021.
