 Gaussian 16, Revision A.03,
 Gaussian 16:  ES64L-G16RevA.03 25-Dec-2016

 -----------------------------------
 #p cam-b3lyp/Def2SVP td=(nstates=5)
 -----------------------------------

 --------------------------------
 TDDFT excited states in gaussian
 --------------------------------
 Symbolic Z-matrix:
 Charge =  0 Multiplicity = 1

                         Standard orientation:
 ---------------------------------------------------------------------
 Center     Atomic      Atomic             Coordinates (Angstroms)
 Number     Number       Type             X           Y           Z
 ---------------------------------------------------------------------
      1         12           0      -15.859324   -0.697872    0.074519
      2          6           0      -16.043512    2.873221    0.234463
      3          6           0      -16.729790   -0.446787   -3.215209
      4          6           0      -16.146966   -3.855580    0.021936
      5          6           0      -16.124251   -0.719791    3.549428
      6          7           0      -16.302123    1.047579   -1.213106
      7          6           0      -16.279151    2.366102   -1.045361
      8          6           0      -16.454349    3.161051   -2.373795
      9          6           0      -17.212095    2.051997   -3.232759
     10          6           0      -16.690772    0.807306   -2.536416
     11          6           0      -18.729495    2.098385   -3.084949
     12          6           0      -15.081856    3.547859   -3.020612
     13          6           0      -15.156827    4.596175   -4.134510
     14          1           0      -14.076023    5.562218   -4.260883
     15          7           0      -15.884114   -1.956929   -1.447655
     16          6           0      -16.250693   -1.679718   -2.722041
     17          6           0      -16.096834   -2.943398   -3.474451
     18          6           0      -15.793001   -4.022587   -2.494078
     19          6           0      -15.957199   -3.317358   -1.248659
     20          6           0      -16.190200   -3.028933   -4.967005
     21          6           0      -15.424951   -5.463799   -2.654020
     22          8           0      -15.430796   -6.280494   -1.670380
     23          6           0      -15.139304   -5.920490   -4.026201
     24          7           0      -16.321341   -2.106369    1.544319
     25          6           0      -16.322436   -3.415382    1.269607
     26          6           0      -16.399539   -4.236202    2.522703
     27          6           0      -16.205451   -3.213601    3.733640
     28          6           0      -16.127817   -1.897577    2.921037
     29          6           0      -17.699321   -5.026964    2.725860
     30          6           0      -15.071748   -3.525456    4.742543
     31          6           0      -13.727457   -3.378230    4.065563
     32          7           0      -15.873135    0.790855    1.653932
     33          6           0      -16.016392    0.559288    3.029624
     34          6           0      -16.074456    1.878339    3.685979
     35          6           0      -15.976968    2.791650    2.638026
     36          6           0      -15.891507    2.087890    1.402829
     37          6           0      -16.260034    2.109249    5.077624
     38          6           0      -15.949910    4.198555    2.272316
     39          8           0      -15.895718    5.256901    2.900377
     40          6           0      -16.114586    4.308807    0.692267
     41          6           0      -15.062093    5.259678    0.190857
     42          8           0      -13.851215    4.964201    0.252768
     43          8           0      -15.650060    6.253138   -0.493157
     44          6           0      -14.659090    7.216203   -1.043283
     45          1           0      -17.223844   -0.505825   -4.186994
     46          1           0      -16.140580   -4.946883    0.060070
     47          1           0      -16.121291   -0.648561    4.638634
     48          1           0      -17.073269    4.054597   -2.290501
     49          1           0      -16.898966    2.061478   -4.276589
     50          1           0      -19.033092    2.804284   -2.311996
     51          1           0      -19.026567    1.085271   -2.813212
     52          1           0      -19.206015    2.303315   -4.043963
     53          1           0      -14.700835    2.699706   -3.589400
     54          1           0      -14.376574    3.881328   -2.258574
     55          1           0      -16.123243    5.101039   -4.142307
     56          1           0      -15.113400    4.079442   -5.093312
     57          1           0      -16.585801   -2.109555   -5.396876
     58          1           0      -16.943713   -3.782176   -5.196246
     59          1           0      -15.240102   -3.308940   -5.422243
     60          1           0      -16.014172   -5.746241   -4.652931
     61          1           0      -14.807880   -6.954366   -3.936154
     62          1           0      -14.337682   -5.309395   -4.442031
     63          1           0      -15.604455   -4.980099    2.552445
     64          1           0      -17.099511   -3.138787    4.353102
     65          1           0      -17.544741   -6.099045    2.850168
     66          1           0      -18.354362   -4.821833    1.879612
     67          1           0      -18.312939   -4.690955    3.561317
     68          1           0      -15.145285   -4.555759    5.088974
     69          1           0      -15.086465   -2.878706    5.619896
     70          1           0      -13.595104   -4.341905    3.575006
     71          1           0      -12.945484   -3.206377    4.805966
     72          1           0      -13.755658   -2.616827    3.285848
     73          1           0      -15.557760    2.896131    5.352570
     74          1           0      -16.085299    1.202449    5.656229
     75          1           0      -17.304638    2.419756    5.093255
     76          1           0      -17.122440    4.679091    0.507225
     77          1           0      -14.934545    8.204980   -0.676297
     78          1           0      -14.644311    7.063072   -2.122513
     79          1           0      -13.641079    7.131226   -0.661483
     80         12           0       15.899228   -0.860684    0.101545
     81          6           0       16.202204    2.711472    0.265812
     82          6           0       15.490439   -0.521572   -3.267808
     83          6           0       15.180985   -3.948772   -0.021971
     84          6           0       15.192968   -0.818694    3.514040
     85          7           0       15.870191    0.917246   -1.213900
     86          6           0       16.057406    2.217862   -1.047510
     87          6           0       16.171623    3.025389   -2.368271
     88          6           0       15.371616    2.021906   -3.333613
     89          6           0       15.617156    0.713995   -2.584120
     90          6           0       13.874583    2.281329   -3.363790
     91          6           0       17.659720    3.204756   -2.832411
     92          6           0       17.867558    4.240039   -3.939999
     93          1           0       19.087803    5.042031   -3.923031
     94          7           0       15.892924   -2.117322   -1.434486
     95          6           0       15.737688   -1.807381   -2.738765
     96          6           0       15.787550   -3.085877   -3.464790
     97          6           0       15.819759   -4.190440   -2.467985
     98          6           0       15.606825   -3.446204   -1.242881
     99          6           0       15.880644   -3.169024   -4.960736
    100          6           0       15.998223   -5.672871   -2.597348
    101          8           0       15.754430   -6.468067   -1.622129
    102          6           0       16.376839   -6.174088   -3.926610
    103          7           0       15.070658   -2.172027    1.485801
    104          6           0       14.913446   -3.475419    1.195275
    105          6           0       14.559560   -4.270538    2.429345
    106          6           0       14.749761   -3.264449    3.657837
    107          6           0       15.110423   -1.980070    2.879567
    108          6           0       13.146772   -4.853020    2.462941
    109          6           0       15.692292   -3.723448    4.803979
    110          6           0       17.118178   -3.786234    4.305691
    111          7           0       15.902738    0.622639    1.672470
    112          6           0       15.549142    0.432145    3.026267
    113          6           0       15.597529    1.756366    3.679358
    114          6           0       15.956393    2.635808    2.646747
    115          6           0       16.100395    1.913830    1.431212
    116          6           0       15.283365    2.024045    5.041624
    117          6           0       16.235766    4.012315    2.306326
    118          8           0       16.352783    5.058224    2.943598
    119          6           0       16.283864    4.141526    0.722859
    120          6           0       17.515259    4.924474    0.357910
    121          8           0       18.647757    4.461809    0.581519
    122          8           0       17.157657    5.985950   -0.387586
    123          6           0       18.346102    6.787589   -0.783541
    124          1           0       15.126638   -0.510866   -4.295627
    125          1           0       15.026742   -5.029660    0.015064
    126          1           0       15.081490   -0.736071    4.597285
    127          1           0       15.684978    3.993219   -2.352494
    128          1           0       15.819855    1.984307   -4.323076
    129          1           0       13.579737    3.024362   -2.637764
    130          1           0       13.406794    1.330680   -3.143587
    131          1           0       13.558113    2.545446   -4.376916
    132          1           0       17.982015    2.297852   -3.360047
    133          1           0       18.293743    3.435491   -1.998504
    134          1           0       16.988086    4.881285   -4.075154
    135          1           0       17.964736    3.714070   -4.892848
    136          1           0       15.670190   -2.200687   -5.431299
    137          1           0       15.064008   -3.817332   -5.296394
    138          1           0       16.829008   -3.590355   -5.300976
    139          1           0       15.622857   -5.878436   -4.652262
    140          1           0       16.544403   -7.245214   -3.798214
    141          1           0       17.312076   -5.690222   -4.229614
    142          1           0       15.232701   -5.109716    2.554907
    143          1           0       13.797987   -3.063890    4.171369
    144          1           0       13.130495   -5.951237    2.596042
    145          1           0       12.640385   -4.573241    1.548692
    146          1           0       12.492922   -4.434962    3.226424
    147          1           0       15.431538   -4.734347    5.126814
    148          1           0       15.650042   -3.084704    5.679891
    149          1           0       17.167835   -4.766689    3.822647
    150          1           0       17.817611   -3.719727    5.136603
    151          1           0       17.299108   -3.029022    3.533980
    152          1           0       16.042052    2.702427    5.408617
    153          1           0       15.249476    1.108869    5.629058
    154          1           0       14.294345    2.476059    4.928501
    155          1           0       15.369667    4.645809    0.407395
    156          1           0       18.166689    7.813043   -0.445979
    157          1           0       18.464308    6.628985   -1.871946
    158          1           0       19.286683    6.565095   -0.293379
 ---------------------------------------------------------------------

 SCF Done:  E(RCAM-B3LYP) =  -4069.81176649     A.U. after   19 cycles

 Excitation energies and oscillator strengths:

 Excited State   1:      Singlet-A      1.6753 eV  740.07 nm  f=0.2118  <S**2>=0.000
     310 -> 316       -0.16858
     311 -> 314        0.16272
     312 -> 313        0.66648
     310 <- 316       -0.10163
 This state for optimization and/or second-order correction.
 Total Energy, E(TD-HF/TD-DFT) =  -4069.75020028
 Copying the excited state density for this state as the 1-particle RhoCI density.

 Excited State   2:      Singlet-A      1.6801 eV  737.95 nm  f=0.5656  <S**2>=0.000
     309 -> 315        0.17060
     311 -> 314        0.66611
     312 -> 313       -0.16266
     309 <- 315        0.10214

 Excited State   3:      Singlet-A      2.1861 eV  567.15 nm  f=0.0952  <S**2>=0.000
     310 -> 313        0.64210
     312 -> 316        0.27295

 Excited State   4:      Singlet-A      2.1925 eV  565.49 nm  f=0.1049  <S**2>=0.000
     309 -> 314        0.64032
     311 -> 315       -0.27814

 Excited State   5:      Singlet-A      3.0652 eV  404.49 nm  f=0.0000  <S**2>=0.000
     311 -> 313        0.70711

 The electronic state is 1-A.
 Alpha  occ. eigenvalues --  -46.87793 -46.87660 -19.26349 -19.26280 -19.19160
 Alpha  occ. eigenvalues --  -19.19015 -19.18812 -19.18715 -19.18165 -19.18050
 Alpha  occ. eigenvalues --  -14.42498 -14.42446 -14.41445 -14.41359 -14.39399
 Alpha  occ. eigenvalues --  -14.39352 -14.38600 -14.38583 -10.39090 -10.39075
 Alpha  occ. eigenvalues --  -10.35445 -10.35392 -10.34385 -10.34228 -10.31755
 Alpha  occ. eigenvalues --  -10.31674 -10.31401 -10.31309 -10.31023 -10.30905
 Alpha  occ. eigenvalues --  -10.30566 -10.30503 -10.30397 -10.30360 -10.30203
 Alpha  occ. eigenvalues --  -10.30141 -10.29916 -10.29894 -10.29627 -10.29437
 Alpha  occ. eigenvalues --  -10.29401 -10.29251 -10.28746 -10.28719 -10.28655
 Alpha  occ. eigenvalues --  -10.28536 -10.28405 -10.28361 -10.28140 -10.28113
 Alpha  occ. eigenvalues --  -10.28001 -10.27789 -10.27723 -10.27669 -10.27581
 Alpha  occ. eigenvalues --  -10.27517 -10.27497 -10.27484 -10.27479 -10.27469
 Alpha  occ. eigenvalues --  -10.27465 -10.27445 -10.27400 -10.27375 -10.27154
 Alpha  occ. eigenvalues --  -10.27050 -10.26702 -10.26694 -10.26417 -10.26408
 Alpha  occ. eigenvalues --  -10.26231 -10.26179 -10.26136 -10.26024 -10.26015
 Alpha  occ. eigenvalues --  -10.25934 -10.25848 -10.25838 -10.25431 -10.25395
 Alpha  occ. eigenvalues --  -10.24872 -10.24829 -10.24784 -10.24731 -10.24690
 Alpha  occ. eigenvalues --  -10.24682  -3.16535  -3.16410  -1.91417  -1.91292
 Alpha  occ. eigenvalues --   -1.91004  -1.90881  -1.90846  -1.90718  -1.16643
 Alpha  occ. eigenvalues --   -1.16628  -1.08657  -1.08623  -1.07213  -1.06968
 Alpha  occ. eigenvalues --   -1.06945  -1.06638  -1.04577  -1.04495  -1.03757
 Alpha  occ. eigenvalues --   -1.03663  -1.03230  -1.03038  -1.02407  -1.02111
 Alpha  occ. eigenvalues --   -0.91987  -0.91968  -0.89515  -0.89494  -0.89184
 Alpha  occ. eigenvalues --   -0.89151  -0.88283  -0.88220  -0.87866  -0.87793
 Alpha  occ. eigenvalues --   -0.87684  -0.87669  -0.87271  -0.87121  -0.85000
 Alpha  occ. eigenvalues --   -0.84979  -0.83932  -0.83875  -0.82964  -0.82932
 Alpha  occ. eigenvalues --   -0.82653  -0.82645  -0.81596  -0.81581  -0.80592
 Alpha  occ. eigenvalues --   -0.80442  -0.78794  -0.78636  -0.77215  -0.77144
 Alpha  occ. eigenvalues --   -0.76930  -0.76898  -0.75919  -0.75838  -0.74894
 Alpha  occ. eigenvalues --   -0.74802  -0.72770  -0.72699  -0.71668  -0.71581
 Alpha  occ. eigenvalues --   -0.69903  -0.69757  -0.68869  -0.68827  -0.67637
 Alpha  occ. eigenvalues --   -0.67602  -0.67216  -0.67201  -0.65283  -0.65272
 Alpha  occ. eigenvalues --   -0.64850  -0.64770  -0.64654  -0.64617  -0.64265
 Alpha  occ. eigenvalues --   -0.64203  -0.62293  -0.62278  -0.60438  -0.60340
 Alpha  occ. eigenvalues --   -0.59801  -0.59797  -0.58993  -0.58983  -0.58500
 Alpha  occ. eigenvalues --   -0.58425  -0.57580  -0.57554  -0.57305  -0.57236
 Alpha  occ. eigenvalues --   -0.56306  -0.56204  -0.55974  -0.55886  -0.55517
 Alpha  occ. eigenvalues --   -0.55452  -0.55335  -0.55247  -0.54519  -0.54487
 Alpha  occ. eigenvalues --   -0.53913  -0.53891  -0.53295  -0.53228  -0.53218
 Alpha  occ. eigenvalues --   -0.53142  -0.52911  -0.52902  -0.52753  -0.52669
 Alpha  occ. eigenvalues --   -0.52434  -0.52401  -0.51910  -0.51883  -0.51659
 Alpha  occ. eigenvalues --   -0.51613  -0.51201  -0.51192  -0.50570  -0.50476
 Alpha  occ. eigenvalues --   -0.50027  -0.49980  -0.49915  -0.49867  -0.49511
 Alpha  occ. eigenvalues --   -0.49488  -0.49211  -0.49202  -0.49104  -0.49092
 Alpha  occ. eigenvalues --   -0.48589  -0.48558  -0.48457  -0.48442  -0.48375
 Alpha  occ. eigenvalues --   -0.48339  -0.47691  -0.47595  -0.47293  -0.47118
 Alpha  occ. eigenvalues --   -0.46793  -0.46709  -0.46554  -0.46552  -0.46355
 Alpha  occ. eigenvalues --   -0.46270  -0.46158  -0.46085  -0.45821  -0.45817
 Alpha  occ. eigenvalues --   -0.45208  -0.45197  -0.44573  -0.44514  -0.44503
 Alpha  occ. eigenvalues --   -0.44476  -0.44141  -0.44127  -0.44085  -0.44078
 Alpha  occ. eigenvalues --   -0.44015  -0.43939  -0.43553  -0.43490  -0.43385
 Alpha  occ. eigenvalues --   -0.43382  -0.43023  -0.42930  -0.42901  -0.42695
 Alpha  occ. eigenvalues --   -0.42650  -0.42553  -0.42005  -0.41964  -0.41700
 Alpha  occ. eigenvalues --   -0.41669  -0.41530  -0.41459  -0.41137  -0.40989
 Alpha  occ. eigenvalues --   -0.40865  -0.40820  -0.40723  -0.40699  -0.40567
 Alpha  occ. eigenvalues --   -0.40493  -0.40231  -0.40228  -0.39436  -0.39425
 Alpha  occ. eigenvalues --   -0.38465  -0.38350  -0.37745  -0.37654  -0.37316
 Alpha  occ. eigenvalues --   -0.37266  -0.37260  -0.37200  -0.36770  -0.36709
 Alpha  occ. eigenvalues --   -0.36217  -0.36188  -0.34282  -0.34253  -0.33862
 Alpha  occ. eigenvalues --   -0.33766  -0.33182  -0.33175  -0.31342  -0.31274
 Alpha  occ. eigenvalues --   -0.31032  -0.30973  -0.30024  -0.29955  -0.29445
 Alpha  occ. eigenvalues --   -0.29327  -0.29318  -0.29211  -0.24076  -0.24036
 Alpha  occ. eigenvalues --   -0.21124  -0.21117
 Alpha virt. eigenvalues --   -0.08792  -0.08770  -0.01746  -0.01684  -0.00054
 Alpha virt. eigenvalues --   -0.00029   0.02205   0.02208   0.03127   0.03227
 Alpha virt. eigenvalues --    0.04722   0.04729   0.05103   0.05166   0.06181

 Mulliken charges:
               1
     1  Mg   0.838768
     2  C   -0.002981
     3  C   -0.094126
     4  C   -0.045869
     5  C   -0.063965
     6  N   -0.256773
     7  C   -0.052456
     8  C   -0.014025
     9  C   -0.086999
    10  C    0.046323
    11  C    0.104813
    12  C    0.053474
    13  C   -0.071794
    14  H    0.036123
    15  N   -0.433141
    16  C    0.168425
    17  C   -0.177169
    18  C   -0.004006
    19  C    0.148708
    20  C    0.110182
    21  C    0.012277
    22  O   -0.249624
    23  C    0.062480
    24  N   -0.341176
    25  C    0.041257
    26  C   -0.028172
    27  C   -0.023998
    28  C    0.074881
    29  C    0.076165
    30  C    0.035120
    31  C   -0.004504
    32  N   -0.310472
    33  C    0.080413
    34  C   -0.169698
    35  C    0.008357
    36  C    0.082975
    37  C    0.127307
    38  C    0.046133
    39  O   -0.188417
    40  C   -0.005311
    41  C    0.212857
    42  O   -0.257095
    43  O   -0.304797
    44  C    0.157692
    45  H   -0.017616
    46  H   -0.016839
    47  H   -0.041478
    48  H    0.000943
    49  H   -0.004045
    50  H    0.025479
    51  H    0.016447
    52  H    0.016650
    53  H    0.011195
    54  H    0.044128
    55  H    0.017873
    56  H    0.017933
    57  H    0.005865
    58  H    0.026817
    59  H    0.039532
    60  H    0.037340
    61  H    0.035643
    62  H    0.031491
    63  H    0.016555
    64  H    0.009466
    65  H    0.023212
    66  H    0.012542
    67  H    0.004758
    68  H    0.006371
    69  H    0.004744
    70  H    0.008777
    71  H    0.018160
    72  H    0.028977
    73  H    0.047592
    74  H    0.009121
    75  H    0.046013
    76  H    0.035150
    77  H    0.042958
    78  H    0.046386
    79  H    0.053698
    80  Mg   0.837857
    81  C   -0.016830
    82  C   -0.087801
    83  C   -0.045507
    84  C   -0.064882
    85  N   -0.254550
    86  C   -0.049820
    87  C   -0.015100
    88  C   -0.090498
    89  C    0.045765
    90  C    0.114364
    91  C    0.062527
    92  C   -0.077892
    93  H    0.034897
    94  N   -0.423499
    95  C    0.162940
    96  C   -0.174634
    97  C   -0.007810
    98  C    0.152115
    99  C    0.099369
   100  C    0.015571
   101  O   -0.253177
   102  C    0.061194
   103  N   -0.350102
   104  C    0.037539
   105  C   -0.019847
   106  C   -0.034831
   107  C    0.088977
   108  C    0.073635
   109  C    0.034719
   110  C   -0.007678
   111  N   -0.324096
   112  C    0.078453
   113  C   -0.163108
   114  C    0.002245
   115  C    0.096164
   116  C    0.131487
   117  C    0.042424
   118  O   -0.187831
   119  C    0.000918
   120  C    0.211250
   121  O   -0.251027
   122  O   -0.305620
   123  C    0.152027
   124  H   -0.019670
   125  H   -0.015562
   126  H   -0.040416
   127  H   -0.000627
   128  H   -0.004341
   129  H    0.022499
   130  H    0.014444
   131  H    0.016276
   132  H    0.013910
   133  H    0.037679
   134  H    0.020798
   135  H    0.019579
   136  H    0.008751
   137  H    0.026134
   138  H    0.039783
   139  H    0.038246
   140  H    0.036393
   141  H    0.033889
   142  H    0.014397
   143  H    0.012472
   144  H    0.025146
   145  H    0.011655
   146  H    0.005733
   147  H    0.006282
   148  H    0.003679
   149  H    0.010928
   150  H    0.017939
   151  H    0.030085
   152  H    0.046017
   153  H    0.008531
   154  H    0.047015
   155  H    0.035066
   156  H    0.043934
   157  H    0.049481
   158  H    0.053577
 Sum of Mulliken charges =  -0.00000

 Dipole moment (field-independent basis, Debye):
    X=             -3.6606    Y=             -2.2926    Z=             -7.9552  Tot=              9.0521
 Quadrupole moment (field-independent basis, Debye-Ang):
   XX=           -504.9694   YY=           -552.5106   ZZ=           -446.7052
   XY=              0.8179   XZ=            -10.4157   YZ=            -46.7027

 Normal termination of Gaussian 16 at Sun Sep 12 09:52:11 2021.
