 Gaussian 16, Revision A.03,
 Gaussian 16:  ES64L-G16RevA.03 25-Dec-2016

 -----------------------------------
 #p cam-b3lyp/Def2SVP td=(nstates=5)
 -----------------------------------

 --------------------------------
 TDDFT excited states in gaussian
 --------------------------------
 Symbolic Z-matrix:
 Charge =  0 Multiplicity = 1

                         Standard orientation:
 ---------------------------------------------------------------------
 Center     Atomic      Atomic             Coordinates (Angstroms)
 Number     Number       Type             X           Y           Z
 ---------------------------------------------------------------------
      1         12           0        4.923321   -1.342776    0.435948
      2          6           0        5.619991    2.034799   -0.522620
      3          6           0        5.650122   -0.425851    3.641268
      4          6           0        4.757222   -4.407188    1.234954
      5          6           0        5.360945   -2.225911   -2.906838
      6          7           0        5.542279    0.589469    1.321367
      7          6           0        5.715161    1.822057    0.854452
      8          6           0        5.932705    2.882364    1.975076
      9          6           0        6.480316    1.923971    3.125554
     10          6           0        5.824307    0.624830    2.692184
     11          6           0        7.994538    1.742640    3.098089
     12          6           0        4.597475    3.581643    2.399222
     13          6           0        4.762906    4.847372    3.245342
     14          1           0        3.824944    5.943652    3.056279
     15          7           0        4.690962   -2.195312    2.202878
     16          6           0        5.027066   -1.670521    3.405756
     17          6           0        4.657063   -2.688632    4.412349
     18          6           0        4.254139   -3.923476    3.683717
     19          6           0        4.580551   -3.562017    2.327921
     20          6           0        4.660417   -2.426780    5.887196
     21          6           0        3.677715   -5.226916    4.138594
     22          8           0        3.618314   -6.248694    3.372425
     23          6           0        3.259960   -5.303540    5.550207
     24          7           0        5.255979   -3.107732   -0.627961
     25          6           0        5.057313   -4.302902   -0.061316
     26          6           0        5.081638   -5.401871   -1.081911
     27          6           0        5.097089   -4.681528   -2.506909
     28          6           0        5.165128   -3.210674   -2.027085
     29          6           0        6.264877   -6.375199   -0.989244
     30          6           0        3.984064   -5.079932   -3.508341
     31          6           0        2.641189   -4.607717   -2.997658
     32          7           0        5.229351   -0.287576   -1.435934
     33          6           0        5.408934   -0.856664   -2.705014
     34          6           0        5.687146    0.249717   -3.639138
     35          6           0        5.666343    1.391392   -2.840394
     36          6           0        5.418500    1.019012   -1.488285
     37          6           0        5.974963    0.116858   -5.026201
     38          6           0        5.820263    2.836825   -2.810580
     39          8           0        5.949081    3.713013   -3.666847
     40          6           0        5.917370    3.299117   -1.289829
     41          6           0        4.985943    4.466669   -1.109349
     42          8           0        3.750209    4.319585   -1.202597
     43          8           0        5.672845    5.512563   -0.624773
     44          6           0        4.801458    6.695742   -0.394715
     45          1           0        6.080138   -0.313051    4.638415
     46          1           0        4.598132   -5.466378    1.447664
     47          1           0        5.424176   -2.416709   -3.979708
     48          1           0        6.675529    3.645159    1.741021
     49          1           0        6.118394    2.221405    4.109560
     50          1           0        8.434534    2.199898    2.211952
     51          1           0        8.158543    0.664886    3.091629
     52          1           0        8.445308    2.108794    4.020865
     53          1           0        4.071279    2.948439    3.113527
     54          1           0        3.986765    3.809688    1.524948
     55          1           0        5.789449    5.213916    3.217719
     56          1           0        4.597362    4.583894    4.290031
     57          1           0        5.159730   -1.488653    6.126256
     58          1           0        5.286705   -3.192186    6.345045
     59          1           0        3.658059   -2.468415    6.313665
     60          1           0        4.117271   -5.096254    6.190987
     61          1           0        2.790366   -6.278950    5.672305
     62          1           0        2.532760   -4.515130    5.746517
     63          1           0        4.191702   -6.025370   -1.006477
     64          1           0        6.023408   -4.869609   -3.050262
     65          1           0        5.966449   -7.417801   -0.876868
     66          1           0        6.897956   -6.058188   -0.160990
     67          1           0        6.962115   -6.328015   -1.825337
     68          1           0        3.928498   -6.163952   -3.601935
     69          1           0        4.135471   -4.668216   -4.506248
     70          1           0        2.348461   -5.402082   -2.312000
     71          1           0        1.930637   -4.520503   -3.820288
     72          1           0        2.736902   -3.692096   -2.413736
     73          1           0        5.406450    0.897316   -5.531816
     74          1           0        5.703427   -0.872393   -5.393971
     75          1           0        7.052447    0.280825   -5.025461
     76          1           0        6.956673    3.573126   -1.111250
     77          1           0        5.232851    7.525761   -0.954361
     78          1           0        4.709593    6.807522    0.685781
     79          1           0        3.802696    6.650830   -0.830371
     80         12           0       -5.553048   -0.059736   -0.444191
     81          6           0       -3.324980    2.752023   -0.538004
     82          6           0       -6.639259    1.091722    2.577218
     83          6           0       -7.196689   -2.754301   -0.119874
     84          6           0       -3.528445   -1.567609   -2.846899
     85          7           0       -4.980223    1.705269    0.759509
     86          6           0       -4.166027    2.736820    0.594183
     87          6           0       -4.315773    3.852209    1.663316
     88          6           0       -4.936193    2.965977    2.850133
     89          6           0       -5.592769    1.867082    2.017057
     90          6           0       -3.881764    2.326557    3.738194
     91          6           0       -5.305980    4.982945    1.212798
     92          6           0       -5.264841    6.251798    2.067239
     93          1           0       -5.465576    7.540301    1.410017
     94          7           0       -7.078521   -0.498074    0.747178
     95          6           0       -7.384047    0.084167    1.925701
     96          6           0       -8.584116   -0.609734    2.418119
     97          6           0       -8.865719   -1.758299    1.514673
     98          6           0       -7.686795   -1.726468    0.672533
     99          6           0       -9.383961   -0.119818    3.590157
    100          6           0      -10.001219   -2.732955    1.431631
    101          8           0       -9.924904   -3.796682    0.720662
    102          6           0      -11.168833   -2.453026    2.280042
    103          7           0       -5.274361   -1.979883   -1.190974
    104          6           0       -6.165610   -2.955079   -0.940778
    105          6           0       -5.903817   -4.167453   -1.802181
    106          6           0       -4.794259   -3.711528   -2.859811
    107          6           0       -4.530279   -2.278510   -2.347784
    108          6           0       -5.420719   -5.415925   -1.064401
    109          6           0       -5.131724   -3.908876   -4.363088
    110          6           0       -6.258564   -2.984590   -4.764732
    111          7           0       -3.861694    0.536425   -1.649158
    112          6           0       -3.149777   -0.259544   -2.573125
    113          6           0       -2.012438    0.548727   -3.058498
    114          6           0       -2.129253    1.760189   -2.360493
    115          6           0       -3.247833    1.703032   -1.485861
    116          6           0       -1.020907    0.117931   -3.984448
    117          6           0       -1.554423    3.070464   -2.156872
    118          8           0       -0.647447    3.712755   -2.684693
    119          6           0       -2.228828    3.724478   -0.874761
    120          6           0       -2.624768    5.132577   -1.225483
    121          8           0       -3.503971    5.348129   -2.078214
    122          8           0       -2.060102    5.980888   -0.346911
    123          6           0       -2.432335    7.389213   -0.646708
    124          1           0       -6.887643    1.237988    3.628782
    125          1           0       -7.793332   -3.669419   -0.127355
    126          1           0       -2.908154   -1.930336   -3.669305
    127          1           0       -3.383885    4.302500    1.983606
    128          1           0       -5.686018    3.521464    3.407414
    129          1           0       -2.884505    2.478073    3.352615
    130          1           0       -4.120597    1.271451    3.765469
    131          1           0       -3.986211    2.685862    4.765970
    132          1           0       -6.335344    4.656943    1.409981
    133          1           0       -5.151445    5.236263    0.181986
    134          1           0       -4.380080    6.284290    2.714603
    135          1           0       -6.106139    6.228290    2.764142
    136          1           0       -8.841767    0.649379    4.153847
    137          1           0       -9.472021   -0.957926    4.289936
    138          1           0      -10.385522    0.211441    3.307659
    139          1           0      -10.857466   -2.413060    3.321161
    140          1           0      -11.910191   -3.209629    2.015788
    141          1           0      -11.553850   -1.458540    2.028304
    142          1           0       -6.798459   -4.462608   -2.336597
    143          1           0       -3.855014   -4.269261   -2.730995
    144          1           0       -6.067225   -6.298348   -1.230027
    145          1           0       -5.355319   -5.185091   -0.009419
    146          1           0       -4.403002   -5.724866   -1.296809
    147          1           0       -5.486929   -4.926871   -4.541020
    148          1           0       -4.285176   -3.743541   -5.021132
    149          1           0       -7.151742   -3.534937   -4.454185
    150          1           0       -6.251998   -2.817246   -5.839909
    151          1           0       -6.228143   -2.053047   -4.187711
    152          1           0       -0.863948    0.935530   -4.675383
    153          1           0       -1.327789   -0.788185   -4.502672
    154          1           0       -0.183870   -0.061579   -3.304434
    155          1           0       -1.495845    3.694293   -0.067665
    156          1           0       -1.498909    7.948885   -0.761495
    157          1           0       -3.108693    7.700117    0.171603
    158          1           0       -2.916497    7.588528   -1.595559
 ---------------------------------------------------------------------

 SCF Done:  E(RCAM-B3LYP) =  -4069.80940601     A.U. after   19 cycles

 Excitation energies and oscillator strengths:

 Excited State   1:      Singlet-A      1.6561 eV  748.64 nm  f=0.1244  <S**2>=0.000
     309 -> 315        0.11527
     310 -> 316       -0.12365
     311 -> 313        0.46782
     312 -> 314        0.50326
 This state for optimization and/or second-order correction.
 Total Energy, E(TD-HF/TD-DFT) =  -4069.74854471
 Copying the excited state density for this state as the 1-particle RhoCI density.

 Excited State   2:      Singlet-A      1.6988 eV  729.81 nm  f=0.6197  <S**2>=0.000
     309 -> 315        0.13178
     310 -> 316        0.12175
     311 -> 313        0.50130
     312 -> 314       -0.46620

 Excited State   3:      Singlet-A      2.1836 eV  567.79 nm  f=0.0054  <S**2>=0.000
     309 -> 313        0.37625
     310 -> 314        0.52230
     311 -> 315       -0.15815
     312 -> 316        0.22052

 Excited State   4:      Singlet-A      2.1954 eV  564.74 nm  f=0.1721  <S**2>=0.000
     309 -> 313        0.51850
     310 -> 314       -0.37277
     311 -> 315       -0.22889
     312 -> 316       -0.16420

 Excited State   5:      Singlet-A      2.4998 eV  495.98 nm  f=0.0000  <S**2>=0.000
     312 -> 313        0.70686

 The electronic state is 1-A.
 Alpha  occ. eigenvalues --  -46.87670 -46.87423 -19.26038 -19.25878 -19.18837
 Alpha  occ. eigenvalues --  -19.18720 -19.18525 -19.18502 -19.17909 -19.17542
 Alpha  occ. eigenvalues --  -14.42323 -14.42277 -14.41333 -14.41123 -14.39277
 Alpha  occ. eigenvalues --  -14.39111 -14.38441 -14.38338 -10.38766 -10.38620
 Alpha  occ. eigenvalues --  -10.35358 -10.35185 -10.34125 -10.33727 -10.31515
 Alpha  occ. eigenvalues --  -10.31307 -10.31255 -10.31058 -10.30806 -10.30772
 Alpha  occ. eigenvalues --  -10.30418 -10.30370 -10.30134 -10.30123 -10.30085
 Alpha  occ. eigenvalues --  -10.29945 -10.29796 -10.29640 -10.29490 -10.29216
 Alpha  occ. eigenvalues --  -10.29142 -10.29134 -10.28607 -10.28537 -10.28527
 Alpha  occ. eigenvalues --  -10.28425 -10.28210 -10.28140 -10.27989 -10.27968
 Alpha  occ. eigenvalues --  -10.27709 -10.27637 -10.27605 -10.27459 -10.27453
 Alpha  occ. eigenvalues --  -10.27448 -10.27401 -10.27391 -10.27336 -10.27279
 Alpha  occ. eigenvalues --  -10.27246 -10.27234 -10.27211 -10.27178 -10.26885
 Alpha  occ. eigenvalues --  -10.26661 -10.26557 -10.26526 -10.26351 -10.26249
 Alpha  occ. eigenvalues --  -10.26203 -10.26118 -10.25985 -10.25912 -10.25904
 Alpha  occ. eigenvalues --  -10.25709 -10.25666 -10.25491 -10.25378 -10.25207
 Alpha  occ. eigenvalues --  -10.24768 -10.24664 -10.24660 -10.24577 -10.24571
 Alpha  occ. eigenvalues --  -10.24444  -3.16413  -3.16174  -1.91295  -1.91056
 Alpha  occ. eigenvalues --   -1.90882  -1.90723  -1.90645  -1.90481  -1.16327
 Alpha  occ. eigenvalues --   -1.16217  -1.08344  -1.08134  -1.07125  -1.06759
 Alpha  occ. eigenvalues --   -1.06611  -1.06168  -1.04445  -1.04264  -1.03641
 Alpha  occ. eigenvalues --   -1.03424  -1.03100  -1.02794  -1.02279  -1.01861
 Alpha  occ. eigenvalues --   -0.91788  -0.91696  -0.89437  -0.89270  -0.89054
 Alpha  occ. eigenvalues --   -0.88968  -0.88206  -0.88010  -0.87710  -0.87548
 Alpha  occ. eigenvalues --   -0.87499  -0.87453  -0.87165  -0.86897  -0.84850
 Alpha  occ. eigenvalues --   -0.84800  -0.83864  -0.83666  -0.82885  -0.82731
 Alpha  occ. eigenvalues --   -0.82506  -0.82445  -0.81356  -0.81326  -0.80421
 Alpha  occ. eigenvalues --   -0.80195  -0.78672  -0.78389  -0.77110  -0.76935
 Alpha  occ. eigenvalues --   -0.76786  -0.76683  -0.75746  -0.75606  -0.74791
 Alpha  occ. eigenvalues --   -0.74582  -0.72642  -0.72445  -0.71536  -0.71352
 Alpha  occ. eigenvalues --   -0.69873  -0.69571  -0.68740  -0.68617  -0.67494
 Alpha  occ. eigenvalues --   -0.67344  -0.67093  -0.67003  -0.65140  -0.65051
 Alpha  occ. eigenvalues --   -0.64702  -0.64534  -0.64461  -0.64419  -0.64172
 Alpha  occ. eigenvalues --   -0.63982  -0.62031  -0.62005  -0.60337  -0.60111
 Alpha  occ. eigenvalues --   -0.59666  -0.59584  -0.58844  -0.58743  -0.58345
 Alpha  occ. eigenvalues --   -0.58161  -0.57349  -0.57214  -0.57124  -0.56980
 Alpha  occ. eigenvalues --   -0.56165  -0.55950  -0.55709  -0.55629  -0.55388
 Alpha  occ. eigenvalues --   -0.55214  -0.55194  -0.55002  -0.54310  -0.54240
 Alpha  occ. eigenvalues --   -0.53753  -0.53721  -0.53176  -0.53078  -0.52993
 Alpha  occ. eigenvalues --   -0.52911  -0.52712  -0.52662  -0.52645  -0.52476
 Alpha  occ. eigenvalues --   -0.52362  -0.52204  -0.51732  -0.51557  -0.51472
 Alpha  occ. eigenvalues --   -0.51453  -0.51031  -0.50906  -0.50495  -0.50285
 Alpha  occ. eigenvalues --   -0.49974  -0.49809  -0.49784  -0.49656  -0.49377
 Alpha  occ. eigenvalues --   -0.49277  -0.49031  -0.48961  -0.48949  -0.48826
 Alpha  occ. eigenvalues --   -0.48419  -0.48332  -0.48299  -0.48267  -0.48149
 Alpha  occ. eigenvalues --   -0.48034  -0.47561  -0.47364  -0.47160  -0.46899
 Alpha  occ. eigenvalues --   -0.46680  -0.46488  -0.46413  -0.46358  -0.46231
 Alpha  occ. eigenvalues --   -0.46035  -0.45983  -0.45827  -0.45606  -0.45533
 Alpha  occ. eigenvalues --   -0.45110  -0.44989  -0.44419  -0.44373  -0.44306
 Alpha  occ. eigenvalues --   -0.44203  -0.44051  -0.43964  -0.43891  -0.43853
 Alpha  occ. eigenvalues --   -0.43821  -0.43644  -0.43308  -0.43290  -0.43258
 Alpha  occ. eigenvalues --   -0.43145  -0.42877  -0.42671  -0.42628  -0.42597
 Alpha  occ. eigenvalues --   -0.42348  -0.42323  -0.41905  -0.41757  -0.41533
 Alpha  occ. eigenvalues --   -0.41406  -0.41337  -0.41261  -0.41005  -0.40770
 Alpha  occ. eigenvalues --   -0.40755  -0.40731  -0.40529  -0.40513  -0.40472
 Alpha  occ. eigenvalues --   -0.40279  -0.40110  -0.40056  -0.39426  -0.39243
 Alpha  occ. eigenvalues --   -0.38393  -0.38155  -0.37616  -0.37470  -0.37227
 Alpha  occ. eigenvalues --   -0.37119  -0.37054  -0.36978  -0.36487  -0.36448
 Alpha  occ. eigenvalues --   -0.35979  -0.35917  -0.34147  -0.34004  -0.33552
 Alpha  occ. eigenvalues --   -0.33362  -0.32992  -0.32927  -0.31249  -0.31063
 Alpha  occ. eigenvalues --   -0.30888  -0.30732  -0.29764  -0.29445  -0.29318
 Alpha  occ. eigenvalues --   -0.29152  -0.29076  -0.28893  -0.23941  -0.23791
 Alpha  occ. eigenvalues --   -0.20999  -0.20874
 Alpha virt. eigenvalues --   -0.08636  -0.08530  -0.01631  -0.01455   0.00073
 Alpha virt. eigenvalues --    0.00216   0.02389   0.02551   0.03166   0.03455
 Alpha virt. eigenvalues --    0.04841   0.04932   0.05500   0.05508   0.06307

 Mulliken charges:
               1
     1  Mg   0.837971
     2  C   -0.001344
     3  C   -0.094440
     4  C   -0.046281
     5  C   -0.064936
     6  N   -0.256512
     7  C   -0.052635
     8  C   -0.013774
     9  C   -0.086871
    10  C    0.045903
    11  C    0.104928
    12  C    0.053411
    13  C   -0.071214
    14  H    0.035808
    15  N   -0.433018
    16  C    0.167902
    17  C   -0.177678
    18  C   -0.004470
    19  C    0.148468
    20  C    0.110350
    21  C    0.011905
    22  O   -0.250241
    23  C    0.062679
    24  N   -0.341040
    25  C    0.040834
    26  C   -0.028004
    27  C   -0.023919
    28  C    0.074783
    29  C    0.076257
    30  C    0.035345
    31  C   -0.004293
    32  N   -0.311010
    33  C    0.080532
    34  C   -0.169105
    35  C    0.009760
    36  C    0.084056
    37  C    0.126720
    38  C    0.049661
    39  O   -0.186221
    40  C   -0.006386
    41  C    0.211598
    42  O   -0.249127
    43  O   -0.306400
    44  C    0.156859
    45  H   -0.018116
    46  H   -0.017463
    47  H   -0.041847
    48  H    0.001196
    49  H   -0.004748
    50  H    0.025569
    51  H    0.016247
    52  H    0.016132
    53  H    0.009824
    54  H    0.046511
    55  H    0.017821
    56  H    0.016652
    57  H    0.005447
    58  H    0.026429
    59  H    0.038523
    60  H    0.037202
    61  H    0.035211
    62  H    0.030969
    63  H    0.015806
    64  H    0.009547
    65  H    0.022813
    66  H    0.012729
    67  H    0.004573
    68  H    0.006100
    69  H    0.004790
    70  H    0.008645
    71  H    0.015633
    72  H    0.029164
    73  H    0.049690
    74  H    0.008242
    75  H    0.045763
    76  H    0.034282
    77  H    0.041889
    78  H    0.044250
    79  H    0.057656
    80  Mg   0.836915
    81  C   -0.016672
    82  C   -0.088084
    83  C   -0.045787
    84  C   -0.065462
    85  N   -0.254203
    86  C   -0.050164
    87  C   -0.014724
    88  C   -0.090447
    89  C    0.045182
    90  C    0.114530
    91  C    0.062705
    92  C   -0.077307
    93  H    0.034491
    94  N   -0.423290
    95  C    0.162237
    96  C   -0.175352
    97  C   -0.008392
    98  C    0.151652
    99  C    0.099678
   100  C    0.015116
   101  O   -0.253868
   102  C    0.061384
   103  N   -0.350112
   104  C    0.037126
   105  C   -0.019608
   106  C   -0.034809
   107  C    0.089512
   108  C    0.073747
   109  C    0.034860
   110  C   -0.007548
   111  N   -0.324468
   112  C    0.078841
   113  C   -0.164355
   114  C    0.004370
   115  C    0.095472
   116  C    0.132375
   117  C    0.044423
   118  O   -0.177076
   119  C    0.000319
   120  C    0.212104
   121  O   -0.251876
   122  O   -0.305142
   123  C    0.152645
   124  H   -0.020816
   125  H   -0.016191
   126  H   -0.040898
   127  H   -0.000870
   128  H   -0.005030
   129  H    0.022237
   130  H    0.014092
   131  H    0.014738
   132  H    0.013753
   133  H    0.038076
   134  H    0.019981
   135  H    0.019034
   136  H    0.007989
   137  H    0.025217
   138  H    0.039073
   139  H    0.037830
   140  H    0.035761
   141  H    0.033626
   142  H    0.013919
   143  H    0.012181
   144  H    0.024569
   145  H    0.011711
   146  H    0.005663
   147  H    0.005750
   148  H    0.003088
   149  H    0.010775
   150  H    0.017544
   151  H    0.030503
   152  H    0.047662
   153  H    0.006200
   154  H    0.049626
   155  H    0.037731
   156  H    0.043041
   157  H    0.048006
   158  H    0.053554
 Sum of Mulliken charges =  -0.00000

 Dipole moment (field-independent basis, Debye):
    X=              0.6180    Y=             -0.2647    Z=              7.8492  Tot=              7.8779
 Quadrupole moment (field-independent basis, Debye-Ang):
   XX=           -497.8598   YY=           -515.4851   ZZ=           -477.6912
   XY=            -23.5430   XZ=             -0.5531   YZ=             58.5573

 Normal termination of Gaussian 16 at Fri Sep 10 21:01:36 2021.
