 Gaussian 16, Revision A.03,
 Gaussian 16:  ES64L-G16RevA.03 25-Dec-2016

 -----------------------------------
 #p cam-b3lyp/Def2SVP td=(nstates=5)
 -----------------------------------

 --------------------------------
 TDDFT excited states in gaussian
 --------------------------------
 Symbolic Z-matrix:
 Charge =  0 Multiplicity = 1

                         Standard orientation:
 ---------------------------------------------------------------------
 Center     Atomic      Atomic             Coordinates (Angstroms)
 Number     Number       Type             X           Y           Z
 ---------------------------------------------------------------------
      1         12           0        7.639682   -0.940211    0.261647
      2          6           0        8.002195    2.147429   -1.512410
      3          6           0        8.491444    0.759661    3.095019
      4          6           0        7.769880   -3.729214    1.765353
      5          6           0        7.934925   -2.567103   -2.806205
      6          7           0        8.156717    1.182532    0.618412
      7          6           0        8.200695    2.276232   -0.135946
      8          6           0        8.402959    3.585053    0.684695
      9          6           0        9.096894    2.965571    1.979567
     10          6           0        8.520868    1.561983    1.915848
     11          6           0       10.616014    2.878328    1.873901
     12          6           0        7.045487    4.280195    1.039345
     13          6           0        7.162176    5.719223    1.550164
     14          1           0        6.129501    6.677503    1.185979
     15          7           0        7.588097   -1.358797    2.191666
     16          6           0        7.956316   -0.541808    3.207653
     17          6           0        7.733112   -1.311119    4.450642
     18          6           0        7.385101   -2.707058    4.065495
     19          6           0        7.595439   -2.660210    2.641086
     20          6           0        7.808483   -0.704832    5.818299
     21          6           0        6.944585   -3.897615    4.857107
     22          8           0        6.918906   -5.074498    4.358246
     23          6           0        6.624119   -3.660852    6.276363
     24          7           0        8.044686   -2.883768   -0.383483
     25          6           0        7.978353   -3.919002    0.460836
     26          6           0        8.026098   -5.226211   -0.273237
     27          6           0        7.894031   -4.867648   -1.823639
     28          6           0        7.874338   -3.323471   -1.707886
     29          6           0        9.286867   -6.072984   -0.050864
     30          6           0        6.755521   -5.562800   -2.611660
     31          6           0        5.414057   -5.067492   -2.119478
     32          7           0        7.741732   -0.345691   -1.823342
     33          6           0        7.885889   -1.189056   -2.934480
     34          6           0        8.015289   -0.322657   -4.120515
     35          6           0        7.953646    0.973155   -3.611676
     36          6           0        7.822109    0.919776   -2.194588
     37          6           0        8.224793   -0.764704   -5.456605
     38          6           0        7.993054    2.390583   -3.932928
     39          8           0        7.997153    3.043145   -4.977743
     40          6           0        8.148555    3.207950   -2.575151
     41          6           0        7.139977    4.323986   -2.598430
     42          8           0        5.916551    4.081629   -2.555318
     43          8           0        7.770215    5.496346   -2.428388
     44          6           0        6.823242    6.643137   -2.412093
     45          1           0        8.973064    1.134170    4.000406
     46          1           0        7.709730   -4.714752    2.231759
     47          1           0        7.945451   -3.004328   -3.806294
     48          1           0        9.066165    4.314916    0.220063
     49          1           0        8.775100    3.466153    2.892577
     50          1           0       10.961293    3.137335    0.873092
     51          1           0       10.864949    1.842719    2.106361
     52          1           0       11.093331    3.481876    2.646349
     53          1           0        6.617694    3.804234    1.921680
     54          1           0        6.364600    4.253984    0.187856
     55          1           0        8.152329    6.132235    1.355415
     56          1           0        7.084421    5.703094    2.637314
     57          1           0        8.245249    0.292673    5.790666
     58          1           0        8.521589   -1.297837    6.390606
     59          1           0        6.841550   -0.706201    6.321657
     60          1           0        7.500791   -3.253103    6.780084
     61          1           0        6.242667   -4.606340    6.660286
     62          1           0        5.850024   -2.895611    6.340651
     63          1           0        7.195406   -5.868221    0.016935
     64          1           0        8.796322   -5.121574   -2.380474
     65          1           0        9.080452   -7.075162    0.325616
     66          1           0        9.943517   -5.528195    0.626858
     67          1           0        9.923998   -6.183245   -0.927974
     68          1           0        6.781033   -6.639077   -2.444560
     69          1           0        6.810307   -5.392737   -3.686987
     70          1           0        5.229601   -5.691812   -1.245961
     71          1           0        4.648365   -5.224099   -2.880005
     72          1           0        5.472860   -4.034738   -1.775316
     73          1           0        7.564947   -0.164898   -6.083347
     74          1           0        8.010595   -1.828203   -5.560009
     75          1           0        9.283610   -0.538019   -5.580613
     76          1           0        9.171800    3.581356   -2.549488
     77          1           0        7.150734    7.340812   -3.182958
     78          1           0        6.791030    7.003816   -1.383853
     79          1           0        5.805799    6.432857   -2.743653
     80         12           0       -8.222637   -0.379649   -0.211219
     81          6           0       -5.676652    2.026942    0.566822
     82          6           0      -10.463214    1.743254    1.240577
     83          6           0      -10.408259   -2.664496   -0.475698
     84          6           0       -5.687142   -2.746858   -0.547770
     85          7           0       -7.980066    1.600450    0.744098
     86          6           0       -6.975167    2.443739    0.926792
     87          6           0       -7.396264    3.841333    1.454962
     88          6           0       -8.783210    3.427600    2.150708
     89          6           0       -9.122658    2.199827    1.308069
     90          6           0       -8.623262    2.985705    3.595868
     91          6           0       -7.620833    4.875394    0.296378
     92          6           0       -7.731149    6.333331    0.748045
     93          1           0       -7.178663    7.373242   -0.115557
     94          7           0      -10.203463   -0.275690   -0.147178
     95          6           0      -10.949420    0.666362    0.467121
     96          6           0      -12.350907    0.281911    0.238674
     97          6           0      -12.369888   -1.052584   -0.419729
     98          6           0      -10.964470   -1.399567   -0.352772
     99          6           0      -13.505536    1.184924    0.562453
    100          6           0      -13.472571   -1.885045   -1.000515
    101          8           0      -13.296155   -3.116954   -1.307286
    102          6           0      -14.789990   -1.242127   -1.112542
    103          7           0       -8.094403   -2.454002   -0.265679
    104          6           0       -9.192396   -3.210171   -0.440425
    105          6           0       -8.825545   -4.647620   -0.722470
    106          6           0       -7.241324   -4.651742   -0.941149
    107          6           0       -6.941360   -3.165572   -0.646708
    108          6           0       -9.191053   -5.653829    0.368558
    109          6           0       -6.715743   -5.262927   -2.268882
    110          6           0       -7.129638   -4.395509   -3.435789
    111          7           0       -6.062210   -0.355231   -0.213037
    112          6           0       -5.196765   -1.463376   -0.343830
    113          6           0       -3.818127   -0.962090   -0.169190
    114          6           0       -3.979880    0.409858    0.075905
    115          6           0       -5.362887    0.736629    0.075498
    116          6           0       -2.635386   -1.753584   -0.197046
    117          6           0       -3.295696    1.654024    0.345422
    118          8           0       -2.118002    2.008682    0.376747
    119          6           0       -4.370112    2.733243    0.800752
    120          6           0       -4.110869    3.999810    0.031914
    121          8           0       -4.265508    4.033291   -1.201613
    122          8           0       -3.935460    5.013568    0.899031
    123          6           0       -3.686108    6.293466    0.183858
    124          1           0      -11.208758    2.227941    1.871541
    125          1           0      -11.114743   -3.472444   -0.679588
    126          1           0       -4.835652   -3.404465   -0.735400
    127          1           0       -6.725319    4.270456    2.189442
    128          1           0       -9.536609    4.200016    2.019850
    129          1           0       -7.584569    2.909875    3.881369
    130          1           0       -9.105635    2.019347    3.663098
    131          1           0       -9.186068    3.650172    4.257726
    132          1           0       -8.625364    4.731788   -0.121996
    133          1           0       -6.854628    4.784949   -0.448851
    134          1           0       -7.391271    6.471475    1.781658
    135          1           0       -8.788063    6.609463    0.774281
    136          1           0      -13.192218    2.029988    1.187841
    137          1           0      -14.189060    0.613879    1.200090
    138          1           0      -14.045139    1.514451   -0.327996
    139          1           0      -15.118705   -0.918321   -0.127885
    140          1           0      -15.424059   -1.963579   -1.631502
    141          1           0      -14.687308   -0.338088   -1.723107
    142          1           0       -9.306109   -4.998992   -1.627293
    143          1           0       -6.724507   -5.236239   -0.165838
    144          1           0       -9.839351   -6.473987    0.006469
    145          1           0       -9.669918   -5.119999    1.178664
    146          1           0       -8.344230   -6.120977    0.868426
    147          1           0       -7.164546   -6.244898   -2.437568
    148          1           0       -5.638904   -5.393456   -2.287836
    149          1           0       -8.150352   -4.730816   -3.642706
    150          1           0       -6.477446   -4.565816   -4.289999
    151          1           0       -7.182273   -3.340510   -3.142752
    152          1           0       -1.908210   -1.206282   -0.781998
    153          1           0       -2.825859   -2.738393   -0.618536
    154          1           0       -2.407457   -1.801354    0.871140
    155          1           0       -4.255462    2.876245    1.875922
    156          1           0       -2.741082    6.693239    0.564386
    157          1           0       -4.593020    6.906480    0.343471
    158          1           0       -3.481242    6.241991   -0.879083
 ---------------------------------------------------------------------

 SCF Done:  E(RCAM-B3LYP) =  -4069.81132474     A.U. after   19 cycles

 Excitation energies and oscillator strengths:

 Excited State   1:      Singlet-A      1.6754 eV  740.02 nm  f=0.3972  <S**2>=0.000
     309 -> 315        0.16994
     311 -> 313        0.67182
     312 -> 314       -0.13899
     309 <- 315        0.10243
 This state for optimization and/or second-order correction.
 Total Energy, E(TD-HF/TD-DFT) =  -4069.74975449
 Copying the excited state density for this state as the 1-particle RhoCI density.

 Excited State   2:      Singlet-A      1.6800 eV  737.99 nm  f=0.3891  <S**2>=0.000
     310 -> 316        0.17158
     311 -> 313        0.13900
     312 -> 314        0.67146
     310 <- 316        0.10270

 Excited State   3:      Singlet-A      2.1856 eV  567.28 nm  f=0.0373  <S**2>=0.000
     309 -> 313        0.60566
     310 -> 314       -0.21549
     311 -> 315       -0.25702

 Excited State   4:      Singlet-A      2.1920 eV  565.63 nm  f=0.1541  <S**2>=0.000
     309 -> 313        0.21429
     310 -> 314        0.60371
     312 -> 316       -0.26201

 Excited State   5:      Singlet-A      2.7275 eV  454.57 nm  f=0.0000  <S**2>=0.000
     312 -> 313        0.70675

 The electronic state is 1-A.
 Alpha  occ. eigenvalues --  -46.87582 -46.87540 -19.26243 -19.25985 -19.19041
 Alpha  occ. eigenvalues --  -19.18695 -19.18644 -19.18602 -19.17935 -19.17914
 Alpha  occ. eigenvalues --  -14.42423 -14.42197 -14.41282 -14.41208 -14.39274
 Alpha  occ. eigenvalues --  -14.39152 -14.38516 -14.38330 -10.38977 -10.38764
 Alpha  occ. eigenvalues --  -10.35323 -10.35238 -10.34131 -10.34114 -10.31651
 Alpha  occ. eigenvalues --  -10.31390 -10.31229 -10.31150 -10.30952 -10.30655
 Alpha  occ. eigenvalues --  -10.30317 -10.30314 -10.30275 -10.30262 -10.30071
 Alpha  occ. eigenvalues --  -10.29980 -10.29813 -10.29686 -10.29388 -10.29361
 Alpha  occ. eigenvalues --  -10.29317 -10.29015 -10.28655 -10.28594 -10.28482
 Alpha  occ. eigenvalues --  -10.28324 -10.28251 -10.28112 -10.28079 -10.27913
 Alpha  occ. eigenvalues --  -10.27867 -10.27595 -10.27549 -10.27482 -10.27448
 Alpha  occ. eigenvalues --  -10.27404 -10.27402 -10.27385 -10.27344 -10.27307
 Alpha  occ. eigenvalues --  -10.27303 -10.27259 -10.27253 -10.27150 -10.26955
 Alpha  occ. eigenvalues --  -10.26891 -10.26623 -10.26391 -10.26356 -10.26216
 Alpha  occ. eigenvalues --  -10.26066 -10.26013 -10.26001 -10.25980 -10.25856
 Alpha  occ. eigenvalues --  -10.25783 -10.25731 -10.25615 -10.25339 -10.25261
 Alpha  occ. eigenvalues --  -10.24783 -10.24654 -10.24612 -10.24584 -10.24550
 Alpha  occ. eigenvalues --  -10.24497  -3.16332  -3.16282  -1.91214  -1.91163
 Alpha  occ. eigenvalues --   -1.90803  -1.90751  -1.90640  -1.90593  -1.16534
 Alpha  occ. eigenvalues --   -1.16330  -1.08539  -1.08367  -1.07006  -1.06898
 Alpha  occ. eigenvalues --   -1.06827  -1.06323  -1.04419  -1.04328  -1.03586
 Alpha  occ. eigenvalues --   -1.03518  -1.02987  -1.02960  -1.02165  -1.02031
 Alpha  occ. eigenvalues --   -0.91901  -0.91717  -0.89417  -0.89298  -0.89086
 Alpha  occ. eigenvalues --   -0.88929  -0.88147  -0.88070  -0.87698  -0.87628
 Alpha  occ. eigenvalues --   -0.87608  -0.87424  -0.87047  -0.87044  -0.84929
 Alpha  occ. eigenvalues --   -0.84726  -0.83801  -0.83724  -0.82863  -0.82754
 Alpha  occ. eigenvalues --   -0.82581  -0.82402  -0.81505  -0.81323  -0.80359
 Alpha  occ. eigenvalues --   -0.80346  -0.78562  -0.78556  -0.77071  -0.76984
 Alpha  occ. eigenvalues --   -0.76822  -0.76684  -0.75761  -0.75673  -0.74729
 Alpha  occ. eigenvalues --   -0.74680  -0.72616  -0.72535  -0.71507  -0.71435
 Alpha  occ. eigenvalues --   -0.69702  -0.69685  -0.68755  -0.68625  -0.67520
 Alpha  occ. eigenvalues --   -0.67399  -0.67130  -0.66958  -0.65197  -0.65026
 Alpha  occ. eigenvalues --   -0.64690  -0.64605  -0.64573  -0.64374  -0.64127
 Alpha  occ. eigenvalues --   -0.64044  -0.62185  -0.62030  -0.60265  -0.60214
 Alpha  occ. eigenvalues --   -0.59725  -0.59550  -0.58912  -0.58745  -0.58342
 Alpha  occ. eigenvalues --   -0.58259  -0.57455  -0.57318  -0.57156  -0.57071
 Alpha  occ. eigenvalues --   -0.56120  -0.56070  -0.55797  -0.55704  -0.55371
 Alpha  occ. eigenvalues --   -0.55287  -0.55165  -0.55108  -0.54402  -0.54275
 Alpha  occ. eigenvalues --   -0.53844  -0.53634  -0.53148  -0.53066  -0.53063
 Alpha  occ. eigenvalues --   -0.52975  -0.52817  -0.52657  -0.52601  -0.52523
 Alpha  occ. eigenvalues --   -0.52324  -0.52230  -0.51779  -0.51675  -0.51586
 Alpha  occ. eigenvalues --   -0.51360  -0.51111  -0.50951  -0.50409  -0.50356
 Alpha  occ. eigenvalues --   -0.49911  -0.49822  -0.49795  -0.49688  -0.49415
 Alpha  occ. eigenvalues --   -0.49271  -0.49121  -0.49023  -0.48968  -0.48850
 Alpha  occ. eigenvalues --   -0.48472  -0.48344  -0.48296  -0.48259  -0.48243
 Alpha  occ. eigenvalues --   -0.48209  -0.47519  -0.47457  -0.47065  -0.47044
 Alpha  occ. eigenvalues --   -0.46632  -0.46561  -0.46484  -0.46297  -0.46190
 Alpha  occ. eigenvalues --   -0.46121  -0.46000  -0.45920  -0.45727  -0.45570
 Alpha  occ. eigenvalues --   -0.45136  -0.44987  -0.44432  -0.44397  -0.44327
 Alpha  occ. eigenvalues --   -0.44278  -0.44050  -0.43999  -0.43917  -0.43857
 Alpha  occ. eigenvalues --   -0.43845  -0.43774  -0.43464  -0.43307  -0.43238
 Alpha  occ. eigenvalues --   -0.43145  -0.42842  -0.42806  -0.42786  -0.42480
 Alpha  occ. eigenvalues --   -0.42466  -0.42390  -0.41889  -0.41777  -0.41580
 Alpha  occ. eigenvalues --   -0.41459  -0.41388  -0.41281  -0.40916  -0.40903
 Alpha  occ. eigenvalues --   -0.40654  -0.40631  -0.40630  -0.40598  -0.40420
 Alpha  occ. eigenvalues --   -0.40348  -0.40162  -0.39954  -0.39352  -0.39238
 Alpha  occ. eigenvalues --   -0.38280  -0.38248  -0.37584  -0.37478  -0.37191
 Alpha  occ. eigenvalues --   -0.37124  -0.37093  -0.36999  -0.36669  -0.36437
 Alpha  occ. eigenvalues --   -0.36134  -0.35931  -0.34172  -0.34037  -0.33749
 Alpha  occ. eigenvalues --   -0.33458  -0.33094  -0.32933  -0.31204  -0.31132
 Alpha  occ. eigenvalues --   -0.30895  -0.30789  -0.29838  -0.29771  -0.29247
 Alpha  occ. eigenvalues --   -0.29206  -0.29120  -0.29072  -0.23957  -0.23830
 Alpha  occ. eigenvalues --   -0.21038  -0.20883
 Alpha virt. eigenvalues --   -0.08710  -0.08530  -0.01608  -0.01508   0.00048
 Alpha virt. eigenvalues --    0.00179   0.02303   0.02447   0.03312   0.03458
 Alpha virt. eigenvalues --    0.04800   0.04971   0.05277   0.05403   0.06248

 Mulliken charges:
               1
     1  Mg   0.840452
     2  C   -0.002094
     3  C   -0.093823
     4  C   -0.046124
     5  C   -0.064237
     6  N   -0.256705
     7  C   -0.052041
     8  C   -0.014260
     9  C   -0.087120
    10  C    0.046711
    11  C    0.104959
    12  C    0.053402
    13  C   -0.071645
    14  H    0.036512
    15  N   -0.433000
    16  C    0.168743
    17  C   -0.177123
    18  C   -0.004141
    19  C    0.148871
    20  C    0.110300
    21  C    0.012243
    22  O   -0.250269
    23  C    0.062439
    24  N   -0.341195
    25  C    0.041211
    26  C   -0.028002
    27  C   -0.023925
    28  C    0.074992
    29  C    0.076351
    30  C    0.035235
    31  C   -0.004462
    32  N   -0.310576
    33  C    0.080832
    34  C   -0.169562
    35  C    0.008385
    36  C    0.083691
    37  C    0.127218
    38  C    0.046637
    39  O   -0.188472
    40  C   -0.005609
    41  C    0.212433
    42  O   -0.255011
    43  O   -0.305326
    44  C    0.157648
    45  H   -0.018062
    46  H   -0.017425
    47  H   -0.041893
    48  H    0.000533
    49  H   -0.004093
    50  H    0.025234
    51  H    0.016137
    52  H    0.016157
    53  H    0.012118
    54  H    0.045708
    55  H    0.017001
    56  H    0.017614
    57  H    0.005739
    58  H    0.026183
    59  H    0.039671
    60  H    0.037042
    61  H    0.034984
    62  H    0.031901
    63  H    0.016152
    64  H    0.009075
    65  H    0.022677
    66  H    0.012451
    67  H    0.004387
    68  H    0.005673
    69  H    0.004577
    70  H    0.008251
    71  H    0.017690
    72  H    0.030122
    73  H    0.047909
    74  H    0.008817
    75  H    0.045545
    76  H    0.034593
    77  H    0.042200
    78  H    0.046080
    79  H    0.054708
    80  Mg   0.837786
    81  C   -0.016720
    82  C   -0.087871
    83  C   -0.045559
    84  C   -0.064946
    85  N   -0.254505
    86  C   -0.049923
    87  C   -0.014992
    88  C   -0.090481
    89  C    0.045675
    90  C    0.114464
    91  C    0.062557
    92  C   -0.077791
    93  H    0.035028
    94  N   -0.423409
    95  C    0.162818
    96  C   -0.174802
    97  C   -0.007934
    98  C    0.152030
    99  C    0.099446
   100  C    0.015481
   101  O   -0.253354
   102  C    0.061236
   103  N   -0.350050
   104  C    0.037401
   105  C   -0.019772
   106  C   -0.034836
   107  C    0.088995
   108  C    0.073726
   109  C    0.034750
   110  C   -0.007678
   111  N   -0.324235
   112  C    0.078575
   113  C   -0.162766
   114  C    0.002574
   115  C    0.096336
   116  C    0.131311
   117  C    0.042662
   118  O   -0.186384
   119  C    0.000658
   120  C    0.211736
   121  O   -0.250394
   122  O   -0.306035
   123  C    0.151927
   124  H   -0.019949
   125  H   -0.015741
   126  H   -0.040289
   127  H   -0.000891
   128  H   -0.004461
   129  H    0.022205
   130  H    0.014357
   131  H    0.015964
   132  H    0.013927
   133  H    0.038018
   134  H    0.020454
   135  H    0.019421
   136  H    0.008584
   137  H    0.025887
   138  H    0.039665
   139  H    0.038114
   140  H    0.036235
   141  H    0.033895
   142  H    0.014344
   143  H    0.012356
   144  H    0.024991
   145  H    0.011506
   146  H    0.005562
   147  H    0.006086
   148  H    0.003749
   149  H    0.010812
   150  H    0.018063
   151  H    0.030282
   152  H    0.047438
   153  H    0.008489
   154  H    0.046614
   155  H    0.034456
   156  H    0.043721
   157  H    0.048975
   158  H    0.054425
 Sum of Mulliken charges =  -0.00000

 Dipole moment (field-independent basis, Debye):
    X=             -1.6326    Y=              1.8356    Z=              6.4109  Tot=              6.8654
 Quadrupole moment (field-independent basis, Debye-Ang):
   XX=           -447.6443   YY=           -478.0831   ZZ=           -510.0937
   XY=            -31.8250   XZ=              8.6643   YZ=             44.2853

 Normal termination of Gaussian 16 at Sun Sep 12 02:23:50 2021.
