 Gaussian 16, Revision A.03,
 Gaussian 16:  ES64L-G16RevA.03 25-Dec-2016

 -----------------------------------
 #p cam-b3lyp/Def2SVP td=(nstates=5)
 -----------------------------------

 --------------------------------
 TDDFT excited states in gaussian
 --------------------------------
 Symbolic Z-matrix:
 Charge =  0 Multiplicity = 1

                         Standard orientation:
 ---------------------------------------------------------------------
 Center     Atomic      Atomic             Coordinates (Angstroms)
 Number     Number       Type             X           Y           Z
 ---------------------------------------------------------------------
      1         12           0       15.792577   -0.745343    0.161936
      2          6           0       16.016017    2.577683   -1.149470
      3          6           0       16.622676    0.559007    3.203757
      4          6           0       16.046605   -3.715171    1.244623
      5          6           0       16.102512   -1.899732   -3.111745
      6          7           0       16.236717    1.321883    0.817651
      7          6           0       16.229667    2.513912    0.229273
      8          6           0       16.395812    3.697313    1.228939
      9          6           0       17.130710    2.924414    2.414076
     10          6           0       16.605568    1.523704    2.152996
     11          6           0       18.650308    2.911609    2.283077
     12          6           0       15.019111    4.281441    1.692857
     13          6           0       15.090478    5.635042    2.405616
     14          1           0       14.018239    6.595585    2.193463
     15          7           0       15.784418   -1.439866    2.011374
     16          6           0       16.137228   -0.764625    3.131580
     17          6           0       15.960427   -1.713320    4.252026
     18          6           0       15.658169   -3.051322    3.671953
     19          6           0       15.845915   -2.791284    2.267492
     20          6           0       16.033442   -1.308410    5.692327
     21          6           0       15.273076   -4.359693    4.286770
     22          8           0       15.283229   -5.452329    3.622980
     23          6           0       14.964833   -4.342777    5.728207
     24          7           0       16.259009   -2.558433   -0.761526
     25          6           0       16.242891   -3.706496   -0.075469
     26          6           0       16.327760   -4.891223   -0.991524
     27          6           0       16.160127   -4.317895   -2.472384
     28          6           0       16.085624   -2.808510   -2.134041
     29          6           0       17.621773   -5.712297   -0.905607
     30          6           0       15.036479   -4.935093   -3.342385
     31          6           0       13.685088   -4.567801   -2.771478
     32          7           0       15.842470    0.147448   -1.815810
     33          6           0       16.001218   -0.520504   -3.038639
     34          6           0       16.081564    0.512372   -4.087820
     35          6           0       15.979949    1.717817   -3.396140
     36          6           0       15.871076    1.455397   -2.000585
     37          6           0       16.287653    0.276218   -5.475693
     38          6           0       15.962783    3.167234   -3.509069
     39          8           0       15.927805    3.963483   -4.448355
     40          6           0       16.107998    3.785352   -2.048703
     41          6           0       15.059022    4.853585   -1.900931
     42          8           0       13.846042    4.560848   -1.882246
     43          8           0       15.648343    6.012387   -1.568633
     44          6           0       14.660374    7.107676   -1.377812
     45          1           0       17.103384    0.817046    4.149418
     46          1           0       16.029350   -4.759297    1.563908
     47          1           0       16.114486   -2.187254   -4.164665
     48          1           0       17.025038    4.511480    0.868895
     49          1           0       16.804124    3.275229    3.392847
     50          1           0       18.971286    3.325436    1.327231
     51          1           0       18.940327    1.863594    2.360829
     52          1           0       19.116401    3.415146    3.130416
     53          1           0       14.621899    3.667038    2.500812
     54          1           0       14.327329    4.352375    0.852778
     55          1           0       16.061916    6.109475    2.263737
     56          1           0       15.029183    5.459151    3.479630
     57          1           0       16.432963   -0.301373    5.805479
     58          1           0       16.776018   -1.950070    6.166207
     59          1           0       15.074629   -1.419486    6.198954
     60          1           0       15.833229   -3.978742    6.277675
     61          1           0       14.623861   -5.347703    5.974606
     62          1           0       14.164270   -3.625062    5.909683
     63          1           0       15.525427   -5.599752   -0.789847
     64          1           0       17.062913   -4.454005   -3.068309
     65          1           0       17.457668   -6.765496   -0.676375
     66          1           0       18.267833   -5.246312   -0.162132
     67          1           0       18.249690   -5.670272   -1.795197
     68          1           0       15.103788   -6.022443   -3.333159
     69          1           0       15.069361   -4.609583   -4.382199
     70          1           0       13.536325   -5.318302   -1.995946
     71          1           0       12.914660   -4.642182   -3.539671
     72          1           0       13.711056   -3.594072   -2.281924
     73          1           0       15.597254    0.934502   -6.002932
     74          1           0       16.111036   -0.768626   -5.730077
     75          1           0       17.335549    0.558830   -5.575190
     76          1           0       17.117158    4.190068   -1.978540
     77          1           0       14.950870    7.921369   -2.042455
     78          1           0       14.629941    7.314617   -0.307927
     79          1           0       13.646594    6.908645   -1.727062
     80         12           0      -15.961776   -0.733243   -0.307174
     81          6           0      -15.768128    2.730550    0.611356
     82          6           0      -15.133233   -1.480172    2.916209
     83          6           0      -15.682519   -3.768902   -1.187074
     84          6           0      -15.644232    0.273147   -3.628634
     85          7           0      -15.531737    0.546793    1.444633
     86          6           0      -15.548828    1.848312    1.689777
     87          6           0      -15.397622    2.222527    3.188658
     88          6           0      -14.645857    0.896124    3.693010
     89          6           0      -15.158159   -0.088942    2.644267
     90          6           0      -13.133281    0.978798    3.572064
     91          6           0      -16.783275    2.403918    3.902166
     92          6           0      -16.715552    3.068340    5.279004
     93          1           0      -17.802902    3.958318    5.676616
     94          7           0      -15.962607   -2.391622    0.782937
     95          6           0      -15.619328   -2.511260    2.082604
     96          6           0      -15.769429   -3.937895    2.408685
     97          6           0      -16.070671   -4.676996    1.152620
     98          6           0      -15.892504   -3.621056    0.176231
     99          6           0      -15.704966   -4.462621    3.813651
    100          6           0      -16.443314   -6.101844    0.874869
    101          8           0      -16.426552   -6.582918   -0.313035
    102          6           0      -16.738011   -6.942366    2.044554
    103          7           0      -15.489561   -1.638604   -2.118160
    104          6           0      -15.488452   -2.977471   -2.242191
    105          6           0      -15.392472   -3.390951   -3.691400
    106          6           0      -15.573736   -2.044597   -4.535229
    107          6           0      -15.657668   -1.028308   -3.375269
    108          6           0      -14.090107   -4.077450   -4.102456
    109          6           0      -16.694747   -2.033380   -5.610336
    110          6           0      -18.049966   -2.098093   -4.943582
    111          7           0      -15.929744    1.150126   -1.365454
    112          6           0      -15.761146    1.345685   -2.753760
    113          6           0      -15.692960    2.803501   -2.982975
    114          6           0      -15.804402    3.358699   -1.699290
    115          6           0      -15.912678    2.319661   -0.735877
    116          6           0      -15.498677    3.439549   -4.241477
    117          6           0      -15.844391    4.587213   -0.939128
    118          8           0      -15.881652    5.783725   -1.223231
    119          6           0      -15.695542    4.232307    0.603038
    120          6           0      -16.753715    4.989090    1.358065
    121          8           0      -17.958533    4.735418    1.182931
    122          8           0      -16.166843    5.730489    2.315279
    123          6           0      -17.176632    6.491123    3.098592
    124          1           0      -14.658610   -1.820404    3.836998
    125          1           0      -15.689322   -4.797017   -1.556412
    126          1           0      -15.644381    0.669809   -4.646149
    127          1           0      -14.782656    3.093816    3.379536
    128          1           0      -14.980970    0.605251    4.685207
    129          1           0      -12.818730    1.873207    3.055131
    130          1           0      -12.833714    0.097583    3.020006
    131          1           0      -12.670670    0.887860    4.559009
    132          1           0      -17.170477    1.417566    4.188374
    133          1           0      -17.467399    2.941497    3.274776
    134          1           0      -15.743965    3.544055    5.459774
    135          1           0      -16.779269    2.290090    6.043393
    136          1           0      -15.306941   -3.710577    4.506047
    137          1           0      -14.956796   -5.262642    3.822176
    138          1           0      -16.659523   -4.867779    4.156177
    139          1           0      -15.872921   -6.960833    2.703141
    140          1           0      -17.070132   -7.900347    1.639797
    141          1           0      -17.554618   -6.480363    2.610531
    142          1           0      -16.188324   -4.078224   -3.950988
    143          1           0      -14.666773   -1.796079   -5.105746
    144          1           0      -14.245837   -5.078545   -4.547003
    145          1           0      -13.449595   -4.142943   -3.232974
    146          1           0      -13.473118   -3.516237   -4.802156
    147          1           0      -16.618889   -2.919135   -6.245817
    148          1           0      -16.660293   -1.166132   -6.261252
    149          1           0      -18.184574   -3.168527   -4.761554
    150          1           0      -18.821531   -1.710217   -5.605616
    151          1           0      -18.033174   -1.597468   -3.968522
    152          1           0      -16.189083    4.271638   -4.279668
    153          1           0      -15.661938    2.748336   -5.065694
    154          1           0      -14.448868    3.731533   -4.152434
    155          1           0      -14.689143    4.519851    0.909723
    156          1           0      -16.891666    7.546535    3.047698
    157          1           0      -17.193371    6.021634    4.100114
    158          1           0      -18.188345    6.526328    2.711750
 ---------------------------------------------------------------------

 SCF Done:  E(RCAM-B3LYP) =  -4069.81177225     A.U. after   19 cycles

 Excitation energies and oscillator strengths:

 Excited State   1:      Singlet-A      1.6754 eV  740.03 nm  f=0.2728  <S**2>=0.000
     310 -> 316        0.17018
     311 -> 314       -0.13479
     312 -> 313        0.67268
     310 <- 316        0.10259
 This state for optimization and/or second-order correction.
 Total Energy, E(TD-HF/TD-DFT) =  -4069.75020289
 Copying the excited state density for this state as the 1-particle RhoCI density.

 Excited State   2:      Singlet-A      1.6800 eV  738.00 nm  f=0.5041  <S**2>=0.000
     309 -> 315        0.17215
     311 -> 314        0.67232
     312 -> 313        0.13475
     309 <- 315        0.10308

 Excited State   3:      Singlet-A      2.1861 eV  567.15 nm  f=0.0980  <S**2>=0.000
     310 -> 313        0.64226
     312 -> 316       -0.27302

 Excited State   4:      Singlet-A      2.1925 eV  565.49 nm  f=0.1025  <S**2>=0.000
     309 -> 314        0.64049
     311 -> 315       -0.27818

 Excited State   5:      Singlet-A      3.0657 eV  404.42 nm  f=0.0000  <S**2>=0.000
     311 -> 313        0.70711

 The electronic state is 1-A.
 Alpha  occ. eigenvalues --  -46.87796 -46.87660 -19.26352 -19.26279 -19.19163
 Alpha  occ. eigenvalues --  -19.19016 -19.18817 -19.18714 -19.18167 -19.18051
 Alpha  occ. eigenvalues --  -14.42498 -14.42449 -14.41449 -14.41359 -14.39402
 Alpha  occ. eigenvalues --  -14.39352 -14.38600 -14.38586 -10.39092 -10.39075
 Alpha  occ. eigenvalues --  -10.35450 -10.35392 -10.34387 -10.34229 -10.31759
 Alpha  occ. eigenvalues --  -10.31673 -10.31404 -10.31309 -10.31024 -10.30908
 Alpha  occ. eigenvalues --  -10.30569 -10.30507 -10.30398 -10.30361 -10.30207
 Alpha  occ. eigenvalues --  -10.30141 -10.29920 -10.29894 -10.29630 -10.29437
 Alpha  occ. eigenvalues --  -10.29401 -10.29254 -10.28747 -10.28721 -10.28658
 Alpha  occ. eigenvalues --  -10.28535 -10.28405 -10.28364 -10.28142 -10.28115
 Alpha  occ. eigenvalues --  -10.28001 -10.27792 -10.27726 -10.27670 -10.27584
 Alpha  occ. eigenvalues --  -10.27516 -10.27501 -10.27484 -10.27483 -10.27468
 Alpha  occ. eigenvalues --  -10.27465 -10.27450 -10.27402 -10.27374 -10.27155
 Alpha  occ. eigenvalues --  -10.27051 -10.26702 -10.26695 -10.26416 -10.26414
 Alpha  occ. eigenvalues --  -10.26232 -10.26184 -10.26136 -10.26026 -10.26019
 Alpha  occ. eigenvalues --  -10.25934 -10.25849 -10.25841 -10.25436 -10.25394
 Alpha  occ. eigenvalues --  -10.24873 -10.24832 -10.24787 -10.24730 -10.24689
 Alpha  occ. eigenvalues --  -10.24688  -3.16539  -3.16410  -1.91420  -1.91293
 Alpha  occ. eigenvalues --   -1.91007  -1.90881  -1.90849  -1.90718  -1.16646
 Alpha  occ. eigenvalues --   -1.16628  -1.08658  -1.08625  -1.07218  -1.06967
 Alpha  occ. eigenvalues --   -1.06947  -1.06638  -1.04580  -1.04496  -1.03760
 Alpha  occ. eigenvalues --   -1.03663  -1.03233  -1.03039  -1.02410  -1.02111
 Alpha  occ. eigenvalues --   -0.91987  -0.91971  -0.89519  -0.89494  -0.89186
 Alpha  occ. eigenvalues --   -0.89153  -0.88287  -0.88219  -0.87869  -0.87793
 Alpha  occ. eigenvalues --   -0.87684  -0.87672  -0.87275  -0.87121  -0.85001
 Alpha  occ. eigenvalues --   -0.84981  -0.83936  -0.83875  -0.82969  -0.82932
 Alpha  occ. eigenvalues --   -0.82654  -0.82647  -0.81597  -0.81583  -0.80595
 Alpha  occ. eigenvalues --   -0.80443  -0.78797  -0.78636  -0.77218  -0.77145
 Alpha  occ. eigenvalues --   -0.76932  -0.76899  -0.75921  -0.75840  -0.74897
 Alpha  occ. eigenvalues --   -0.74802  -0.72773  -0.72699  -0.71671  -0.71581
 Alpha  occ. eigenvalues --   -0.69907  -0.69756  -0.68872  -0.68828  -0.67640
 Alpha  occ. eigenvalues --   -0.67602  -0.67218  -0.67201  -0.65285  -0.65273
 Alpha  occ. eigenvalues --   -0.64852  -0.64771  -0.64655  -0.64619  -0.64269
 Alpha  occ. eigenvalues --   -0.64203  -0.62295  -0.62279  -0.60442  -0.60340
 Alpha  occ. eigenvalues --   -0.59803  -0.59797  -0.58993  -0.58986  -0.58503
 Alpha  occ. eigenvalues --   -0.58426  -0.57582  -0.57555  -0.57308  -0.57236
 Alpha  occ. eigenvalues --   -0.56309  -0.56205  -0.55975  -0.55888  -0.55520
 Alpha  occ. eigenvalues --   -0.55453  -0.55338  -0.55247  -0.54521  -0.54488
 Alpha  occ. eigenvalues --   -0.53914  -0.53893  -0.53298  -0.53228  -0.53221
 Alpha  occ. eigenvalues --   -0.53143  -0.52913  -0.52903  -0.52756  -0.52669
 Alpha  occ. eigenvalues --   -0.52438  -0.52400  -0.51913  -0.51884  -0.51660
 Alpha  occ. eigenvalues --   -0.51615  -0.51201  -0.51194  -0.50574  -0.50476
 Alpha  occ. eigenvalues --   -0.50031  -0.49980  -0.49919  -0.49866  -0.49514
 Alpha  occ. eigenvalues --   -0.49488  -0.49213  -0.49203  -0.49105  -0.49094
 Alpha  occ. eigenvalues --   -0.48591  -0.48559  -0.48461  -0.48445  -0.48375
 Alpha  occ. eigenvalues --   -0.48339  -0.47694  -0.47595  -0.47296  -0.47118
 Alpha  occ. eigenvalues --   -0.46796  -0.46709  -0.46555  -0.46554  -0.46358
 Alpha  occ. eigenvalues --   -0.46270  -0.46161  -0.46085  -0.45823  -0.45819
 Alpha  occ. eigenvalues --   -0.45208  -0.45201  -0.44576  -0.44515  -0.44507
 Alpha  occ. eigenvalues --   -0.44477  -0.44144  -0.44128  -0.44087  -0.44078
 Alpha  occ. eigenvalues --   -0.44018  -0.43940  -0.43554  -0.43492  -0.43386
 Alpha  occ. eigenvalues --   -0.43385  -0.43026  -0.42931  -0.42901  -0.42696
 Alpha  occ. eigenvalues --   -0.42653  -0.42553  -0.42008  -0.41964  -0.41703
 Alpha  occ. eigenvalues --   -0.41669  -0.41532  -0.41460  -0.41140  -0.40990
 Alpha  occ. eigenvalues --   -0.40868  -0.40824  -0.40723  -0.40699  -0.40571
 Alpha  occ. eigenvalues --   -0.40493  -0.40232  -0.40229  -0.39441  -0.39425
 Alpha  occ. eigenvalues --   -0.38468  -0.38350  -0.37746  -0.37656  -0.37320
 Alpha  occ. eigenvalues --   -0.37266  -0.37262  -0.37200  -0.36772  -0.36710
 Alpha  occ. eigenvalues --   -0.36217  -0.36190  -0.34285  -0.34254  -0.33863
 Alpha  occ. eigenvalues --   -0.33767  -0.33185  -0.33176  -0.31346  -0.31273
 Alpha  occ. eigenvalues --   -0.31035  -0.30973  -0.30026  -0.29956  -0.29449
 Alpha  occ. eigenvalues --   -0.29327  -0.29321  -0.29211  -0.24080  -0.24036
 Alpha  occ. eigenvalues --   -0.21127  -0.21117
 Alpha virt. eigenvalues --   -0.08792  -0.08774  -0.01749  -0.01684  -0.00058
 Alpha virt. eigenvalues --   -0.00029   0.02202   0.02207   0.03123   0.03227
 Alpha virt. eigenvalues --    0.04719   0.04729   0.05102   0.05164   0.06179

 Mulliken charges:
               1
     1  Mg   0.838743
     2  C   -0.002958
     3  C   -0.094123
     4  C   -0.045878
     5  C   -0.063967
     6  N   -0.256790
     7  C   -0.052459
     8  C   -0.014009
     9  C   -0.086997
    10  C    0.046337
    11  C    0.104813
    12  C    0.053455
    13  C   -0.071815
    14  H    0.036173
    15  N   -0.433135
    16  C    0.168409
    17  C   -0.177156
    18  C   -0.004028
    19  C    0.148713
    20  C    0.110177
    21  C    0.012267
    22  O   -0.249644
    23  C    0.062483
    24  N   -0.341146
    25  C    0.041230
    26  C   -0.028179
    27  C   -0.023986
    28  C    0.074856
    29  C    0.076180
    30  C    0.035138
    31  C   -0.004503
    32  N   -0.310483
    33  C    0.080433
    34  C   -0.169707
    35  C    0.008374
    36  C    0.082992
    37  C    0.127308
    38  C    0.046124
    39  O   -0.188398
    40  C   -0.005325
    41  C    0.212872
    42  O   -0.257093
    43  O   -0.304796
    44  C    0.157679
    45  H   -0.017606
    46  H   -0.016857
    47  H   -0.041486
    48  H    0.000955
    49  H   -0.004034
    50  H    0.025482
    51  H    0.016439
    52  H    0.016662
    53  H    0.011193
    54  H    0.044135
    55  H    0.017879
    56  H    0.017939
    57  H    0.005880
    58  H    0.026812
    59  H    0.039521
    60  H    0.037347
    61  H    0.035611
    62  H    0.031483
    63  H    0.016536
    64  H    0.009467
    65  H    0.023195
    66  H    0.012546
    67  H    0.004756
    68  H    0.006355
    69  H    0.004742
    70  H    0.008759
    71  H    0.018147
    72  H    0.028989
    73  H    0.047594
    74  H    0.009112
    75  H    0.046018
    76  H    0.035162
    77  H    0.042976
    78  H    0.046403
    79  H    0.053712
    80  Mg   0.837875
    81  C   -0.016816
    82  C   -0.087781
    83  C   -0.045491
    84  C   -0.064838
    85  N   -0.254559
    86  C   -0.049861
    87  C   -0.015107
    88  C   -0.090498
    89  C    0.045752
    90  C    0.114374
    91  C    0.062543
    92  C   -0.077899
    93  H    0.034883
    94  N   -0.423501
    95  C    0.162905
    96  C   -0.174615
    97  C   -0.007803
    98  C    0.152115
    99  C    0.099364
   100  C    0.015579
   101  O   -0.253163
   102  C    0.061199
   103  N   -0.350052
   104  C    0.037518
   105  C   -0.019853
   106  C   -0.034817
   107  C    0.088907
   108  C    0.073628
   109  C    0.034742
   110  C   -0.007685
   111  N   -0.324110
   112  C    0.078445
   113  C   -0.163113
   114  C    0.002238
   115  C    0.096202
   116  C    0.131490
   117  C    0.042401
   118  O   -0.187860
   119  C    0.000908
   120  C    0.211250
   121  O   -0.251025
   122  O   -0.305622
   123  C    0.152038
   124  H   -0.019665
   125  H   -0.015548
   126  H   -0.040417
   127  H   -0.000647
   128  H   -0.004344
   129  H    0.022482
   130  H    0.014456
   131  H    0.016267
   132  H    0.013913
   133  H    0.037680
   134  H    0.020784
   135  H    0.019582
   136  H    0.008750
   137  H    0.026159
   138  H    0.039786
   139  H    0.038259
   140  H    0.036406
   141  H    0.033885
   142  H    0.014405
   143  H    0.012478
   144  H    0.025163
   145  H    0.011661
   146  H    0.005739
   147  H    0.006290
   148  H    0.003673
   149  H    0.010932
   150  H    0.017938
   151  H    0.030082
   152  H    0.046008
   153  H    0.008534
   154  H    0.047005
   155  H    0.035047
   156  H    0.043912
   157  H    0.049476
   158  H    0.053578
 Sum of Mulliken charges =  -0.00000

 Dipole moment (field-independent basis, Debye):
    X=              3.8874    Y=             -2.3008    Z=              7.4771  Tot=              8.7357
 Quadrupole moment (field-independent basis, Debye-Ang):
   XX=           -516.5552   YY=           -541.5753   ZZ=           -457.2984
   XY=             41.5273   XZ=             12.4913   YZ=             39.0535

 Normal termination of Gaussian 16 at Sat Sep  4 19:44:37 2021.
