 Gaussian 16, Revision A.03,
 Gaussian 16:  ES64L-G16RevA.03 25-Dec-2016

 -----------------------------------
 #p cam-b3lyp/Def2SVP td=(nstates=5)
 -----------------------------------

 --------------------------------
 TDDFT excited states in gaussian
 --------------------------------
 Symbolic Z-matrix:
 Charge =  0 Multiplicity = 1

                         Standard orientation:
 ---------------------------------------------------------------------
 Center     Atomic      Atomic             Coordinates (Angstroms)
 Number     Number       Type             X           Y           Z
 ---------------------------------------------------------------------
      1         12           0       -6.513488    0.558626   -0.616501
      2          6           0       -6.813087   -2.581896    1.074529
      3          6           0       -7.659893    2.035847    2.237731
      4          6           0       -6.689956    3.284413   -2.227577
      5          6           0       -6.490966   -1.223657   -3.611266
      6          7           0       -7.123519   -0.273777    1.341972
      7          6           0       -7.134594   -1.488508    1.881858
      8          6           0       -7.447044   -1.483390    3.408201
      9          6           0       -8.232166   -0.098762    3.499789
     10          6           0       -7.610653    0.612009    2.310482
     11          6           0       -9.732966   -0.232519    3.262702
     12          6           0       -6.147261   -1.463787    4.281075
     13          6           0       -6.351431   -1.785307    5.764414
     14          1           0       -5.320358   -2.533996    6.467053
     15          7           0       -6.617690    2.423253    0.027827
     16          6           0       -7.097559    2.841193    1.223794
     17          6           0       -6.960404    4.313560    1.225976
     18          6           0       -6.538152    4.733237   -0.139187
     19          6           0       -6.624866    3.483503   -0.850539
     20          6           0       -7.172960    5.157935    2.444828
     21          6           0       -6.132552    6.053441   -0.714237
     22          8           0       -6.027962    6.243234   -1.974243
     23          6           0       -5.944295    7.157508    0.244219
     24          7           0       -6.801845    0.997966   -2.636764
     25          6           0       -6.778116    2.260159   -3.078680
     26          6           0       -6.722202    2.313235   -4.576677
     27          6           0       -6.466403    0.813932   -5.062900
     28          6           0       -6.503517    0.109221   -3.684396
     29          6           0       -7.971404    2.869676   -5.273727
     30          6           0       -5.243074    0.571891   -5.982303
     31          6           0       -3.965183    0.811775   -5.209938
     32          7           0       -6.451343   -1.532584   -1.194448
     33          6           0       -6.472576   -2.047906   -2.498544
     34          6           0       -6.524222   -3.516840   -2.381791
     35          6           0       -6.546323   -3.754965   -1.008964
     36          6           0       -6.537239   -2.512690   -0.312572
     37          6           0       -6.603039   -4.436627   -3.464479
     38          6           0       -6.600370   -4.769255    0.031301
     39          8           0       -6.533100   -5.999175    0.047557
     40          6           0       -6.898228   -4.047963    1.419409
     41          6           0       -5.925625   -4.589947    2.431143
     42          8           0       -4.703853   -4.355121    2.333697
     43          8           0       -6.603402   -5.092903    3.474309
     44          6           0       -5.696519   -5.620828    4.528355
     45          1           0       -8.229679    2.583454    2.990999
     46          1           0       -6.640949    4.198537   -2.822903
     47          1           0       -6.401081   -1.848142   -4.501992
     48          1           0       -8.088971   -2.298229    3.743451
     49          1           0       -8.006432    0.436846    4.421683
     50          1           0       -9.997370   -1.239981    2.941718
     51          1           0       -9.969823    0.490316    2.481740
     52          1           0      -10.293797    0.082817    4.142935
     53          1           0       -5.783816   -0.439344    4.361608
     54          1           0       -5.394275   -2.135237    3.866959
     55          1           0       -7.332863   -2.224463    5.945639
     56          1           0       -6.368269   -0.846561    6.318193
     57          1           0       -7.635580    4.589100    3.250405
     58          1           0       -7.914996    5.912333    2.184105
     59          1           0       -6.253977    5.644083    2.772642
     60          1           0       -6.873445    7.322551    0.790102
     61          1           0       -5.569376    7.999400   -0.336732
     62          1           0       -5.202214    6.859067    0.985297
     63          1           0       -5.900952    2.943580   -4.915261
     64          1           0       -7.308649    0.419038   -5.631542
     65          1           0       -7.768416    3.724481   -5.919334
     66          1           0       -8.700774    3.124423   -4.505342
     67          1           0       -8.526047    2.142779   -5.866526
     68          1           0       -5.250538    1.273376   -6.815855
     69          1           0       -5.209044   -0.435630   -6.397023
     70          1           0       -3.838789    1.891705   -5.277828
     71          1           0       -3.131743    0.290695   -5.682235
     72          1           0       -4.084919    0.563384   -4.155210
     73          1           0       -5.909497   -5.244051   -3.229883
     74          1           0       -6.348624   -3.958072   -4.409921
     75          1           0       -7.653379   -4.722509   -3.410515
     76          1           0       -7.930625   -4.280735    1.678438
     77          1           0       -5.976501   -6.659958    4.701714
     78          1           0       -5.764952   -4.931220    5.369879
     79          1           0       -4.648166   -5.733868    4.249934
     80         12           0        6.672833    0.757155    0.519520
     81          6           0        6.695334   -2.113299   -1.634337
     82          6           0        5.610300   -1.310292    3.015767
     83          6           0        6.210375    3.329779    2.318179
     84          6           0        6.619951    2.735980   -2.348790
     85          7           0        6.245319   -1.412555    0.562365
     86          6           0        6.348798   -2.412368   -0.300196
     87          6           0        6.143275   -3.820549    0.319736
     88          6           0        5.264609   -3.395922    1.595083
     89          6           0        5.757408   -1.960251    1.764366
     90          6           0        3.772017   -3.358325    1.312026
     91          6           0        7.496694   -4.487169    0.750874
     92          6           0        7.403419   -5.979410    1.076841
     93          1           0        8.532105   -6.839191    0.731413
     94          7           0        6.485046    0.931407    2.487494
     95          6           0        6.061431   -0.014862    3.351446
     96          6           0        6.082792    0.615311    4.680579
     97          6           0        6.396018    2.060093    4.509720
     98          6           0        6.354545    2.169795    3.065313
     99          6           0        5.899660   -0.161068    5.952245
    100          6           0        6.672823    3.163531    5.485429
    101          8           0        6.685545    4.393504    5.125118
    102          6           0        6.836068    2.769031    6.892273
    103          7           0        6.234345    2.737224    0.061925
    104          6           0        6.137118    3.665288    1.030011
    105          6           0        6.090789    5.057923    0.447925
    106          6           0        6.422061    4.884873   -1.107033
    107          6           0        6.518978    3.344955   -1.175276
    108          6           0        4.764476    5.801132    0.605806
    109          6           0        7.598978    5.725386   -1.673667
    110          6           0        8.905779    5.248020   -1.082258
    111          7           0        6.845102    0.418195   -1.607335
    112          6           0        6.769966    1.384855   -2.633980
    113          6           0        6.827131    0.659695   -3.919781
    114          6           0        6.909014   -0.691007   -3.549123
    115          6           0        6.882947   -0.801306   -2.132562
    116          6           0        6.753062    1.251123   -5.212404
    117          6           0        7.000875   -2.049285   -4.034239
    118          8           0        7.145960   -2.568823   -5.140028
    119          6           0        6.739141   -3.038956   -2.818329
    120          6           0        7.808547   -4.096475   -2.841706
    121          8           0        8.998160   -3.796988   -2.637427
    122          8           0        7.227873   -5.309470   -2.884489
    123          6           0        8.247831   -6.391743   -2.897979
    124          1           0        5.060138   -1.823078    3.805236
    125          1           0        6.158666    4.257411    2.892895
    126          1           0        6.707534    3.287737   -3.287168
    127          1           0        5.587486   -4.513319   -0.300714
    128          1           0        5.520323   -3.992158    2.467136
    129          1           0        3.556656   -3.509206    0.264650
    130          1           0        3.436858   -2.379779    1.630059
    131          1           0        3.249313   -4.077645    1.948963
    132          1           0        7.790210   -4.098015    1.734312
    133          1           0        8.254185   -4.326085    0.008649
    134          1           0        6.462763   -6.420187    0.724955
    135          1           0        7.364192   -6.095632    2.162645
    136          1           0        5.522612   -1.172262    5.755431
    137          1           0        5.092829    0.325746    6.510719
    138          1           0        6.799552   -0.174497    6.570864
    139          1           0        5.936655    2.260644    7.231474
    140          1           0        7.115576    3.682201    7.421298
    141          1           0        7.652878    2.041731    6.959149
    142          1           0        6.844643    5.691084    0.899483
    143          1           0        5.570244    5.174474   -1.739798
    144          1           0        4.867303    6.771561    1.127114
    145          1           0        4.073207    5.157435    1.133385
    146          1           0        4.232624    5.999134   -0.323245
    147          1           0        7.490820    6.773062   -1.382380
    148          1           0        7.667844    5.697517   -2.756011
    149          1           0        8.947197    5.770051   -0.121604
    150          1           0        9.740715    5.529513   -1.720749
    151          1           0        8.873059    4.172688   -0.871920
    152          1           0        7.506533    0.767439   -5.819722
    153          1           0        6.908475    2.327012   -5.166848
    154          1           0        5.725528    0.995985   -5.485033
    155          1           0        5.742291   -3.461834   -2.948869
    156          1           0        8.048248   -7.007874   -3.780163
    157          1           0        8.172341   -6.885708   -1.911033
    158          1           0        9.279301   -6.106275   -3.068350
 ---------------------------------------------------------------------

 SCF Done:  E(RCAM-B3LYP) =  -4069.81198437     A.U. after   19 cycles

 Excitation energies and oscillator strengths:

 Excited State   1:      Singlet-A      1.6717 eV  741.67 nm  f=0.2203  <S**2>=0.000
     310 -> 316        0.14622
     311 -> 313       -0.36271
     312 -> 314        0.58257
 This state for optimization and/or second-order correction.
 Total Energy, E(TD-HF/TD-DFT) =  -4069.75055102
 Copying the excited state density for this state as the 1-particle RhoCI density.

 Excited State   2:      Singlet-A      1.6822 eV  737.05 nm  f=0.5144  <S**2>=0.000
     309 -> 315        0.14972
     311 -> 313        0.58190
     312 -> 314        0.36231

 Excited State   3:      Singlet-A      2.1848 eV  567.49 nm  f=0.0868  <S**2>=0.000
     309 -> 313       -0.10880
     310 -> 314        0.63360
     312 -> 316       -0.26774

 Excited State   4:      Singlet-A      2.1932 eV  565.32 nm  f=0.1099  <S**2>=0.000
     309 -> 313        0.63146
     310 -> 314        0.10793
     311 -> 315       -0.27460

 Excited State   5:      Singlet-A      2.6460 eV  468.58 nm  f=0.0000  <S**2>=0.000
     312 -> 313        0.70710

 The electronic state is 1-A.
 Alpha  occ. eigenvalues --  -46.87860 -46.87544 -19.26422 -19.26214 -19.19157
 Alpha  occ. eigenvalues --  -19.19034 -19.18867 -19.18641 -19.18250 -19.17939
 Alpha  occ. eigenvalues --  -14.42516 -14.42369 -14.41508 -14.41248 -14.39465
 Alpha  occ. eigenvalues --  -14.39240 -14.38652 -14.38486 -10.39210 -10.38962
 Alpha  occ. eigenvalues --  -10.35499 -10.35321 -10.34472 -10.34113 -10.31838
 Alpha  occ. eigenvalues --  -10.31621 -10.31475 -10.31169 -10.30981 -10.30893
 Alpha  occ. eigenvalues --  -10.30635 -10.30569 -10.30292 -10.30257 -10.30243
 Alpha  occ. eigenvalues --  -10.30038 -10.29977 -10.29790 -10.29692 -10.29329
 Alpha  occ. eigenvalues --  -10.29312 -10.29297 -10.28840 -10.28669 -10.28545
 Alpha  occ. eigenvalues --  -10.28492 -10.28432 -10.28289 -10.28196 -10.27942
 Alpha  occ. eigenvalues --  -10.27892 -10.27855 -10.27791 -10.27644 -10.27538
 Alpha  occ. eigenvalues --  -10.27534 -10.27532 -10.27487 -10.27474 -10.27432
 Alpha  occ. eigenvalues --  -10.27377 -10.27365 -10.27363 -10.27294 -10.27251
 Alpha  occ. eigenvalues --  -10.26920 -10.26821 -10.26538 -10.26452 -10.26365
 Alpha  occ. eigenvalues --  -10.26305 -10.26201 -10.26073 -10.26065 -10.25893
 Alpha  occ. eigenvalues --  -10.25827 -10.25758 -10.25739 -10.25468 -10.25328
 Alpha  occ. eigenvalues --  -10.24898 -10.24847 -10.24762 -10.24703 -10.24663
 Alpha  occ. eigenvalues --  -10.24584  -3.16603  -3.16294  -1.91485  -1.91177
 Alpha  occ. eigenvalues --   -1.91071  -1.90913  -1.90765  -1.90602  -1.16770
 Alpha  occ. eigenvalues --   -1.16510  -1.08712  -1.08544  -1.07267  -1.06896
 Alpha  occ. eigenvalues --   -1.06818  -1.06777  -1.04649  -1.04366  -1.03821
 Alpha  occ. eigenvalues --   -1.03547  -1.03295  -1.02929  -1.02473  -1.01999
 Alpha  occ. eigenvalues --   -0.92046  -0.91866  -0.89568  -0.89394  -0.89271
 Alpha  occ. eigenvalues --   -0.88975  -0.88333  -0.88126  -0.87930  -0.87741
 Alpha  occ. eigenvalues --   -0.87687  -0.87559  -0.87329  -0.87029  -0.85063
 Alpha  occ. eigenvalues --   -0.84851  -0.83983  -0.83787  -0.83015  -0.82853
 Alpha  occ. eigenvalues --   -0.82726  -0.82519  -0.81681  -0.81473  -0.80674
 Alpha  occ. eigenvalues --   -0.80325  -0.78855  -0.78534  -0.77282  -0.77020
 Alpha  occ. eigenvalues --   -0.77018  -0.76763  -0.76006  -0.75687  -0.74952
 Alpha  occ. eigenvalues --   -0.74702  -0.72835  -0.72585  -0.71738  -0.71451
 Alpha  occ. eigenvalues --   -0.69943  -0.69669  -0.68949  -0.68688  -0.67709
 Alpha  occ. eigenvalues --   -0.67492  -0.67305  -0.67073  -0.65369  -0.65126
 Alpha  occ. eigenvalues --   -0.64928  -0.64695  -0.64652  -0.64526  -0.64321
 Alpha  occ. eigenvalues --   -0.64103  -0.62398  -0.62157  -0.60496  -0.60246
 Alpha  occ. eigenvalues --   -0.59880  -0.59644  -0.59053  -0.58877  -0.58572
 Alpha  occ. eigenvalues --   -0.58311  -0.57677  -0.57431  -0.57371  -0.57136
 Alpha  occ. eigenvalues --   -0.56376  -0.56092  -0.56088  -0.55759  -0.55585
 Alpha  occ. eigenvalues --   -0.55405  -0.55344  -0.55145  -0.54602  -0.54381
 Alpha  occ. eigenvalues --   -0.53980  -0.53746  -0.53360  -0.53298  -0.53124
 Alpha  occ. eigenvalues --   -0.53020  -0.52999  -0.52820  -0.52778  -0.52558
 Alpha  occ. eigenvalues --   -0.52474  -0.52317  -0.51974  -0.51784  -0.51698
 Alpha  occ. eigenvalues --   -0.51523  -0.51267  -0.51085  -0.50621  -0.50390
 Alpha  occ. eigenvalues --   -0.50076  -0.49978  -0.49857  -0.49769  -0.49587
 Alpha  occ. eigenvalues --   -0.49367  -0.49287  -0.49175  -0.49078  -0.48949
 Alpha  occ. eigenvalues --   -0.48675  -0.48519  -0.48508  -0.48423  -0.48283
 Alpha  occ. eigenvalues --   -0.48243  -0.47763  -0.47474  -0.47360  -0.47014
 Alpha  occ. eigenvalues --   -0.46859  -0.46640  -0.46592  -0.46422  -0.46403
 Alpha  occ. eigenvalues --   -0.46229  -0.46165  -0.45980  -0.45904  -0.45700
 Alpha  occ. eigenvalues --   -0.45250  -0.45112  -0.44656  -0.44569  -0.44398
 Alpha  occ. eigenvalues --   -0.44338  -0.44205  -0.44162  -0.44092  -0.43985
 Alpha  occ. eigenvalues --   -0.43979  -0.43831  -0.43585  -0.43454  -0.43430
 Alpha  occ. eigenvalues --   -0.43256  -0.43094  -0.42810  -0.42809  -0.42781
 Alpha  occ. eigenvalues --   -0.42707  -0.42460  -0.42070  -0.41853  -0.41774
 Alpha  occ. eigenvalues --   -0.41614  -0.41549  -0.41322  -0.41208  -0.40941
 Alpha  occ. eigenvalues --   -0.40884  -0.40851  -0.40623  -0.40622  -0.40567
 Alpha  occ. eigenvalues --   -0.40381  -0.40332  -0.40081  -0.39475  -0.39340
 Alpha  occ. eigenvalues --   -0.38521  -0.38246  -0.37844  -0.37513  -0.37373
 Alpha  occ. eigenvalues --   -0.37346  -0.37157  -0.37062  -0.36821  -0.36650
 Alpha  occ. eigenvalues --   -0.36272  -0.36102  -0.34351  -0.34136  -0.33895
 Alpha  occ. eigenvalues --   -0.33738  -0.33254  -0.33061  -0.31397  -0.31199
 Alpha  occ. eigenvalues --   -0.31101  -0.30856  -0.30111  -0.29841  -0.29510
 Alpha  occ. eigenvalues --   -0.29386  -0.29226  -0.29103  -0.24145  -0.23919
 Alpha  occ. eigenvalues --   -0.21189  -0.21002
 Alpha virt. eigenvalues --   -0.08836  -0.08682  -0.01810  -0.01573  -0.00120
 Alpha virt. eigenvalues --    0.00076   0.02132   0.02315   0.03051   0.03330
 Alpha virt. eigenvalues --    0.04641   0.04868   0.04975   0.05293   0.06068

 Mulliken charges:
               1
     1  Mg   0.838627
     2  C   -0.003274
     3  C   -0.094215
     4  C   -0.045789
     5  C   -0.063697
     6  N   -0.256805
     7  C   -0.052599
     8  C   -0.014020
     9  C   -0.087010
    10  C    0.046279
    11  C    0.104777
    12  C    0.053511
    13  C   -0.071494
    14  H    0.034966
    15  N   -0.433189
    16  C    0.168452
    17  C   -0.177070
    18  C   -0.003884
    19  C    0.148725
    20  C    0.110117
    21  C    0.012312
    22  O   -0.249513
    23  C    0.062438
    24  N   -0.341136
    25  C    0.041316
    26  C   -0.028220
    27  C   -0.024010
    28  C    0.074751
    29  C    0.076122
    30  C    0.035054
    31  C   -0.004597
    32  N   -0.310424
    33  C    0.080280
    34  C   -0.169646
    35  C    0.008241
    36  C    0.082862
    37  C    0.127327
    38  C    0.045909
    39  O   -0.188727
    40  C   -0.005294
    41  C    0.212929
    42  O   -0.257907
    43  O   -0.304503
    44  C    0.157971
    45  H   -0.017522
    46  H   -0.016664
    47  H   -0.041163
    48  H    0.000902
    49  H   -0.004091
    50  H    0.025500
    51  H    0.016640
    52  H    0.016737
    53  H    0.011225
    54  H    0.043516
    55  H    0.018151
    56  H    0.018131
    57  H    0.005854
    58  H    0.026992
    59  H    0.039761
    60  H    0.037444
    61  H    0.035760
    62  H    0.031618
    63  H    0.016651
    64  H    0.009621
    65  H    0.023365
    66  H    0.012513
    67  H    0.004926
    68  H    0.006618
    69  H    0.005058
    70  H    0.008666
    71  H    0.018800
    72  H    0.028619
    73  H    0.047451
    74  H    0.009491
    75  H    0.046093
    76  H    0.035274
    77  H    0.043024
    78  H    0.046386
    79  H    0.052708
    80  Mg   0.837946
    81  C   -0.016779
    82  C   -0.087511
    83  C   -0.045836
    84  C   -0.064984
    85  N   -0.254666
    86  C   -0.049314
    87  C   -0.015225
    88  C   -0.090544
    89  C    0.045824
    90  C    0.114262
    91  C    0.062482
    92  C   -0.077864
    93  H    0.034328
    94  N   -0.423490
    95  C    0.162866
    96  C   -0.174609
    97  C   -0.008203
    98  C    0.152280
    99  C    0.099421
   100  C    0.015294
   101  O   -0.253662
   102  C    0.061304
   103  N   -0.350062
   104  C    0.037616
   105  C   -0.019783
   106  C   -0.034838
   107  C    0.088966
   108  C    0.073710
   109  C    0.034810
   110  C   -0.007608
   111  N   -0.324118
   112  C    0.078562
   113  C   -0.163279
   114  C    0.002330
   115  C    0.096183
   116  C    0.131499
   117  C    0.042304
   118  O   -0.188024
   119  C    0.000965
   120  C    0.211196
   121  O   -0.251304
   122  O   -0.305297
   123  C    0.152134
   124  H   -0.019071
   125  H   -0.016091
   126  H   -0.040698
   127  H    0.000139
   128  H   -0.004490
   129  H    0.023368
   130  H    0.014697
   131  H    0.018222
   132  H    0.013574
   133  H    0.037321
   134  H    0.021639
   135  H    0.019522
   136  H    0.009096
   137  H    0.025707
   138  H    0.039454
   139  H    0.037980
   140  H    0.035902
   141  H    0.033926
   142  H    0.014087
   143  H    0.012505
   144  H    0.024566
   145  H    0.011531
   146  H    0.005867
   147  H    0.005988
   148  H    0.003585
   149  H    0.010737
   150  H    0.017719
   151  H    0.030259
   152  H    0.045797
   153  H    0.008311
   154  H    0.046913
   155  H    0.035800
   156  H    0.043881
   157  H    0.049729
   158  H    0.053245
 Sum of Mulliken charges =  -0.00000

 Dipole moment (field-independent basis, Debye):
    X=             -4.6749    Y=              1.9103    Z=              5.9996  Tot=              7.8421
 Quadrupole moment (field-independent basis, Debye-Ang):
   XX=           -518.2561   YY=           -521.2229   ZZ=           -478.3436
   XY=            -23.1182   XZ=              5.2520   YZ=            -21.0257

 Normal termination of Gaussian 16 at Sat Sep 11 16:59:22 2021.
