 Gaussian 16, Revision A.03,
 Gaussian 16:  ES64L-G16RevA.03 25-Dec-2016

 -----------------------------------
 #p cam-b3lyp/Def2SVP td=(nstates=5)
 -----------------------------------

 --------------------------------
 TDDFT excited states in gaussian
 --------------------------------
 Symbolic Z-matrix:
 Charge =  0 Multiplicity = 1

                         Standard orientation:
 ---------------------------------------------------------------------
 Center     Atomic      Atomic             Coordinates (Angstroms)
 Number     Number       Type             X           Y           Z
 ---------------------------------------------------------------------
      1         12           0        5.349841   -0.565729    0.899543
      2          6           0        5.856145    2.346836   -1.118584
      3          6           0        5.737254    1.441969    3.631232
      4          6           0        5.359250   -3.184656    2.687770
      5          6           0        6.127971   -2.469691   -1.913836
      6          7           0        5.740874    1.603798    1.101757
      7          6           0        5.854415    2.619152    0.251265
      8          6           0        5.895612    4.010185    0.951768
      9          6           0        6.420381    3.554058    2.386538
     10          6           0        5.905881    2.125352    2.390432
     11          6           0        7.941287    3.528720    2.499247
     12          6           0        4.479447    4.671849    1.043463
     13          6           0        4.475296    6.157910    1.413543
     14          1           0        3.473043    7.026040    0.814219
     15          7           0        5.040820   -0.795112    2.837258
     16          6           0        5.235001    0.133991    3.803875
     17          6           0        4.864552   -0.519474    5.077622
     18          6           0        4.620688   -1.961309    4.795248
     19          6           0        5.027890   -2.044408    3.415878
     20          6           0        4.726415    0.220814    6.372474
     21          6           0        4.112744   -3.088021    5.638245
     22          8           0        4.196581   -4.308023    5.265228
     23          6           0        3.587905   -2.728701    6.968085
     24          7           0        5.905825   -2.541850    0.520779
     25          6           0        5.755557   -3.491323    1.450782
     26          6           0        5.949491   -4.860463    0.869588
     27          6           0        6.025311   -4.662214   -0.713037
     28          6           0        5.938376   -3.116788   -0.761713
     29          6           0        7.193718   -5.620873    1.348845
     30          6           0        5.032800   -5.484240   -1.573045
     31          6           0        3.619723   -5.006989   -1.322960
     32          7           0        5.724796   -0.174261   -1.202172
     33          6           0        6.051873   -1.114711   -2.189718
     34          6           0        6.318268   -0.363583   -3.430246
     35          6           0        6.142683    0.971496   -3.071667
     36          6           0        5.814702    1.051106   -1.688055
     37          6           0        6.728398   -0.924057   -4.672058
     38          6           0        6.179976    2.350887   -3.529648
     39          8           0        6.309580    2.897371   -4.626029
     40          6           0        6.115525    3.303818   -2.255444
     41          6           0        5.083873    4.363317   -2.531970
     42          8           0        3.875277    4.068845   -2.631708
     43          8           0        5.644698    5.575147   -2.399742
     44          6           0        4.667410    6.672006   -2.632044
     45          1           0        6.073879    1.925734    4.550251
     46          1           0        5.266683   -4.121474    3.241161
     47          1           0        6.293730   -3.001839   -2.852343
     48          1           0        6.593108    4.721499    0.509099
     49          1           0        5.956794    4.125952    3.190121
     50          1           0        8.415318    3.704410    1.533665
     51          1           0        8.189162    2.533797    2.869623
     52          1           0        8.284791    4.226933    3.262976
     53          1           0        3.947644    4.264985    1.903526
     54          1           0        3.926526    4.530186    0.114197
     55          1           0        5.468779    6.596147    1.314305
     56          1           0        4.245768    6.244753    2.475605
     57          1           0        5.129436    1.230318    6.301618
     58          1           0        5.371048   -0.278903    7.095274
     59          1           0        3.698804    0.223120    6.736263
     60          1           0        4.370898   -2.232602    7.541982
     61          1           0        3.187709   -3.648965    7.392123
     62          1           0        2.787555   -1.998260    6.846249
     63          1           0        5.107935   -5.509454    1.108374
     64          1           0        7.004949   -4.926594   -1.111895
     65          1           0        6.969643   -6.589953    1.795363
     66          1           0        7.729956   -4.981885    2.049869
     67          1           0        7.951338   -5.786352    0.583309
     68          1           0        5.070157   -6.536547   -1.293403
     69          1           0        5.232836   -5.417989   -2.642553
     70          1           0        3.334852   -5.550704   -0.422929
     71          1           0        2.974396   -5.273364   -2.160700
     72          1           0        3.595225   -3.943857   -1.082881
     73          1           0        6.143905   -0.420399   -5.441906
     74          1           0        6.566244   -2.001494   -4.693016
     75          1           0        7.786030   -0.660867   -4.672905
     76          1           0        7.112019    3.725848   -2.128910
     77          1           0        5.076924    7.305457   -3.418983
     78          1           0        4.478763    7.129798   -1.660836
     79          1           0        3.714339    6.382429   -3.076049
     80         12           0       -5.072429   -0.723050   -0.887770
     81          6           0       -7.142754    1.553066    0.959420
     82          6           0       -4.044567    1.950080   -2.740475
     83          6           0       -3.587975   -2.757631   -2.817609
     84          6           0       -7.079570   -3.306089    0.314304
     85          7           0       -5.596969    1.424104   -0.804935
     86          6           0       -6.348221    2.182829   -0.021174
     87          6           0       -6.181029    3.708838   -0.251218
     88          6           0       -5.655006    3.667164   -1.767937
     89          6           0       -5.025904    2.275432   -1.770313
     90          6           0       -6.775543    3.686552   -2.794276
     91          6           0       -5.115469    4.344856    0.709035
     92          6           0       -5.122269    5.874450    0.754284
     93          1           0       -4.828073    6.534555    2.023220
     94          7           0       -3.619714   -0.416760   -2.204724
     95          6           0       -3.329631    0.736512   -2.842760
     96          6           0       -2.188073    0.434725   -3.720221
     97          6           0       -1.933046   -1.030621   -3.670878
     98          6           0       -3.075090   -1.470968   -2.895044
     99          6           0       -1.409386    1.498999   -4.437428
    100          6           0       -0.848529   -1.894394   -4.240021
    101          8           0       -0.953599   -3.171322   -4.275378
    102          6           0        0.298529   -1.196839   -4.839302
    103          7           0       -5.423511   -2.712589   -1.378471
    104          6           0       -4.595665   -3.377671   -2.203255
    105          6           0       -4.887869   -4.859172   -2.191161
    106          6           0       -5.929819   -5.081851   -0.998554
    107          6           0       -6.136994   -3.613710   -0.566087
    108          6           0       -5.464808   -5.434011   -3.484642
    109          6           0       -5.545286   -6.124762    0.086411
    110          6           0       -4.356242   -5.630851    0.878633
    111          7           0       -6.681765   -0.905585    0.542191
    112          6           0       -7.398577   -2.075887    0.874848
    113          6           0       -8.471724   -1.678350    1.809064
    114          6           0       -8.317911   -0.289764    1.938164
    115          6           0       -7.238681    0.150176    1.125006
    116          6           0       -9.448097   -2.547317    2.372745
    117          6           0       -8.829817    0.905404    2.569191
    118          8           0       -9.680276    1.138598    3.427147
    119          6           0       -8.171844    2.169740    1.865679
    120          6           0       -7.688407    3.101522    2.942989
    121          8           0       -6.766606    2.761877    3.705578
    122          8           0       -8.240876    4.314224    2.757244
    123          6           0       -7.783051    5.276341    3.794811
    124          1           0       -3.829707    2.676299   -3.524893
    125          1           0       -3.040928   -3.517915   -3.379907
    126          1           0       -7.685886   -4.067064    0.810247
    127          1           0       -7.099408    4.280507   -0.191755
    128          1           0       -4.898916    4.427688   -1.944814
    129          1           0       -7.747648    3.605647   -2.331029
    130          1           0       -6.594290    2.840130   -3.443715
    131          1           0       -6.692089    4.575011   -3.426746
    132          1           0       -4.113286    4.173581    0.295459
    133          1           0       -5.216249    3.953490    1.702659
    134          1           0       -6.028489    6.296148    0.302752
    135          1           0       -4.311062    6.243931    0.122276
    136          1           0       -1.931429    2.463558   -4.414820
    137          1           0       -1.393140    1.223726   -5.497531
    138          1           0       -0.381455    1.583008   -4.078325
    139          1           0       -0.050397   -0.551534   -5.641991
    140          1           0        1.008355   -1.980844   -5.110158
    141          1           0        0.745283   -0.543274   -4.081750
    142          1           0       -3.990122   -5.428735   -1.984406
    143          1           0       -6.901635   -5.440679   -1.368218
    144          1           0       -4.860131   -6.260864   -3.902676
    145          1           0       -5.558708   -4.630610   -4.203160
    146          1           0       -6.487715   -5.799450   -3.411720
    147          1           0       -5.238003   -7.062948   -0.382134
    148          1           0       -6.355721   -6.356243    0.769506
    149          1           0       -3.506255   -5.915588    0.251309
    150          1           0       -4.312228   -6.120974    1.849134
    151          1           0       -4.359510   -4.537161    0.952688
    152          1           0       -9.534508   -2.282127    3.418066
    153          1           0       -9.169892   -3.591787    2.248440
    154          1           0      -10.319211   -2.279849    1.768677
    155          1           0       -8.936133    2.630413    1.238616
    156          1           0       -8.680293    5.683505    4.271114
    157          1           0       -7.123370    5.991677    3.268624
    158          1           0       -7.252573    4.875676    4.650674
 ---------------------------------------------------------------------

 SCF Done:  E(RCAM-B3LYP) =  -4069.81292328     A.U. after   18 cycles

 Excitation energies and oscillator strengths:

 Excited State   1:      Singlet-A      1.6552 eV  749.06 nm  f=0.0992  <S**2>=0.000
     309 -> 315        0.11636
     310 -> 316        0.12301
     311 -> 313       -0.47104
     312 -> 314        0.50040
 This state for optimization and/or second-order correction.
 Total Energy, E(TD-HF/TD-DFT) =  -4069.75209562
 Copying the excited state density for this state as the 1-particle RhoCI density.

 Excited State   2:      Singlet-A      1.6979 eV  730.23 nm  f=0.6418  <S**2>=0.000
     309 -> 315       -0.13138
     310 -> 316        0.12283
     311 -> 313        0.49848
     312 -> 314        0.46942

 Excited State   3:      Singlet-A      2.1871 eV  566.88 nm  f=0.0105  <S**2>=0.000
     309 -> 313       -0.34824
     310 -> 314        0.54081
     311 -> 315       -0.14719
     312 -> 316       -0.22967

 Excited State   4:      Singlet-A      2.1960 eV  564.59 nm  f=0.1710  <S**2>=0.000
     309 -> 313        0.53812
     310 -> 314        0.34557
     311 -> 315        0.23615
     312 -> 316       -0.15158

 Excited State   5:      Singlet-A      2.4997 eV  496.00 nm  f=0.0000  <S**2>=0.000
     312 -> 313        0.70695

 The electronic state is 1-A.
 Alpha  occ. eigenvalues --  -46.87841 -46.87450 -19.26530 -19.26258 -19.19290
 Alpha  occ. eigenvalues --  -19.19057 -19.18805 -19.18422 -19.18299 -19.17868
 Alpha  occ. eigenvalues --  -14.42500 -14.42290 -14.41475 -14.41153 -14.39441
 Alpha  occ. eigenvalues --  -14.39128 -14.38652 -14.38392 -10.39330 -10.38981
 Alpha  occ. eigenvalues --  -10.35434 -10.35082 -10.34523 -10.34051 -10.31944
 Alpha  occ. eigenvalues --  -10.31699 -10.31477 -10.31114 -10.30965 -10.30795
 Alpha  occ. eigenvalues --  -10.30634 -10.30554 -10.30198 -10.30195 -10.30145
 Alpha  occ. eigenvalues --  -10.29952 -10.29911 -10.29718 -10.29679 -10.29282
 Alpha  occ. eigenvalues --  -10.29189 -10.29154 -10.28841 -10.28676 -10.28550
 Alpha  occ. eigenvalues --  -10.28544 -10.28429 -10.28191 -10.28177 -10.27953
 Alpha  occ. eigenvalues --  -10.27853 -10.27771 -10.27769 -10.27622 -10.27471
 Alpha  occ. eigenvalues --  -10.27470 -10.27443 -10.27428 -10.27403 -10.27345
 Alpha  occ. eigenvalues --  -10.27302 -10.27279 -10.27217 -10.27200 -10.26919
 Alpha  occ. eigenvalues --  -10.26889 -10.26831 -10.26545 -10.26351 -10.26298
 Alpha  occ. eigenvalues --  -10.26036 -10.26014 -10.25984 -10.25939 -10.25926
 Alpha  occ. eigenvalues --  -10.25851 -10.25723 -10.25682 -10.25400 -10.25259
 Alpha  occ. eigenvalues --  -10.24910 -10.24819 -10.24654 -10.24574 -10.24488
 Alpha  occ. eigenvalues --  -10.24408  -3.16584  -3.16200  -1.91466  -1.91083
 Alpha  occ. eigenvalues --   -1.91052  -1.90895  -1.90671  -1.90508  -1.16880
 Alpha  occ. eigenvalues --   -1.16548  -1.08772  -1.08487  -1.07202  -1.06904
 Alpha  occ. eigenvalues --   -1.06840  -1.06677  -1.04637  -1.04285  -1.03793
 Alpha  occ. eigenvalues --   -1.03452  -1.03279  -1.02827  -1.02456  -1.01898
 Alpha  occ. eigenvalues --   -0.92056  -0.91790  -0.89499  -0.89302  -0.89264
 Alpha  occ. eigenvalues --   -0.88972  -0.88257  -0.88040  -0.87941  -0.87721
 Alpha  occ. eigenvalues --   -0.87593  -0.87475  -0.87287  -0.86773  -0.85053
 Alpha  occ. eigenvalues --   -0.84810  -0.83898  -0.83706  -0.82937  -0.82704
 Alpha  occ. eigenvalues --   -0.82639  -0.82386  -0.81711  -0.81440  -0.80668
 Alpha  occ. eigenvalues --   -0.80244  -0.78828  -0.78345  -0.77247  -0.77005
 Alpha  occ. eigenvalues --   -0.76926  -0.76737  -0.76008  -0.75642  -0.74896
 Alpha  occ. eigenvalues --   -0.74621  -0.72816  -0.72485  -0.71721  -0.71390
 Alpha  occ. eigenvalues --   -0.69812  -0.69583  -0.68934  -0.68625  -0.67697
 Alpha  occ. eigenvalues --   -0.67393  -0.67287  -0.66975  -0.65368  -0.65090
 Alpha  occ. eigenvalues --   -0.64930  -0.64672  -0.64580  -0.64473  -0.64250
 Alpha  occ. eigenvalues --   -0.64020  -0.62431  -0.62131  -0.60451  -0.60053
 Alpha  occ. eigenvalues --   -0.59875  -0.59600  -0.59039  -0.58797  -0.58562
 Alpha  occ. eigenvalues --   -0.58226  -0.57730  -0.57394  -0.57334  -0.57016
 Alpha  occ. eigenvalues --   -0.56379  -0.56129  -0.55979  -0.55723  -0.55563
 Alpha  occ. eigenvalues --   -0.55377  -0.55204  -0.55079  -0.54579  -0.54336
 Alpha  occ. eigenvalues --   -0.53978  -0.53731  -0.53331  -0.53284  -0.53019
 Alpha  occ. eigenvalues --   -0.53012  -0.52910  -0.52776  -0.52715  -0.52326
 Alpha  occ. eigenvalues --   -0.52317  -0.52226  -0.51998  -0.51704  -0.51689
 Alpha  occ. eigenvalues --   -0.51426  -0.51254  -0.51016  -0.50547  -0.50100
 Alpha  occ. eigenvalues --   -0.50003  -0.49914  -0.49703  -0.49644  -0.49570
 Alpha  occ. eigenvalues --   -0.49289  -0.49234  -0.49175  -0.48958  -0.48922
 Alpha  occ. eigenvalues --   -0.48699  -0.48504  -0.48450  -0.48374  -0.48206
 Alpha  occ. eigenvalues --   -0.48045  -0.47730  -0.47359  -0.47332  -0.46855
 Alpha  occ. eigenvalues --   -0.46825  -0.46634  -0.46515  -0.46408  -0.46354
 Alpha  occ. eigenvalues --   -0.46211  -0.46041  -0.45935  -0.45901  -0.45665
 Alpha  occ. eigenvalues --   -0.45184  -0.45026  -0.44676  -0.44520  -0.44336
 Alpha  occ. eigenvalues --   -0.44276  -0.44200  -0.44106  -0.44061  -0.43935
 Alpha  occ. eigenvalues --   -0.43869  -0.43642  -0.43608  -0.43423  -0.43406
 Alpha  occ. eigenvalues --   -0.43197  -0.43081  -0.42886  -0.42787  -0.42709
 Alpha  occ. eigenvalues --   -0.42602  -0.42341  -0.41996  -0.41790  -0.41762
 Alpha  occ. eigenvalues --   -0.41588  -0.41479  -0.41276  -0.41192  -0.40908
 Alpha  occ. eigenvalues --   -0.40828  -0.40798  -0.40538  -0.40531  -0.40440
 Alpha  occ. eigenvalues --   -0.40321  -0.40320  -0.40026  -0.39322  -0.39254
 Alpha  occ. eigenvalues --   -0.38452  -0.38179  -0.37840  -0.37492  -0.37345
 Alpha  occ. eigenvalues --   -0.37315  -0.37078  -0.36997  -0.36891  -0.36653
 Alpha  occ. eigenvalues --   -0.36254  -0.36049  -0.34341  -0.34051  -0.34006
 Alpha  occ. eigenvalues --   -0.33738  -0.33243  -0.32967  -0.31338  -0.31083
 Alpha  occ. eigenvalues --   -0.30993  -0.30762  -0.30164  -0.29780  -0.29497
 Alpha  occ. eigenvalues --   -0.29388  -0.29078  -0.28983  -0.24131  -0.23830
 Alpha  occ. eigenvalues --   -0.21171  -0.20896
 Alpha virt. eigenvalues --   -0.08820  -0.08559  -0.01780  -0.01471  -0.00094
 Alpha virt. eigenvalues --    0.00236   0.02120   0.02405   0.03027   0.03437
 Alpha virt. eigenvalues --    0.04655   0.04872   0.04913   0.05285   0.06065

 Mulliken charges:
               1
     1  Mg   0.838466
     2  C   -0.004045
     3  C   -0.094040
     4  C   -0.045325
     5  C   -0.063327
     6  N   -0.256934
     7  C   -0.052749
     8  C   -0.014033
     9  C   -0.087091
    10  C    0.046504
    11  C    0.104745
    12  C    0.053444
    13  C   -0.071542
    14  H    0.034559
    15  N   -0.433322
    16  C    0.168902
    17  C   -0.176624
    18  C   -0.003383
    19  C    0.149020
    20  C    0.110013
    21  C    0.012889
    22  O   -0.249040
    23  C    0.062134
    24  N   -0.341332
    25  C    0.041757
    26  C   -0.028230
    27  C   -0.023934
    28  C    0.075143
    29  C    0.076155
    30  C    0.034817
    31  C   -0.005473
    32  N   -0.309860
    33  C    0.079254
    34  C   -0.171166
    35  C    0.007244
    36  C    0.081332
    37  C    0.127649
    38  C    0.044137
    39  O   -0.189878
    40  C   -0.004691
    41  C    0.213240
    42  O   -0.260473
    43  O   -0.303962
    44  C    0.158219
    45  H   -0.017312
    46  H   -0.016204
    47  H   -0.040945
    48  H    0.000679
    49  H   -0.003764
    50  H    0.025396
    51  H    0.016759
    52  H    0.016891
    53  H    0.011923
    54  H    0.042467
    55  H    0.018135
    56  H    0.018742
    57  H    0.005938
    58  H    0.027135
    59  H    0.040928
    60  H    0.037246
    61  H    0.036265
    62  H    0.032631
    63  H    0.017382
    64  H    0.009174
    65  H    0.023475
    66  H    0.012197
    67  H    0.004839
    68  H    0.006283
    69  H    0.004894
    70  H    0.008158
    71  H    0.025089
    72  H    0.027273
    73  H    0.045766
    74  H    0.010014
    75  H    0.046185
    76  H    0.035484
    77  H    0.043164
    78  H    0.046989
    79  H    0.051508
    80  Mg   0.837166
    81  C   -0.016976
    82  C   -0.086310
    83  C   -0.045767
    84  C   -0.065022
    85  N   -0.254480
    86  C   -0.050611
    87  C   -0.015061
    88  C   -0.090577
    89  C    0.045501
    90  C    0.114375
    91  C    0.062299
    92  C   -0.077368
    93  H    0.033029
    94  N   -0.423738
    95  C    0.162957
    96  C   -0.172992
    97  C   -0.007657
    98  C    0.152119
    99  C    0.097658
   100  C    0.014992
   101  O   -0.255503
   102  C    0.060791
   103  N   -0.350062
   104  C    0.037886
   105  C   -0.019805
   106  C   -0.034517
   107  C    0.088423
   108  C    0.073868
   109  C    0.034880
   110  C   -0.007450
   111  N   -0.323820
   112  C    0.077640
   113  C   -0.163884
   114  C    0.001850
   115  C    0.095579
   116  C    0.131665
   117  C    0.041722
   118  O   -0.189221
   119  C    0.001053
   120  C    0.211206
   121  O   -0.251666
   122  O   -0.305505
   123  C    0.152344
   124  H   -0.018799
   125  H   -0.016093
   126  H   -0.041178
   127  H   -0.001217
   128  H   -0.003739
   129  H    0.022082
   130  H    0.014597
   131  H    0.016211
   132  H    0.014846
   133  H    0.036963
   134  H    0.020613
   135  H    0.019956
   136  H    0.008781
   137  H    0.025838
   138  H    0.050928
   139  H    0.039456
   140  H    0.033774
   141  H    0.040827
   142  H    0.013963
   143  H    0.011914
   144  H    0.024536
   145  H    0.011750
   146  H    0.005378
   147  H    0.005649
   148  H    0.003286
   149  H    0.010742
   150  H    0.017764
   151  H    0.030287
   152  H    0.045188
   153  H    0.008055
   154  H    0.046356
   155  H    0.034634
   156  H    0.043494
   157  H    0.049347
   158  H    0.052853
 Sum of Mulliken charges =  -0.00000

 Dipole moment (field-independent basis, Debye):
    X=              3.0624    Y=              3.0505    Z=              0.6341  Tot=              4.3687
 Quadrupole moment (field-independent basis, Debye-Ang):
   XX=           -527.0446   YY=           -463.3787   ZZ=           -521.7282
   XY=              6.9356   XZ=             53.1688   YZ=             18.3816

 Normal termination of Gaussian 16 at Fri Sep 10 11:15:42 2021.
