 Gaussian 16, Revision A.03,
 Gaussian 16:  ES64L-G16RevA.03 25-Dec-2016

 -----------------------------------
 #p cam-b3lyp/Def2SVP td=(nstates=5)
 -----------------------------------

 --------------------------------
 TDDFT excited states in gaussian
 --------------------------------
 Symbolic Z-matrix:
 Charge =  0 Multiplicity = 1

                         Standard orientation:
 ---------------------------------------------------------------------
 Center     Atomic      Atomic             Coordinates (Angstroms)
 Number     Number       Type             X           Y           Z
 ---------------------------------------------------------------------
      1         12           0        6.670400   -0.603880    0.738416
      2          6           0        7.101191    2.227809   -1.408249
      3          6           0        7.237117    1.492557    3.370307
      4          6           0        6.745450   -3.158099    2.616434
      5          6           0        7.264075   -2.617303   -2.043551
      6          7           0        7.100893    1.565205    0.840364
      7          6           0        7.179965    2.548153   -0.051113
      8          6           0        7.278855    3.962184    0.595502
      9          6           0        7.877239    3.548878    2.014344
     10          6           0        7.344874    2.129205    2.098261
     11          6           0        9.401604    3.504335    2.043120
     12          6           0        5.878966    4.648181    0.741959
     13          6           0        5.915294    6.146235    1.057980
     14          1           0        4.892577    7.007918    0.484482
     15          7           0        6.467619   -0.760198    2.697317
     16          6           0        6.728052    0.199274    3.617575
     17          6           0        6.421054   -0.403241    4.932645
     18          6           0        6.142632   -1.850234    4.716340
     19          6           0        6.470628   -1.988017    3.320341
     20          6           0        6.365642    0.384171    6.205696
     21          6           0        5.667915   -2.938709    5.626284
     22          8           0        5.714501   -4.172217    5.293325
     23          6           0        5.223360   -2.524856    6.969466
     24          7           0        7.178001   -2.600353    0.400669
     25          6           0        7.067599   -3.514111    1.371154
     26          6           0        7.210437   -4.905652    0.829719
     27          6           0        7.199924   -4.764394   -0.760781
     28          6           0        7.130887   -3.220492   -0.860127
     29          6           0        8.469413   -5.667609    1.266078
     30          6           0        6.149894   -5.600944   -1.534112
     31          6           0        4.759534   -5.093698   -1.223149
     32          7           0        6.931947   -0.292372   -1.393626
     33          6           0        7.190581   -1.271867   -2.363354
     34          6           0        7.396857   -0.569005   -3.643003
     35          6           0        7.259391    0.780387   -3.323489
     36          6           0        7.010675    0.913626   -1.927538
     37          6           0        7.729169   -1.179017   -4.884731
     38          6           0        7.289200    2.142079   -3.832176
     39          8           0        7.364292    2.647606   -4.953022
     40          6           0        7.309012    3.140128   -2.591477
     41          6           0        6.277601    4.204847   -2.848138
     42          8           0        5.061515    3.925510   -2.869833
     43          8           0        6.860979    5.411888   -2.791004
     44          6           0        5.886819    6.514667   -3.007905
     45          1           0        7.631180    2.003172    4.251174
     46          1           0        6.671681   -4.073344    3.207469
     47          1           0        7.369824   -3.184611   -2.970067
     48          1           0        7.959771    4.646763    0.089412
     49          1           0        7.467112    4.155696    2.821369
     50          1           0        9.822975    3.638691    1.046969
     51          1           0        9.656666    2.519397    2.434696
     52          1           0        9.796661    4.223671    2.760938
     53          1           0        5.390931    4.279988    1.644354
     54          1           0        5.272926    4.482353   -0.149413
     55          1           0        6.907363    6.565509    0.887928
     56          1           0        5.746915    6.273885    2.127351
     57          1           0        6.777397    1.384294    6.076252
     58          1           0        7.043149   -0.099574    6.909034
     59          1           0        5.360192    0.414945    6.625763
     60          1           0        6.043839   -2.020866    7.480697
     61          1           0        4.835432   -3.423420    7.447948
     62          1           0        4.427186   -1.787036    6.866131
     63          1           0        6.375081   -5.532932    1.138145
     64          1           0        8.152037   -5.057551   -1.203741
     65          1           0        8.257928   -6.616848    1.758952
     66          1           0        9.052579   -5.012600    1.912740
     67          1           0        9.180608   -5.871456    0.466037
     68          1           0        6.188935   -6.643207   -1.219294
     69          1           0        6.290442   -5.575425   -2.614781
     70          1           0        4.518449   -5.600999   -0.289685
     71          1           0        4.064726   -5.379516   -2.013568
     72          1           0        4.762646   -4.022527   -1.020493
     73          1           0        7.109114   -0.693907   -5.638500
     74          1           0        7.551826   -2.253926   -4.857852
     75          1           0        8.788482   -0.932176   -4.953877
     76          1           0        8.316545    3.551106   -2.535837
     77          1           0        6.259877    7.113717   -3.838689
     78          1           0        5.759070    7.009173   -2.044812
     79          1           0        4.906574    6.224211   -3.387501
     80         12           0       -6.465322   -0.681858   -0.761377
     81          6           0       -8.058285    1.660987    1.441494
     82          6           0       -5.953995    1.915853   -2.911969
     83          6           0       -5.464128   -2.789141   -2.911825
     84          6           0       -8.085494   -3.220540    0.992433
     85          7           0       -6.984065    1.464790   -0.638561
     86          6           0       -7.533689    2.252514    0.273449
     87          6           0       -7.448433    3.768264   -0.050272
     88          6           0       -7.304796    3.665557   -1.646420
     89          6           0       -6.675661    2.277445   -1.746394
     90          6           0       -8.640642    3.637776   -2.370342
     91          6           0       -6.191047    4.447921    0.597068
     92          6           0       -6.207998    5.978029    0.582267
     93          1           0       -5.624532    6.691555    1.714927
     94          7           0       -5.379131   -0.424927   -2.402339
     95          6           0       -5.268261    0.701923   -3.136640
     96          6           0       -4.369050    0.368383   -4.252138
     97          6           0       -4.089271   -1.092622   -4.208368
     98          6           0       -5.003225   -1.504799   -3.161994
     99          6           0       -3.802098    1.404947   -5.178155
    100          6           0       -3.162912   -1.975039   -4.988999
    101          8           0       -3.255614   -3.252735   -4.947439
    102          6           0       -2.204923   -1.298500   -5.875583
    103          7           0       -6.897024   -2.691484   -1.073448
    104          6           0       -6.284339   -3.387046   -2.047488
    105          6           0       -6.544248   -4.867904   -1.906479
    106          6           0       -7.263222   -5.044859   -0.488968
    107          6           0       -7.379940   -3.560812   -0.077413
    108          6           0       -7.409153   -5.498373   -2.997741
    109          6           0       -6.612933   -6.040154    0.510617
    110          6           0       -5.274445   -5.508985    0.970728
    111          7           0       -7.677834   -0.811072    1.022209
    112          6           0       -8.276390   -1.969333    1.564653
    113          6           0       -9.096833   -1.537497    2.714787
    114          6           0       -8.935695   -0.144141    2.747880
    115          6           0       -8.091703    0.265822    1.680582
    116          6           0       -9.895456   -2.386087    3.532225
    117          6           0       -9.296183    1.074232    3.436575
    118          8           0       -9.916751    1.339572    4.465275
    119          6           0       -8.845803    2.310769    2.545212
    120          6           0       -8.128930    3.288503    3.435522
    121          8           0       -7.045276    2.984557    3.964590
    122          8           0       -8.726776    4.490230    3.341624
    123          6           0       -8.044791    5.496513    4.198420
    124          1           0       -5.945603    2.609639   -3.753090
    125          1           0       -5.058967   -3.570003   -3.559569
    126          1           0       -8.543029   -3.962602    1.650221
    127          1           0       -8.332967    4.338270    0.207540
    128          1           0       -6.624696    4.421038   -2.031215
    129          1           0       -9.470435    3.572379   -1.682353
    130          1           0       -8.610269    2.765768   -3.010437
    131          1           0       -8.725202    4.499445   -3.038697
    132          1           0       -5.316542    4.263540   -0.040099
    133          1           0       -6.042784    4.097870    1.600114
    134          1           0       -7.202369    6.376979    0.347705
    135          1           0       -5.579185    6.324079   -0.241663
    136          1           0       -4.316508    2.367532   -5.067681
    137          1           0       -4.039186    1.085847   -6.198858
    138          1           0       -2.719069    1.507903   -5.082645
    139          1           0       -2.746774   -0.688571   -6.594497
    140          1           0       -1.570950   -2.090293   -6.279348
    141          1           0       -1.597192   -0.612213   -5.275355
    142          1           0       -5.615306   -5.424809   -1.901302
    143          1           0       -8.290529   -5.422604   -0.597493
    144          1           0       -6.912224   -6.339509   -3.516995
    145          1           0       -7.685414   -4.725962   -3.703152
    146          1           0       -8.378762   -5.864503   -2.664584
    147          1           0       -6.415197   -6.995816    0.018911
    148          1           0       -7.230536   -6.246203    1.378433
    149          1           0       -4.597762   -5.816235    0.167745
    150          1           0       -4.989923   -5.958107    1.920144
    151          1           0       -5.274922   -4.413183    1.000187
    152          1           0       -9.729886   -2.077960    4.556018
    153          1           0       -9.641115   -3.433731    3.385466
    154          1           0      -10.890557   -2.147463    3.147381
    155          1           0       -9.745525    2.741911    2.104545
    156          1           0       -8.805589    5.919606    4.861649
    157          1           0       -7.542175    6.191925    3.500183
    158          1           0       -7.317339    5.133929    4.915221
 ---------------------------------------------------------------------

 SCF Done:  E(RCAM-B3LYP) =  -4069.81212516     A.U. after   19 cycles

 Excitation energies and oscillator strengths:

 Excited State   1:      Singlet-A      1.6656 eV  744.38 nm  f=0.0541  <S**2>=0.000
     309 -> 315        0.11185
     310 -> 316       -0.13034
     311 -> 313       -0.44597
     312 -> 314        0.52206
 This state for optimization and/or second-order correction.
 Total Energy, E(TD-HF/TD-DFT) =  -4069.75091535
 Copying the excited state density for this state as the 1-particle RhoCI density.

 Excited State   2:      Singlet-A      1.6897 eV  733.78 nm  f=0.6963  <S**2>=0.000
     309 -> 315       -0.13550
     310 -> 316       -0.11519
     311 -> 313        0.52089
     312 -> 314        0.44511

 Excited State   3:      Singlet-A      2.1868 eV  566.96 nm  f=0.0372  <S**2>=0.000
     309 -> 313        0.21657
     310 -> 314        0.60527
     312 -> 316        0.25723

 Excited State   4:      Singlet-A      2.1939 eV  565.13 nm  f=0.1520  <S**2>=0.000
     309 -> 313        0.60314
     310 -> 314       -0.21510
     311 -> 315        0.26287

 Excited State   5:      Singlet-A      2.6908 eV  460.77 nm  f=0.0000  <S**2>=0.000
     312 -> 313        0.70707

 The electronic state is 1-A.
 Alpha  occ. eigenvalues --  -46.87767 -46.87543 -19.26354 -19.26301 -19.19104
 Alpha  occ. eigenvalues --  -19.19089 -19.18756 -19.18545 -19.18180 -19.17956
 Alpha  occ. eigenvalues --  -14.42424 -14.42382 -14.41416 -14.41246 -14.39370
 Alpha  occ. eigenvalues --  -14.39228 -14.38564 -14.38486 -10.39141 -10.39031
 Alpha  occ. eigenvalues --  -10.35387 -10.35215 -10.34402 -10.34136 -10.31771
 Alpha  occ. eigenvalues --  -10.31728 -10.31389 -10.31203 -10.30900 -10.30885
 Alpha  occ. eigenvalues --  -10.30549 -10.30479 -10.30283 -10.30247 -10.30161
 Alpha  occ. eigenvalues --  -10.30016 -10.29891 -10.29793 -10.29601 -10.29305
 Alpha  occ. eigenvalues --  -10.29272 -10.29217 -10.28745 -10.28620 -10.28583
 Alpha  occ. eigenvalues --  -10.28562 -10.28342 -10.28283 -10.28105 -10.28037
 Alpha  occ. eigenvalues --  -10.27879 -10.27769 -10.27699 -10.27549 -10.27549
 Alpha  occ. eigenvalues --  -10.27442 -10.27422 -10.27418 -10.27397 -10.27385
 Alpha  occ. eigenvalues --  -10.27371 -10.27328 -10.27280 -10.27247 -10.27176
 Alpha  occ. eigenvalues --  -10.26964 -10.26715 -10.26601 -10.26322 -10.26223
 Alpha  occ. eigenvalues --  -10.26162 -10.26102 -10.26045 -10.25983 -10.25931
 Alpha  occ. eigenvalues --  -10.25837 -10.25820 -10.25763 -10.25387 -10.25311
 Alpha  occ. eigenvalues --  -10.24815 -10.24757 -10.24755 -10.24633 -10.24580
 Alpha  occ. eigenvalues --  -10.24577  -3.16509  -3.16293  -1.91391  -1.91175
 Alpha  occ. eigenvalues --   -1.90978  -1.90820  -1.90764  -1.90601  -1.16701
 Alpha  occ. eigenvalues --   -1.16593  -1.08644  -1.08569  -1.07155  -1.06888
 Alpha  occ. eigenvalues --   -1.06797  -1.06709  -1.04557  -1.04379  -1.03729
 Alpha  occ. eigenvalues --   -1.03546  -1.03205  -1.02922  -1.02383  -1.01995
 Alpha  occ. eigenvalues --   -0.91961  -0.91880  -0.89475  -0.89387  -0.89178
 Alpha  occ. eigenvalues --   -0.89050  -0.88241  -0.88117  -0.87853  -0.87687
 Alpha  occ. eigenvalues --   -0.87648  -0.87570  -0.87226  -0.86950  -0.84969
 Alpha  occ. eigenvalues --   -0.84893  -0.83890  -0.83777  -0.82907  -0.82767
 Alpha  occ. eigenvalues --   -0.82630  -0.82523  -0.81601  -0.81512  -0.80584
 Alpha  occ. eigenvalues --   -0.80335  -0.78760  -0.78491  -0.77189  -0.77030
 Alpha  occ. eigenvalues --   -0.76929  -0.76807  -0.75920  -0.75738  -0.74863
 Alpha  occ. eigenvalues --   -0.74703  -0.72748  -0.72585  -0.71651  -0.71476
 Alpha  occ. eigenvalues --   -0.69845  -0.69657  -0.68855  -0.68716  -0.67618
 Alpha  occ. eigenvalues --   -0.67487  -0.67202  -0.67075  -0.65278  -0.65171
 Alpha  occ. eigenvalues --   -0.64842  -0.64666  -0.64605  -0.64554  -0.64228
 Alpha  occ. eigenvalues --   -0.64100  -0.62319  -0.62199  -0.60397  -0.60193
 Alpha  occ. eigenvalues --   -0.59789  -0.59688  -0.58965  -0.58885  -0.58485
 Alpha  occ. eigenvalues --   -0.58319  -0.57601  -0.57469  -0.57280  -0.57119
 Alpha  occ. eigenvalues --   -0.56290  -0.56086  -0.56008  -0.55801  -0.55489
 Alpha  occ. eigenvalues --   -0.55322  -0.55320  -0.55155  -0.54518  -0.54402
 Alpha  occ. eigenvalues --   -0.53887  -0.53810  -0.53268  -0.53201  -0.53110
 Alpha  occ. eigenvalues --   -0.53020  -0.52913  -0.52801  -0.52714  -0.52493
 Alpha  occ. eigenvalues --   -0.52374  -0.52301  -0.51906  -0.51789  -0.51602
 Alpha  occ. eigenvalues --   -0.51536  -0.51182  -0.51101  -0.50507  -0.50285
 Alpha  occ. eigenvalues --   -0.49979  -0.49877  -0.49847  -0.49749  -0.49491
 Alpha  occ. eigenvalues --   -0.49350  -0.49200  -0.49089  -0.49080  -0.49005
 Alpha  occ. eigenvalues --   -0.48595  -0.48461  -0.48436  -0.48406  -0.48280
 Alpha  occ. eigenvalues --   -0.48183  -0.47668  -0.47473  -0.47267  -0.46988
 Alpha  occ. eigenvalues --   -0.46769  -0.46603  -0.46546  -0.46445  -0.46334
 Alpha  occ. eigenvalues --   -0.46153  -0.46146  -0.45988  -0.45830  -0.45737
 Alpha  occ. eigenvalues --   -0.45159  -0.45106  -0.44577  -0.44467  -0.44416
 Alpha  occ. eigenvalues --   -0.44365  -0.44114  -0.44068  -0.44021  -0.43998
 Alpha  occ. eigenvalues --   -0.43964  -0.43790  -0.43505  -0.43473  -0.43361
 Alpha  occ. eigenvalues --   -0.43282  -0.43008  -0.42853  -0.42801  -0.42738
 Alpha  occ. eigenvalues --   -0.42609  -0.42438  -0.41975  -0.41864  -0.41688
 Alpha  occ. eigenvalues --   -0.41566  -0.41518  -0.41355  -0.41120  -0.40884
 Alpha  occ. eigenvalues --   -0.40845  -0.40774  -0.40610  -0.40554  -0.40530
 Alpha  occ. eigenvalues --   -0.40394  -0.40228  -0.40112  -0.39372  -0.39324
 Alpha  occ. eigenvalues --   -0.38427  -0.38250  -0.37745  -0.37559  -0.37281
 Alpha  occ. eigenvalues --   -0.37253  -0.37160  -0.37089  -0.36746  -0.36706
 Alpha  occ. eigenvalues --   -0.36186  -0.36123  -0.34262  -0.34142  -0.33823
 Alpha  occ. eigenvalues --   -0.33794  -0.33164  -0.33062  -0.31287  -0.31110
 Alpha  occ. eigenvalues --   -0.31010  -0.30857  -0.30042  -0.29864  -0.29417
 Alpha  occ. eigenvalues --   -0.29301  -0.29193  -0.29093  -0.24055  -0.23923
 Alpha  occ. eigenvalues --   -0.21099  -0.20998
 Alpha virt. eigenvalues --   -0.08745  -0.08668  -0.01716  -0.01564  -0.00022
 Alpha virt. eigenvalues --    0.00114   0.02213   0.02315   0.03161   0.03350
 Alpha virt. eigenvalues --    0.04735   0.04833   0.05045   0.05230   0.06168

 Mulliken charges:
               1
     1  Mg   0.838883
     2  C   -0.003257
     3  C   -0.094039
     4  C   -0.045653
     5  C   -0.063761
     6  N   -0.256819
     7  C   -0.052628
     8  C   -0.014024
     9  C   -0.087066
    10  C    0.046421
    11  C    0.104799
    12  C    0.053435
    13  C   -0.071605
    14  H    0.035240
    15  N   -0.433211
    16  C    0.168674
    17  C   -0.176866
    18  C   -0.003676
    19  C    0.148849
    20  C    0.110107
    21  C    0.012633
    22  O   -0.249411
    23  C    0.062270
    24  N   -0.341161
    25  C    0.041385
    26  C   -0.028218
    27  C   -0.023964
    28  C    0.074836
    29  C    0.076175
    30  C    0.035070
    31  C   -0.004658
    32  N   -0.310294
    33  C    0.080163
    34  C   -0.170035
    35  C    0.007967
    36  C    0.082736
    37  C    0.127436
    38  C    0.045553
    39  O   -0.189328
    40  C   -0.005174
    41  C    0.212834
    42  O   -0.258020
    43  O   -0.304513
    44  C    0.158048
    45  H   -0.017505
    46  H   -0.016588
    47  H   -0.041440
    48  H    0.000702
    49  H   -0.003912
    50  H    0.025365
    51  H    0.016573
    52  H    0.016690
    53  H    0.011652
    54  H    0.043545
    55  H    0.017862
    56  H    0.018335
    57  H    0.005862
    58  H    0.026916
    59  H    0.040377
    60  H    0.037233
    61  H    0.036002
    62  H    0.032241
    63  H    0.016891
    64  H    0.009322
    65  H    0.023332
    66  H    0.012432
    67  H    0.004716
    68  H    0.006441
    69  H    0.004703
    70  H    0.008940
    71  H    0.019309
    72  H    0.028655
    73  H    0.046845
    74  H    0.009349
    75  H    0.045916
    76  H    0.035131
    77  H    0.042744
    78  H    0.046609
    79  H    0.052618
    80  Mg   0.837881
    81  C   -0.016927
    82  C   -0.087290
    83  C   -0.045500
    84  C   -0.064942
    85  N   -0.254566
    86  C   -0.050099
    87  C   -0.015127
    88  C   -0.090555
    89  C    0.045795
    90  C    0.114383
    91  C    0.062390
    92  C   -0.077642
    93  H    0.033973
    94  N   -0.423626
    95  C    0.163228
    96  C   -0.173932
    97  C   -0.007356
    98  C    0.152214
    99  C    0.099029
   100  C    0.015839
   101  O   -0.253725
   102  C    0.060809
   103  N   -0.350059
   104  C    0.037637
   105  C   -0.019808
   106  C   -0.034689
   107  C    0.088720
   108  C    0.073740
   109  C    0.034799
   110  C   -0.007625
   111  N   -0.323941
   112  C    0.078071
   113  C   -0.163498
   114  C    0.001983
   115  C    0.095958
   116  C    0.131568
   117  C    0.042040
   118  O   -0.188647
   119  C    0.000988
   120  C    0.211198
   121  O   -0.251292
   122  O   -0.305567
   123  C    0.152229
   124  H   -0.019402
   125  H   -0.015632
   126  H   -0.040820
   127  H   -0.000987
   128  H   -0.004038
   129  H    0.022248
   130  H    0.014473
   131  H    0.016232
   132  H    0.014595
   133  H    0.037350
   134  H    0.020591
   135  H    0.019941
   136  H    0.008715
   137  H    0.026124
   138  H    0.042834
   139  H    0.038236
   140  H    0.036393
   141  H    0.036594
   142  H    0.014360
   143  H    0.012122
   144  H    0.024970
   145  H    0.011659
   146  H    0.005465
   147  H    0.005996
   148  H    0.003409
   149  H    0.010957
   150  H    0.017842
   151  H    0.030261
   152  H    0.045549
   153  H    0.008303
   154  H    0.046614
   155  H    0.034787
   156  H    0.043595
   157  H    0.049472
   158  H    0.053134
 Sum of Mulliken charges =  -0.00000

 Dipole moment (field-independent basis, Debye):
    X=              2.0948    Y=              3.0850    Z=              0.1955  Tot=              3.7341
 Quadrupole moment (field-independent basis, Debye-Ang):
   XX=           -505.9092   YY=           -461.8483   ZZ=           -529.5724
   XY=              5.5977   XZ=             62.3231   YZ=             12.1041

 Normal termination of Gaussian 16 at Sat Sep 11 05:37:31 2021.
