 Gaussian 16, Revision A.03,
 Gaussian 16:  ES64L-G16RevA.03 25-Dec-2016

 -----------------------------------
 #p cam-b3lyp/Def2SVP td=(nstates=5)
 -----------------------------------

 --------------------------------
 TDDFT excited states in gaussian
 --------------------------------
 Symbolic Z-matrix:
 Charge =  0 Multiplicity = 1

                         Standard orientation:
 ---------------------------------------------------------------------
 Center     Atomic      Atomic             Coordinates (Angstroms)
 Number     Number       Type             X           Y           Z
 ---------------------------------------------------------------------
      1         12           0       -4.603994   -0.001359    0.381184
      2          6           0       -4.138147    3.423151    1.312815
      3          6           0       -5.607410    1.122984   -2.680200
      4          6           0       -5.453179   -2.976949   -0.312622
      5          6           0       -4.663968   -0.764463    3.781146
      6          7           0       -4.803029    2.037700   -0.457429
      7          6           0       -4.535286    3.262903   -0.016563
      8          6           0       -4.643527    4.354869   -1.122577
      9          6           0       -5.636180    3.605364   -2.120014
     10          6           0       -5.305381    2.168293   -1.757628
     11          6           0       -7.109590    3.860968   -1.819630
     12          6           0       -3.264443    4.651491   -1.802190
     13          6           0       -3.216418    5.922290   -2.655487
     14          1           0       -1.989873    6.704873   -2.677808
     15          7           0       -4.942480   -0.863272   -1.363918
     16          6           0       -5.327922   -0.250106   -2.508797
     17          6           0       -5.446545   -1.319069   -3.523650
     18          6           0       -5.283138   -2.626241   -2.828889
     19          6           0       -5.245377   -2.203483   -1.452217
     20          6           0       -5.641199   -1.049154   -4.984131
     21          6           0       -5.188263   -4.034063   -3.326049
     22          8           0       -5.281978   -5.039899   -2.542413
     23          6           0       -5.069825   -4.208973   -4.784960
     24          7           0       -5.222817   -1.612082    1.556031
     25          6           0       -5.473660   -2.807515    1.011054
     26          6           0       -5.622269   -3.866685    2.062726
     27          6           0       -5.177986   -3.188933    3.438596
     28          6           0       -4.914595   -1.753551    2.920356
     29          6           0       -7.028098   -4.462932    2.218116
     30          6           0       -4.060864   -3.898997    4.243746
     31          6           0       -2.754011   -3.821203    3.486658
     32          7           0       -4.259068    1.074505    2.234449
     33          6           0       -4.360282    0.564436    3.536854
     34          6           0       -4.143332    1.692858    4.460793
     35          6           0       -3.946142    2.791280    3.626269
     36          6           0       -4.060373    2.380308    2.267466
     37          6           0       -4.202635    1.630332    5.881007
     38          6           0       -3.689951    4.221204    3.566777
     39          8           0       -3.410936    5.087459    4.396985
     40          6           0       -3.924841    4.710468    2.069689
     41          6           0       -2.750843    5.567726    1.682201
     42          8           0       -1.610631    5.074820    1.562512
     43          8           0       -3.191212    6.771376    1.284904
     44          6           0       -2.078327    7.661260    0.858586
     45          1           0       -6.160292    1.365295   -3.589897
     46          1           0       -5.639439   -4.035069   -0.507885
     47          1           0       -4.584359   -0.942473    4.855123
     48          1           0       -5.087052    5.294235   -0.791969
     49          1           0       -5.388260    3.799758   -3.163311
     50          1           0       -7.236383    4.413518   -0.888752
     51          1           0       -7.566224    2.874096   -1.741777
     52          1           0       -7.597388    4.351181   -2.662554
     53          1           0       -3.075000    3.903692   -2.572235
     54          1           0       -2.467438    4.686184   -1.058614
     55          1           0       -4.075973    6.564770   -2.462368
     56          1           0       -3.322318    5.635361   -3.701746
     57          1           0       -5.890920   -0.005056   -5.168643
     58          1           0       -6.529195   -1.599698   -5.294087
     59          1           0       -4.784743   -1.368406   -5.578179
     60          1           0       -5.934832   -3.759111   -5.272748
     61          1           0       -4.923538   -5.275998   -4.948995
     62          1           0       -4.197845   -3.657075   -5.137107
     63          1           0       -4.972368   -4.716176    1.856767
     64          1           0       -6.006377   -3.112934    4.143342
     65          1           0       -7.060310   -5.545914    2.096393
     66          1           0       -7.684576   -3.969236    1.502160
     67          1           0       -7.521735   -4.229936    3.161224
     68          1           0       -4.296624   -4.955258    4.368955
     69          1           0       -3.908346   -3.473383    5.235634
     70          1           0       -2.824829   -4.657601    2.792213
     71          1           0       -1.911798   -3.949250    4.167460
     72          1           0       -2.691625   -2.909056    2.892872
     73          1           0       -3.356276    2.211127    6.247507
     74          1           0       -4.158863    0.600307    6.234187
     75          1           0       -5.172297    2.093384    6.063203
     76          1           0       -4.859528    5.270350    2.065888
     77          1           0       -2.150843    8.572731    1.452047
     78          1           0       -2.154546    7.755473   -0.224797
     79          1           0       -1.071185    7.329422    1.113313
     80         12           0        4.226998   -1.495251   -0.499811
     81          6           0        6.111516    1.521988   -0.026632
     82          6           0        2.202338    0.275287   -2.597565
     83          6           0        2.288746   -4.005830   -0.587202
     84          6           0        5.663803   -2.689457    2.442159
     85          7           0        4.255935    0.618897   -1.149256
     86          6           0        5.055660    1.656165   -0.952166
     87          6           0        4.752606    2.882526   -1.854242
     88          6           0        3.207517    2.575572   -2.166251
     89          6           0        3.220870    1.057711   -1.997144
     90          6           0        2.257312    3.162624   -1.135804
     91          6           0        5.613611    2.886986   -3.165983
     92          6           0        5.596344    4.205734   -3.942097
     93          1           0        6.814939    4.625252   -4.628755
     94          7           0        2.805709   -1.975827   -1.798866
     95          6           0        2.103110   -1.133373   -2.584949
     96          6           0        1.165477   -1.977183   -3.341908
     97          6           0        1.258060   -3.367271   -2.818647
     98          6           0        2.124899   -3.161506   -1.675692
     99          6           0        0.355402   -1.460861   -4.495426
    100          6           0        0.654663   -4.664649   -3.264642
    101          8           0        0.678788   -5.709017   -2.521986
    102          6           0       -0.047055   -4.651516   -4.556503
    103          7           0        3.842635   -3.027513    0.851783
    104          6           0        2.993121   -4.023431    0.544556
    105          6           0        3.085288   -5.148075    1.548086
    106          6           0        4.352100   -4.805553    2.462095
    107          6           0        4.736597   -3.436679    1.858972
    108          6           0        1.857342   -5.349955    2.435658
    109          6           0        5.451298   -5.896782    2.578958
    110          6           0        6.142484   -6.077850    1.246717
    111          7           0        5.766179   -0.828131    0.861780
    112          6           0        6.193142   -1.467854    2.046068
    113          6           0        7.178910   -0.576550    2.691260
    114          6           0        7.240451    0.539080    1.842696
    115          6           0        6.340557    0.364978    0.756699
    116          6           0        7.840920   -0.824266    3.926775
    117          6           0        7.854202    1.829174    1.624339
    118          8           0        8.756030    2.465329    2.168169
    119          6           0        7.057520    2.579170    0.471428
    120          6           0        8.061443    3.135338   -0.500859
    121          8           0        8.774939    2.373946   -1.177480
    122          8           0        7.862843    4.459823   -0.629964
    123          6           0        8.827587    5.055088   -1.592639
    124          1           0        1.376295    0.788702   -3.090443
    125          1           0        1.723328   -4.939796   -0.625625
    126          1           0        6.229465   -3.033369    3.310739
    127          1           0        4.848920    3.843070   -1.362452
    128          1           0        2.950106    2.843168   -3.187771
    129          1           0        2.786543    3.590158   -0.297201
    130          1           0        1.632671    2.341206   -0.810019
    131          1           0        1.584753    3.882871   -1.610395
    132          1           0        5.142295    2.227338   -3.905895
    133          1           0        6.626962    2.603612   -2.957554
    134          1           0        5.188571    5.030253   -3.344735
    135          1           0        4.897611    4.108186   -4.776526
    136          1           0        0.372710   -0.364920   -4.540517
    137          1           0       -0.691265   -1.707632   -4.286968
    138          1           0        0.642238   -1.912844   -5.447328
    139          1           0       -0.850830   -3.919866   -4.523455
    140          1           0       -0.331658   -5.688500   -4.745032
    141          1           0        0.651924   -4.316382   -5.330917
    142          1           0        3.255664   -6.095819    1.052238
    143          1           0        4.062332   -4.618527    3.506551
    144          1           0        1.434694   -6.370347    2.370495
    145          1           0        1.114181   -4.612436    2.163074
    146          1           0        2.012462   -5.141792    3.492918
    147          1           0        5.002454   -6.861150    2.829346
    148          1           0        6.195237   -5.680896    3.338519
    149          1           0        5.472751   -6.757716    0.711619
    150          1           0        7.127298   -6.520112    1.383066
    151          1           0        6.171601   -5.135662    0.687172
    152          1           0        8.877898   -0.550364    3.784754
    153          1           0        7.741580   -1.864594    4.229467
    154          1           0        7.285100   -0.150554    4.584373
    155          1           0        6.463789    3.364434    0.940903
    156          1           0        9.344843    5.864082   -1.067608
    157          1           0        8.230133    5.332462   -2.481383
    158          1           0        9.662373    4.441177   -1.909952
 ---------------------------------------------------------------------

 SCF Done:  E(RCAM-B3LYP) =  -4069.81138067     A.U. after   19 cycles

 Excitation energies and oscillator strengths:

 Excited State   1:      Singlet-A      1.6425 eV  754.85 nm  f=0.0905  <S**2>=0.000
     309 -> 315       -0.11386
     310 -> 316       -0.12039
     311 -> 313       -0.47078
     312 -> 314        0.50164
 This state for optimization and/or second-order correction.
 Total Energy, E(TD-HF/TD-DFT) =  -4069.75101990
 Copying the excited state density for this state as the 1-particle RhoCI density.

 Excited State   2:      Singlet-A      1.7036 eV  727.78 nm  f=0.6312  <S**2>=0.000
     309 -> 315        0.13335
     310 -> 316       -0.12314
     311 -> 313        0.49875
     312 -> 314        0.46818

 Excited State   3:      Singlet-A      2.1791 eV  568.97 nm  f=0.0106  <S**2>=0.000
     309 -> 313        0.33724
     310 -> 314        0.55071
     311 -> 315       -0.13904
     312 -> 316        0.22759

 Excited State   4:      Singlet-A      2.1955 eV  564.72 nm  f=0.1629  <S**2>=0.000
     309 -> 313        0.54541
     310 -> 314       -0.33252
     311 -> 315       -0.24065
     312 -> 316       -0.14650

 Excited State   5:      Singlet-A      2.2993 eV  539.23 nm  f=0.0000  <S**2>=0.000
     312 -> 313        0.70680

 The electronic state is 1-A.
 Alpha  occ. eigenvalues --  -46.88008 -46.87453 -19.26568 -19.26174 -19.19314
 Alpha  occ. eigenvalues --  -19.18986 -19.18984 -19.18540 -19.18381 -19.17851
 Alpha  occ. eigenvalues --  -14.42680 -14.42270 -14.41644 -14.41163 -14.39619
 Alpha  occ. eigenvalues --  -14.39153 -14.38797 -14.38394 -10.39365 -10.38908
 Alpha  occ. eigenvalues --  -10.35622 -10.35228 -10.34605 -10.34025 -10.31972
 Alpha  occ. eigenvalues --  -10.31641 -10.31608 -10.31163 -10.31070 -10.30806
 Alpha  occ. eigenvalues --  -10.30795 -10.30699 -10.30396 -10.30200 -10.30164
 Alpha  occ. eigenvalues --  -10.30084 -10.29960 -10.29846 -10.29700 -10.29468
 Alpha  occ. eigenvalues --  -10.29246 -10.29223 -10.29064 -10.28974 -10.28592
 Alpha  occ. eigenvalues --  -10.28517 -10.28451 -10.28398 -10.28201 -10.28009
 Alpha  occ. eigenvalues --  -10.27956 -10.27812 -10.27807 -10.27799 -10.27780
 Alpha  occ. eigenvalues --  -10.27629 -10.27621 -10.27544 -10.27452 -10.27421
 Alpha  occ. eigenvalues --  -10.27396 -10.27370 -10.27295 -10.27271 -10.27227
 Alpha  occ. eigenvalues --  -10.27137 -10.26830 -10.26668 -10.26505 -10.26474
 Alpha  occ. eigenvalues --  -10.26357 -10.26269 -10.26215 -10.26013 -10.26011
 Alpha  occ. eigenvalues --  -10.25746 -10.25665 -10.25520 -10.25430 -10.25272
 Alpha  occ. eigenvalues --  -10.25046 -10.24967 -10.24734 -10.24673 -10.24609
 Alpha  occ. eigenvalues --  -10.24493  -3.16750  -3.16203  -1.91631  -1.91218
 Alpha  occ. eigenvalues --   -1.91085  -1.91060  -1.90674  -1.90511  -1.16918
 Alpha  occ. eigenvalues --   -1.16467  -1.08842  -1.08458  -1.07376  -1.06931
 Alpha  occ. eigenvalues --   -1.06786  -1.06768  -1.04815  -1.04270  -1.03963
 Alpha  occ. eigenvalues --   -1.03458  -1.03442  -1.02844  -1.02617  -1.01910
 Alpha  occ. eigenvalues --   -0.92197  -0.91775  -0.89681  -0.89480  -0.89320
 Alpha  occ. eigenvalues --   -0.88861  -0.88434  -0.88074  -0.88055  -0.87911
 Alpha  occ. eigenvalues --   -0.87599  -0.87514  -0.87480  -0.86983  -0.85262
 Alpha  occ. eigenvalues --   -0.84760  -0.84076  -0.83721  -0.83179  -0.82901
 Alpha  occ. eigenvalues --   -0.82811  -0.82434  -0.81829  -0.81408  -0.80831
 Alpha  occ. eigenvalues --   -0.80256  -0.79026  -0.78475  -0.77450  -0.77173
 Alpha  occ. eigenvalues --   -0.76948  -0.76685  -0.76169  -0.75583  -0.75058
 Alpha  occ. eigenvalues --   -0.74631  -0.72979  -0.72500  -0.71879  -0.71351
 Alpha  occ. eigenvalues --   -0.70026  -0.69603  -0.69136  -0.68601  -0.67861
 Alpha  occ. eigenvalues --   -0.67523  -0.67419  -0.67023  -0.65561  -0.65073
 Alpha  occ. eigenvalues --   -0.65044  -0.64846  -0.64572  -0.64449  -0.64430
 Alpha  occ. eigenvalues --   -0.64029  -0.62535  -0.62098  -0.60649  -0.60190
 Alpha  occ. eigenvalues --   -0.60069  -0.59543  -0.59194  -0.58796  -0.58715
 Alpha  occ. eigenvalues --   -0.58234  -0.57823  -0.57498  -0.57354  -0.57067
 Alpha  occ. eigenvalues --   -0.56532  -0.56248  -0.56022  -0.55746  -0.55708
 Alpha  occ. eigenvalues --   -0.55514  -0.55279  -0.55078  -0.54718  -0.54320
 Alpha  occ. eigenvalues --   -0.54189  -0.53644  -0.53519  -0.53482  -0.53156
 Alpha  occ. eigenvalues --   -0.53053  -0.53028  -0.52946  -0.52711  -0.52553
 Alpha  occ. eigenvalues --   -0.52491  -0.52256  -0.52106  -0.51905  -0.51694
 Alpha  occ. eigenvalues --   -0.51456  -0.51407  -0.51008  -0.50829  -0.50373
 Alpha  occ. eigenvalues --   -0.50220  -0.50123  -0.49788  -0.49764  -0.49691
 Alpha  occ. eigenvalues --   -0.49453  -0.49344  -0.49278  -0.48995  -0.48829
 Alpha  occ. eigenvalues --   -0.48821  -0.48654  -0.48618  -0.48335  -0.48216
 Alpha  occ. eigenvalues --   -0.48163  -0.47923  -0.47510  -0.47405  -0.47007
 Alpha  occ. eigenvalues --   -0.46959  -0.46835  -0.46564  -0.46516  -0.46354
 Alpha  occ. eigenvalues --   -0.46313  -0.46100  -0.46047  -0.45909  -0.45620
 Alpha  occ. eigenvalues --   -0.45355  -0.45037  -0.44806  -0.44737  -0.44358
 Alpha  occ. eigenvalues --   -0.44325  -0.44319  -0.44258  -0.44242  -0.43923
 Alpha  occ. eigenvalues --   -0.43860  -0.43762  -0.43725  -0.43615  -0.43366
 Alpha  occ. eigenvalues --   -0.43235  -0.43167  -0.42950  -0.42799  -0.42750
 Alpha  occ. eigenvalues --   -0.42702  -0.42391  -0.42200  -0.41922  -0.41793
 Alpha  occ. eigenvalues --   -0.41785  -0.41460  -0.41356  -0.41249  -0.41121
 Alpha  occ. eigenvalues --   -0.41051  -0.40744  -0.40723  -0.40581  -0.40542
 Alpha  occ. eigenvalues --   -0.40485  -0.40294  -0.40029  -0.39550  -0.39276
 Alpha  occ. eigenvalues --   -0.38641  -0.38174  -0.38074  -0.37535  -0.37495
 Alpha  occ. eigenvalues --   -0.37459  -0.37081  -0.36978  -0.36961  -0.36598
 Alpha  occ. eigenvalues --   -0.36407  -0.36029  -0.34499  -0.34050  -0.34046
 Alpha  occ. eigenvalues --   -0.33680  -0.33401  -0.32975  -0.31511  -0.31244
 Alpha  occ. eigenvalues --   -0.31095  -0.30763  -0.30242  -0.29754  -0.29671
 Alpha  occ. eigenvalues --   -0.29533  -0.29146  -0.29013  -0.24292  -0.23828
 Alpha  occ. eigenvalues --   -0.21342  -0.20914
 Alpha virt. eigenvalues --   -0.08990  -0.08597  -0.01953  -0.01486  -0.00281
 Alpha virt. eigenvalues --    0.00162   0.01997   0.02387   0.02692   0.03462
 Alpha virt. eigenvalues --    0.04444   0.04792   0.04960   0.05350   0.05767

 Mulliken charges:
               1
     1  Mg   0.838624
     2  C   -0.003780
     3  C   -0.096122
     4  C   -0.043669
     5  C   -0.063378
     6  N   -0.256721
     7  C   -0.053160
     8  C   -0.013672
     9  C   -0.086659
    10  C    0.045531
    11  C    0.104721
    12  C    0.053451
    13  C   -0.071357
    14  H    0.033968
    15  N   -0.433008
    16  C    0.167438
    17  C   -0.179622
    18  C   -0.005729
    19  C    0.149533
    20  C    0.110336
    21  C    0.012493
    22  O   -0.246005
    23  C    0.062764
    24  N   -0.341212
    25  C    0.041137
    26  C   -0.028693
    27  C   -0.024236
    28  C    0.075305
    29  C    0.075891
    30  C    0.035197
    31  C   -0.006582
    32  N   -0.310589
    33  C    0.080784
    34  C   -0.169143
    35  C    0.008546
    36  C    0.083189
    37  C    0.127225
    38  C    0.046324
    39  O   -0.187752
    40  C   -0.005453
    41  C    0.213167
    42  O   -0.258392
    43  O   -0.304405
    44  C    0.157521
    45  H   -0.017693
    46  H   -0.015157
    47  H   -0.040821
    48  H    0.001569
    49  H   -0.004963
    50  H    0.025859
    51  H    0.017038
    52  H    0.016887
    53  H    0.008210
    54  H    0.043025
    55  H    0.019641
    56  H    0.017598
    57  H    0.005725
    58  H    0.027909
    59  H    0.036286
    60  H    0.037626
    61  H    0.038271
    62  H    0.026279
    63  H    0.018846
    64  H    0.009697
    65  H    0.024181
    66  H    0.012304
    67  H    0.004833
    68  H    0.006916
    69  H    0.004220
    70  H    0.012349
    71  H    0.017757
    72  H    0.029390
    73  H    0.048058
    74  H    0.009563
    75  H    0.046424
    76  H    0.035555
    77  H    0.044120
    78  H    0.045737
    79  H    0.053111
    80  Mg   0.838539
    81  C   -0.016671
    82  C   -0.088036
    83  C   -0.045658
    84  C   -0.064848
    85  N   -0.254856
    86  C   -0.048160
    87  C   -0.015176
    88  C   -0.091354
    89  C    0.047045
    90  C    0.115781
    91  C    0.062725
    92  C   -0.077130
    93  H    0.033666
    94  N   -0.423451
    95  C    0.162866
    96  C   -0.174795
    97  C   -0.007814
    98  C    0.151398
    99  C    0.098650
   100  C    0.017151
   101  O   -0.251482
   102  C    0.060501
   103  N   -0.349840
   104  C    0.037300
   105  C   -0.019914
   106  C   -0.034850
   107  C    0.089053
   108  C    0.073208
   109  C    0.034868
   110  C   -0.007597
   111  N   -0.324220
   112  C    0.078851
   113  C   -0.163015
   114  C    0.002643
   115  C    0.096426
   116  C    0.131335
   117  C    0.042594
   118  O   -0.188059
   119  C    0.000785
   120  C    0.211041
   121  O   -0.251543
   122  O   -0.305212
   123  C    0.152278
   124  H   -0.020068
   125  H   -0.015285
   126  H   -0.040880
   127  H   -0.000077
   128  H   -0.006874
   129  H    0.025740
   130  H    0.018222
   131  H    0.016928
   132  H    0.013112
   133  H    0.037204
   134  H    0.020902
   135  H    0.018542
   136  H    0.007816
   137  H    0.025353
   138  H    0.037873
   139  H    0.035608
   140  H    0.037559
   141  H    0.032725
   142  H    0.014177
   143  H    0.012085
   144  H    0.024495
   145  H    0.013295
   146  H    0.004346
   147  H    0.005713
   148  H    0.003446
   149  H    0.010806
   150  H    0.017546
   151  H    0.030354
   152  H    0.045599
   153  H    0.008011
   154  H    0.047740
   155  H    0.036808
   156  H    0.043674
   157  H    0.049166
   158  H    0.053155
 Sum of Mulliken charges =  -0.00000

 Dipole moment (field-independent basis, Debye):
    X=             -6.4346    Y=              1.0377    Z=             -5.3230  Tot=              8.4152
 Quadrupole moment (field-independent basis, Debye-Ang):
   XX=           -543.6224   YY=           -513.4377   ZZ=           -476.3053
   XY=            -18.3858   XZ=              7.7204   YZ=            -58.8074

 Normal termination of Gaussian 16 at Fri Sep 10 04:50:43 2021.
