 Gaussian 16, Revision A.03,
 Gaussian 16:  ES64L-G16RevA.03 25-Dec-2016

 -----------------------------------
 #p cam-b3lyp/Def2SVP td=(nstates=5)
 -----------------------------------

 --------------------------------
 TDDFT excited states in gaussian
 --------------------------------
 Symbolic Z-matrix:
 Charge =  0 Multiplicity = 1

                         Standard orientation:
 ---------------------------------------------------------------------
 Center     Atomic      Atomic             Coordinates (Angstroms)
 Number     Number       Type             X           Y           Z
 ---------------------------------------------------------------------
      1         12           0       15.654011   -0.762117    0.197609
      2          6           0       15.905670    2.162329   -1.850926
      3          6           0       16.506736    1.205298    2.851890
      4          6           0       15.882504   -3.401165    1.941122
      5          6           0       15.941971   -2.649323   -2.718071
      6          7           0       16.120485    1.396250    0.354132
      7          6           0       16.123177    2.418765   -0.495354
      8          6           0       16.304147    3.800436    0.201502
      9          6           0       17.035307    3.316846    1.533247
     10          6           0       16.495641    1.899295    1.605584
     11          6           0       18.554272    3.258320    1.407460
     12          6           0       14.934744    4.490548    0.518067
     13          6           0       15.021669    5.971991    0.896385
     14          1           0       13.958192    6.867818    0.467597
     15          7           0       15.645085   -1.007357    2.157871
     16          6           0       16.008132   -0.093769    3.089987
     17          6           0       15.825711   -0.754005    4.400518
     18          6           0       15.508491   -2.187048    4.147826
     19          6           0       15.694195   -2.262714    2.721234
     20          6           0       15.907376   -0.026004    5.707076
     21          6           0       15.112624   -3.312532    5.050438
     22          8           0       15.109927   -4.529629    4.658977
     23          6           0       14.809261   -2.957685    6.448685
     24          7           0       16.099675   -2.744952   -0.279242
     25          6           0       16.074563   -3.701754    0.655040
     26          6           0       16.144855   -5.067848    0.039585
     27          6           0       15.978013   -4.852948   -1.533862
     28          6           0       15.919380   -3.305579   -1.555795
     29          6           0       17.431047   -5.859673    0.312961
     30          6           0       14.845553   -5.643982   -2.235445
     31          6           0       13.499686   -5.140126   -1.764414
     32          7           0       15.706189   -0.354325   -1.933594
     33          6           0       15.854412   -1.289946   -2.967672
     34          6           0       15.941437   -0.530276   -4.228385
     35          6           0       15.853872    0.803956   -3.835955
     36          6           0       15.746986    0.874424   -2.417540
     37          6           0       16.140683   -1.084833   -5.523454
     38          6           0       15.850517    2.187465   -4.282889
     39          8           0       15.820268    2.743750   -5.381581
     40          6           0       16.006529    3.126741   -3.006469
     41          6           0       14.968539    4.210767   -3.110270
     42          8           0       13.752820    3.942877   -3.022926
     43          8           0       15.570246    5.408961   -3.057136
     44          6           0       14.593665    6.528685   -3.125416
     45          1           0       16.993024    1.671240    3.711170
     46          1           0       15.856078   -4.342172    2.494517
     47          1           0       15.947701   -3.173943   -3.675251
     48          1           0       16.940129    4.502038   -0.338595
     49          1           0       16.715359    3.889007    2.403871
     50          1           0       18.876166    3.435182    0.381290
     51          1           0       18.834278    2.254201    1.726576
     52          1           0       19.028027    3.940298    2.114027
     53          1           0       14.534176    4.085008    1.447123
     54          1           0       14.240955    4.371264   -0.314852
     55          1           0       15.997235    6.390415    0.647181
     56          1           0       14.962157    6.051342    1.981908
     57          1           0       16.317095    0.975578    5.582543
     58          1           0       16.645181   -0.547453    6.316539
     59          1           0       14.949178   -0.006356    6.226501
     60          1           0       15.682962   -2.484782    6.897637
     61          1           0       14.459280   -3.874195    6.922364
     62          1           0       14.016352   -2.209261    6.458967
     63          1           0       15.336290   -5.701766    0.401244
     64          1           0       16.877477   -5.133183   -2.082592
     65          1           0       17.257396   -6.828939    0.781014
     66          1           0       18.084053   -5.240218    0.927086
     67          1           0       18.056443   -6.032141   -0.562568
     68          1           0       14.902252   -6.700004   -1.973628
     69          1           0       14.878228   -5.569578   -3.322481
     70          1           0       13.346117   -5.688117   -0.835461
     71          1           0       12.726069   -5.383207   -2.493551
     72          1           0       13.536773   -4.079561   -1.514787
     73          1           0       15.455042   -0.560161   -6.188724
     74          1           0       15.953026   -2.158318   -5.527685
     75          1           0       17.190963   -0.843887   -5.686891
     76          1           0       17.019822    3.526291   -3.033265
     77          1           0       14.889939    7.162465   -3.961346
     78          1           0       14.568744    6.979072   -2.132977
     79          1           0       13.576853    6.264310   -3.417889
     80         12           0      -16.092099   -0.527630   -0.247326
     81          6           0      -14.059500    1.804024    1.572284
     82          6           0      -18.516557    1.870595   -0.318697
     83          6           0      -18.066652   -2.700307   -1.450672
     84          6           0      -14.012194   -3.057526    0.944034
     85          7           0      -16.160439    1.531672    0.556952
     86          6           0      -15.306074    2.332046    1.176463
     87          6           0      -15.784825    3.802402    1.312207
     88          6           0      -17.367671    3.550003    1.213413
     89          6           0      -17.358643    2.255241    0.403368
     90          6           0      -18.017147    3.267689    2.557965
     91          6           0      -15.273226    4.708434    0.137736
     92          6           0      -15.441341    6.212299    0.365494
     93          1           0      -14.417096    7.113831   -0.154729
     94          7           0      -17.803023   -0.305055   -1.228013
     95          6           0      -18.651823    0.741697   -1.156319
     96          6           0      -19.771724    0.413632   -2.052070
     97          6           0      -19.594976   -0.984076   -2.531519
     98          6           0      -18.467846   -1.400161   -1.721237
     99          6           0      -20.824808    1.411633   -2.437325
    100          6           0      -20.328166   -1.813642   -3.541697
    101          8           0      -20.153414   -3.080526   -3.627161
    102          6           0      -21.325394   -1.114171   -4.364959
    103          7           0      -16.177921   -2.598543   -0.085145
    104          6           0      -17.106379   -3.306342   -0.752167
    105          6           0      -16.803936   -4.785046   -0.703651
    106          6           0      -15.341516   -4.903799   -0.067399
    107          6           0      -15.076341   -3.413105    0.237414
    108          6           0      -17.781284   -5.637761    0.105084
    109          6           0      -14.280582   -5.691371   -0.883992
    110          6           0      -13.944114   -4.940845   -2.152401
    111          7           0      -14.245985   -0.625952    0.870821
    112          6           0      -13.560179   -1.788994    1.284462
    113          6           0      -12.419725   -1.349908    2.114506
    114          6           0      -12.535405    0.048000    2.145445
    115          6           0      -13.679593    0.450367    1.404874
    116          6           0      -11.481856   -2.205090    2.758852
    117          6           0      -11.955830    1.274064    2.645017
    118          8           0      -10.929284    1.562727    3.258698
    119          6           0      -12.988787    2.457298    2.401402
    120          6           0      -12.238696    3.611057    1.794194
    121          8           0      -11.736725    3.512169    0.660678
    122          8           0      -12.423148    4.705634    2.554619
    123          6           0      -11.707462    5.879322    1.987084
    124          1           0      -19.422695    2.465588   -0.201271
    125          1           0      -18.651893   -3.484953   -1.935763
    126          1           0      -13.260824   -3.779400    1.271165
    127          1           0      -15.541731    4.273900    2.256857
    128          1           0      -17.860320    4.343843    0.657996
    129          1           0      -17.285305    3.166273    3.345534
    130          1           0      -18.566794    2.344198    2.431041
    131          1           0      -18.763881    4.034189    2.784255
    132          1           0      -15.931635    4.575105   -0.730286
    133          1           0      -14.248708    4.490249   -0.093311
    134          1           0      -15.664733    6.448106    1.413078
    135          1           0      -16.326471    6.549020   -0.179651
    136          1           0      -20.786274    2.303478   -1.799740
    137          1           0      -21.794949    0.956759   -2.209749
    138          1           0      -20.794634    1.667341   -3.498636
    139          1           0      -22.074037   -0.661952   -3.718816
    140          1           0      -21.678580   -1.853104   -5.086838
    141          1           0      -20.828670   -0.293039   -4.893760
    142          1           0      -16.789266   -5.209661   -1.699930
    143          1           0      -15.359708   -5.424252    0.901431
    144          1           0      -18.237373   -6.455875   -0.483769
    145          1           0      -18.546212   -4.988676    0.510192
    146          1           0      -17.364675   -6.091964    1.002487
    147          1           0      -14.682739   -6.659188   -1.193422
    148          1           0      -13.366528   -5.883964   -0.332261
    149          1           0      -14.744976   -5.239252   -2.835531
    150          1           0      -12.969738   -5.244234   -2.530016
    151          1           0      -14.025299   -3.858014   -2.002287
    152          1           0      -10.503953   -1.770208    2.600446
    153          1           0      -11.534834   -3.219212    2.368298
    154          1           0      -11.838377   -2.143389    3.790526
    155          1           0      -13.424969    2.715423    3.367163
    156          1           0      -11.052929    6.265771    2.774438
    157          1           0      -12.496599    6.556907    1.610381
    158          1           0      -10.995179    5.695283    1.191330
 ---------------------------------------------------------------------

 SCF Done:  E(RCAM-B3LYP) =  -4069.81175841     A.U. after   19 cycles

 Excitation energies and oscillator strengths:

 Excited State   1:      Singlet-A      1.6755 eV  739.97 nm  f=0.3475  <S**2>=0.000
     309 -> 315        0.17233
     311 -> 313        0.68102
     309 <- 315        0.10387
 This state for optimization and/or second-order correction.
 Total Energy, E(TD-HF/TD-DFT) =  -4069.75018368
 Copying the excited state density for this state as the 1-particle RhoCI density.

 Excited State   2:      Singlet-A      1.6799 eV  738.02 nm  f=0.4334  <S**2>=0.000
     310 -> 316        0.17429
     312 -> 314        0.68067
     310 <- 316        0.10437

 Excited State   3:      Singlet-A      2.1861 eV  567.14 nm  f=0.0947  <S**2>=0.000
     309 -> 313        0.64204
     311 -> 315       -0.27295

 Excited State   4:      Singlet-A      2.1925 eV  565.48 nm  f=0.1053  <S**2>=0.000
     310 -> 314        0.64028
     312 -> 316       -0.27812

 Excited State   5:      Singlet-A      3.0465 eV  406.98 nm  f=0.0000  <S**2>=0.000
     312 -> 313        0.70709

 The electronic state is 1-A.
 Alpha  occ. eigenvalues --  -46.87723 -46.87661 -19.26348 -19.26210 -19.19158
 Alpha  occ. eigenvalues --  -19.18944 -19.18741 -19.18714 -19.18098 -19.18052
 Alpha  occ. eigenvalues --  -14.42498 -14.42377 -14.41377 -14.41360 -14.39353
 Alpha  occ. eigenvalues --  -14.39330 -14.38600 -14.38514 -10.39088 -10.39004
 Alpha  occ. eigenvalues --  -10.35391 -10.35375 -10.34318 -10.34229 -10.31754
 Alpha  occ. eigenvalues --  -10.31605 -10.31333 -10.31310 -10.31024 -10.30836
 Alpha  occ. eigenvalues --  -10.30497 -10.30435 -10.30398 -10.30361 -10.30142
 Alpha  occ. eigenvalues --  -10.30135 -10.29895 -10.29849 -10.29558 -10.29437
 Alpha  occ. eigenvalues --  -10.29401 -10.29182 -10.28720 -10.28676 -10.28653
 Alpha  occ. eigenvalues --  -10.28462 -10.28405 -10.28292 -10.28142 -10.28045
 Alpha  occ. eigenvalues --  -10.28001 -10.27721 -10.27670 -10.27655 -10.27518
 Alpha  occ. eigenvalues --  -10.27511 -10.27484 -10.27468 -10.27465 -10.27431
 Alpha  occ. eigenvalues --  -10.27408 -10.27380 -10.27377 -10.27331 -10.27086
 Alpha  occ. eigenvalues --  -10.27051 -10.26692 -10.26628 -10.26414 -10.26335
 Alpha  occ. eigenvalues --  -10.26167 -10.26135 -10.26112 -10.26029 -10.25947
 Alpha  occ. eigenvalues --  -10.25935 -10.25851 -10.25774 -10.25400 -10.25370
 Alpha  occ. eigenvalues --  -10.24873 -10.24761 -10.24726 -10.24716 -10.24691
 Alpha  occ. eigenvalues --  -10.24611  -3.16466  -3.16411  -1.91348  -1.91293
 Alpha  occ. eigenvalues --   -1.90934  -1.90882  -1.90776  -1.90719  -1.16642
 Alpha  occ. eigenvalues --   -1.16558  -1.08659  -1.08556  -1.07142  -1.06966
 Alpha  occ. eigenvalues --   -1.06943  -1.06567  -1.04508  -1.04496  -1.03688
 Alpha  occ. eigenvalues --   -1.03664  -1.03161  -1.03039  -1.02339  -1.02112
 Alpha  occ. eigenvalues --   -0.91988  -0.91900  -0.89495  -0.89448  -0.89152
 Alpha  occ. eigenvalues --   -0.89115  -0.88221  -0.88216  -0.87799  -0.87794
 Alpha  occ. eigenvalues --   -0.87685  -0.87600  -0.87201  -0.87120  -0.85000
 Alpha  occ. eigenvalues --   -0.84909  -0.83876  -0.83865  -0.82931  -0.82894
 Alpha  occ. eigenvalues --   -0.82653  -0.82576  -0.81596  -0.81513  -0.80523
 Alpha  occ. eigenvalues --   -0.80443  -0.78725  -0.78636  -0.77146  -0.77145
 Alpha  occ. eigenvalues --   -0.76898  -0.76862  -0.75851  -0.75839  -0.74828
 Alpha  occ. eigenvalues --   -0.74804  -0.72702  -0.72700  -0.71601  -0.71582
 Alpha  occ. eigenvalues --   -0.69835  -0.69757  -0.68828  -0.68800  -0.67602
 Alpha  occ. eigenvalues --   -0.67569  -0.67200  -0.67145  -0.65272  -0.65213
 Alpha  occ. eigenvalues --   -0.64781  -0.64771  -0.64654  -0.64548  -0.64204
 Alpha  occ. eigenvalues --   -0.64198  -0.62278  -0.62224  -0.60369  -0.60340
 Alpha  occ. eigenvalues --   -0.59797  -0.59732  -0.58993  -0.58915  -0.58431
 Alpha  occ. eigenvalues --   -0.58426  -0.57554  -0.57512  -0.57237  -0.57236
 Alpha  occ. eigenvalues --   -0.56238  -0.56205  -0.55905  -0.55886  -0.55452
 Alpha  occ. eigenvalues --   -0.55447  -0.55268  -0.55248  -0.54487  -0.54451
 Alpha  occ. eigenvalues --   -0.53913  -0.53822  -0.53228  -0.53226  -0.53149
 Alpha  occ. eigenvalues --   -0.53142  -0.52902  -0.52841  -0.52683  -0.52668
 Alpha  occ. eigenvalues --   -0.52400  -0.52365  -0.51885  -0.51844  -0.51659
 Alpha  occ. eigenvalues --   -0.51543  -0.51201  -0.51124  -0.50498  -0.50475
 Alpha  occ. eigenvalues --   -0.49980  -0.49960  -0.49868  -0.49846  -0.49488
 Alpha  occ. eigenvalues --   -0.49442  -0.49203  -0.49142  -0.49105  -0.49024
 Alpha  occ. eigenvalues --   -0.48559  -0.48521  -0.48390  -0.48377  -0.48372
 Alpha  occ. eigenvalues --   -0.48339  -0.47622  -0.47595  -0.47225  -0.47119
 Alpha  occ. eigenvalues --   -0.46725  -0.46709  -0.46554  -0.46482  -0.46287
 Alpha  occ. eigenvalues --   -0.46271  -0.46091  -0.46086  -0.45822  -0.45750
 Alpha  occ. eigenvalues --   -0.45210  -0.45131  -0.44515  -0.44506  -0.44477
 Alpha  occ. eigenvalues --   -0.44434  -0.44128  -0.44078  -0.44072  -0.44016
 Alpha  occ. eigenvalues --   -0.43947  -0.43939  -0.43553  -0.43422  -0.43386
 Alpha  occ. eigenvalues --   -0.43313  -0.42955  -0.42930  -0.42901  -0.42626
 Alpha  occ. eigenvalues --   -0.42582  -0.42553  -0.41964  -0.41937  -0.41670
 Alpha  occ. eigenvalues --   -0.41632  -0.41460  -0.41459  -0.41070  -0.40991
 Alpha  occ. eigenvalues --   -0.40796  -0.40749  -0.40722  -0.40698  -0.40500
 Alpha  occ. eigenvalues --   -0.40493  -0.40227  -0.40159  -0.39424  -0.39368
 Alpha  occ. eigenvalues --   -0.38397  -0.38351  -0.37674  -0.37654  -0.37266
 Alpha  occ. eigenvalues --   -0.37249  -0.37200  -0.37190  -0.36770  -0.36639
 Alpha  occ. eigenvalues --   -0.36217  -0.36120  -0.34254  -0.34213  -0.33860
 Alpha  occ. eigenvalues --   -0.33695  -0.33176  -0.33114  -0.31273  -0.31271
 Alpha  occ. eigenvalues --   -0.30974  -0.30963  -0.29957  -0.29956  -0.29376
 Alpha  occ. eigenvalues --   -0.29328  -0.29249  -0.29212  -0.24037  -0.24008
 Alpha  occ. eigenvalues --   -0.21118  -0.21055
 Alpha virt. eigenvalues --   -0.08793  -0.08702  -0.01684  -0.01677  -0.00029
 Alpha virt. eigenvalues --    0.00015   0.02207   0.02272   0.03200   0.03230
 Alpha virt. eigenvalues --    0.04729   0.04791   0.05167   0.05173   0.06183

 Mulliken charges:
               1
     1  Mg   0.838761
     2  C   -0.002944
     3  C   -0.094088
     4  C   -0.045856
     5  C   -0.063970
     6  N   -0.256782
     7  C   -0.052438
     8  C   -0.014031
     9  C   -0.086972
    10  C    0.046334
    11  C    0.104825
    12  C    0.053444
    13  C   -0.071830
    14  H    0.036242
    15  N   -0.433109
    16  C    0.168452
    17  C   -0.177154
    18  C   -0.003985
    19  C    0.148744
    20  C    0.110198
    21  C    0.012331
    22  O   -0.249645
    23  C    0.062446
    24  N   -0.341130
    25  C    0.041241
    26  C   -0.028170
    27  C   -0.023976
    28  C    0.074868
    29  C    0.076210
    30  C    0.035132
    31  C   -0.004508
    32  N   -0.310454
    33  C    0.080410
    34  C   -0.169710
    35  C    0.008348
    36  C    0.083004
    37  C    0.127306
    38  C    0.046124
    39  O   -0.188488
    40  C   -0.005338
    41  C    0.212875
    42  O   -0.256987
    43  O   -0.304854
    44  C    0.157682
    45  H   -0.017644
    46  H   -0.016864
    47  H   -0.041535
    48  H    0.000877
    49  H   -0.004010
    50  H    0.025426
    51  H    0.016407
    52  H    0.016601
    53  H    0.011290
    54  H    0.044199
    55  H    0.017773
    56  H    0.017966
    57  H    0.005858
    58  H    0.026754
    59  H    0.039658
    60  H    0.037282
    61  H    0.035661
    62  H    0.031629
    63  H    0.016589
    64  H    0.009378
    65  H    0.023172
    66  H    0.012502
    67  H    0.004677
    68  H    0.006306
    69  H    0.004695
    70  H    0.008806
    71  H    0.018205
    72  H    0.029053
    73  H    0.047588
    74  H    0.009097
    75  H    0.045917
    76  H    0.035071
    77  H    0.042873
    78  H    0.046407
    79  H    0.053781
    80  Mg   0.837930
    81  C   -0.016787
    82  C   -0.087802
    83  C   -0.045518
    84  C   -0.064883
    85  N   -0.254563
    86  C   -0.049878
    87  C   -0.015081
    88  C   -0.090486
    89  C    0.045766
    90  C    0.114366
    91  C    0.062535
    92  C   -0.077923
    93  H    0.034973
    94  N   -0.423506
    95  C    0.162936
    96  C   -0.174622
    97  C   -0.007792
    98  C    0.152131
    99  C    0.099360
   100  C    0.015589
   101  O   -0.253171
   102  C    0.061185
   103  N   -0.350076
   104  C    0.037505
   105  C   -0.019803
   106  C   -0.034841
   107  C    0.088932
   108  C    0.073660
   109  C    0.034736
   110  C   -0.007692
   111  N   -0.324136
   112  C    0.078465
   113  C   -0.163098
   114  C    0.002228
   115  C    0.096221
   116  C    0.131469
   117  C    0.042410
   118  O   -0.187856
   119  C    0.000877
   120  C    0.211281
   121  O   -0.250941
   122  O   -0.305674
   123  C    0.152009
   124  H   -0.019669
   125  H   -0.015559
   126  H   -0.040437
   127  H   -0.000679
   128  H   -0.004306
   129  H    0.022431
   130  H    0.014409
   131  H    0.016269
   132  H    0.013947
   133  H    0.037719
   134  H    0.020743
   135  H    0.019599
   136  H    0.008758
   137  H    0.026135
   138  H    0.039839
   139  H    0.038237
   140  H    0.036422
   141  H    0.033935
   142  H    0.014430
   143  H    0.012391
   144  H    0.025153
   145  H    0.011606
   146  H    0.005650
   147  H    0.006269
   148  H    0.003674
   149  H    0.010943
   150  H    0.018022
   151  H    0.030107
   152  H    0.046082
   153  H    0.008548
   154  H    0.046883
   155  H    0.034974
   156  H    0.043886
   157  H    0.049489
   158  H    0.053665
 Sum of Mulliken charges =  -0.00000

 Dipole moment (field-independent basis, Debye):
    X=             -2.1818    Y=              2.5746    Z=              4.1205  Tot=              5.3261
 Quadrupole moment (field-independent basis, Debye-Ang):
   XX=           -335.2198   YY=           -466.2035   ZZ=           -524.1644
   XY=            -34.6874   XZ=             53.3620   YZ=             25.7415

 Normal termination of Gaussian 16 at Sun Sep 12 15:04:25 2021.
