 Gaussian 16, Revision A.03,
 Gaussian 16:  ES64L-G16RevA.03 25-Dec-2016

 -----------------------------------
 #p cam-b3lyp/Def2SVP td=(nstates=5)
 -----------------------------------

 --------------------------------
 TDDFT excited states in gaussian
 --------------------------------
 Symbolic Z-matrix:
 Charge =  0 Multiplicity = 1

                         Standard orientation:
 ---------------------------------------------------------------------
 Center     Atomic      Atomic             Coordinates (Angstroms)
 Number     Number       Type             X           Y           Z
 ---------------------------------------------------------------------
      1         12           0        4.080870    0.357457    1.143954
      2          6           0        4.677573   -2.650870   -0.701616
      3          6           0        5.683751    2.034185   -1.358530
      4          6           0        3.969085    2.954651    2.960189
      5          6           0        3.563750   -1.642175    3.951037
      6          7           0        5.016403   -0.331603   -0.740355
      7          6           0        5.124664   -1.502916   -1.359610
      8          6           0        5.689669   -1.386712   -2.806897
      9          6           0        6.471668   -0.004909   -2.661650
     10          6           0        5.654995    0.620087   -1.544356
     11          6           0        7.911792   -0.166928   -2.185944
     12          6           0        4.555363   -1.292770   -3.882191
     13          6           0        5.008121   -1.504691   -5.329760
     14          1           0        4.114078   -2.191519   -6.249707
     15          7           0        4.282233    2.263984    0.667029
     16          6           0        4.954443    2.766086   -0.396604
     17          6           0        4.811831    4.235513   -0.312193
     18          6           0        4.163493    4.555699    0.989818
     19          6           0        4.135778    3.255967    1.610549
     20          6           0        5.222149    5.166522   -1.411562
     21          6           0        3.659868    5.832476    1.585079
     22          8           0        3.343575    5.928899    2.820084
     23          6           0        3.629877    7.006050    0.693527
     24          7           0        4.022552    0.643363    3.210954
     25          6           0        3.918067    1.869377    3.735317
     26          6           0        3.610397    1.811426    5.202259
     27          6           0        3.284299    0.282064    5.525467
     28          6           0        3.556759   -0.318542    4.124286
     29          6           0        4.721409    2.305355    6.139115
     30          6           0        1.924904   -0.018622    6.205212
     31          6           0        0.794087    0.287358    5.248799
     32          7           0        3.933339   -1.770398    1.545839
     33          6           0        3.737372   -2.381322    2.792853
     34          6           0        3.815709   -3.837862    2.577401
     35          6           0        4.069948   -3.973495    1.214018
     36          6           0        4.171704   -2.682883    0.620505
     37          6           0        3.715929   -4.836097    3.586363
     38          6           0        4.303775   -4.908068    0.125094
     39          8           0        4.246707   -6.132854    0.006204
     40          6           0        4.827329   -4.087849   -1.135445
     41          6           0        4.041881   -4.546014   -2.333971
     42          8           0        2.819925   -4.310110   -2.426365
     43          8           0        4.888305   -4.975045   -3.282676
     44          6           0        4.174689   -5.416530   -4.510682
     45          1           0        6.369351    2.632041   -1.962236
     46          1           0        3.815687    3.822356    3.605166
     47          1           0        3.328447   -2.330431    4.764910
     48          1           0        6.383184   -2.179085   -3.089041
     49          1           0        6.401585    0.599352   -3.565906
     50          1           0        8.123687   -1.197368   -1.900960
     51          1           0        8.009921    0.494130   -1.324628
     52          1           0        8.611176    0.208803   -2.933249
     53          1           0        4.205261   -0.262533   -3.946240
     54          1           0        3.746952   -1.987582   -3.651902
     55          1           0        6.008363   -1.936366   -5.375385
     56          1           0        5.113016   -0.527547   -5.801337
     57          1           0        5.816829    4.655725   -2.167861
     58          1           0        5.905679    5.893996   -0.974208
     59          1           0        4.368941    5.682416   -1.852266
     60          1           0        4.636802    7.204364    0.325665
     61          1           0        3.158031    7.805186    1.264134
     62          1           0        3.024787    6.768948   -0.182028
     63          1           0        2.740535    2.420890    5.443755
     64          1           0        4.020827   -0.160160    6.196762
     65          1           0        4.408077    3.111302    6.803176
     66          1           0        5.568406    2.611120    5.525605
     67          1           0        5.172133    1.532373    6.761018
     68          1           0        1.788175    0.618924    7.078016
     69          1           0        1.826845   -1.053893    6.532090
     70          1           0        0.652357    1.360158    5.374671
     71          1           0       -0.104221   -0.261236    5.533929
     72          1           0        1.091050    0.117138    4.213751
     73          1           0        3.076079   -5.618746    3.178904
     74          1           0        3.303401   -4.427248    4.508462
     75          1           0        4.761852   -5.124885    3.688837
     76          1           0        5.889819   -4.308310   -1.233597
     77          1           0        4.485357   -6.441936   -4.711330
     78          1           0        4.380217   -4.666830   -5.274955
     79          1           0        3.095034   -5.542240   -4.421906
     80         12           0       -3.604310    0.594209   -0.837167
     81          6           0       -6.334258   -1.513857    0.154035
     82          6           0       -5.915712    2.999567   -1.548725
     83          6           0       -1.273004    2.309613   -2.137099
     84          6           0       -1.668758   -2.288478   -1.136209
     85          7           0       -5.810092    0.620609   -0.675626
     86          6           0       -6.733953   -0.216214   -0.227783
     87          6           0       -8.155101    0.397182   -0.111083
     88          6           0       -7.997385    1.576362   -1.189768
     89          6           0       -6.485045    1.775938   -1.114342
     90          6           0       -8.352885    1.149565   -2.604255
     91          6           0       -8.445101    0.965163    1.322555
     92          6           0       -9.913233    1.297859    1.597626
     93          1           0      -10.437714    1.073433    2.941878
     94          7           0       -3.514837    2.532573   -1.253478
     95          6           0       -4.552064    3.362321   -1.492123
     96          6           0       -3.958254    4.679873   -1.767141
     97          6           0       -2.479801    4.523423   -1.833583
     98          6           0       -2.363972    3.080610   -1.763071
     99          6           0       -4.773866    5.936721   -1.859510
    100          6           0       -1.356822    5.508496   -1.955037
    101          8           0       -0.162408    5.136856   -2.234466
    102          6           0       -1.714379    6.929016   -1.829517
    103          7           0       -1.804998    0.073340   -1.739112
    104          6           0       -0.950181    1.016598   -2.172094
    105          6           0        0.388624    0.416651   -2.529932
    106          6           0        0.332328   -1.096772   -2.016155
    107          6           0       -1.125559   -1.137424   -1.507928
    108          6           0        0.751051    0.436609   -4.014731
    109          6           0        1.463072   -1.556390   -1.055494
    110          6           0        1.340826   -0.835613    0.267726
    111          7           0       -3.854381   -1.501847   -0.376688
    112          6           0       -2.927394   -2.542092   -0.606209
    113          6           0       -3.592594   -3.807807   -0.234846
    114          6           0       -4.878455   -3.415298    0.166376
    115          6           0       -5.012367   -2.006747    0.033926
    116          6           0       -3.023194   -5.108287   -0.338091
    117          6           0       -6.156496   -3.873438    0.661771
    118          8           0       -6.602762   -4.953861    1.045544
    119          6           0       -7.197774   -2.677221    0.555972
    120          6           0       -7.933324   -2.584569    1.864758
    121          8           0       -7.332056   -2.269455    2.906765
    122          8           0       -9.256123   -2.669356    1.633738
    123          6           0      -10.028805   -2.571372    2.900699
    124          1           0       -6.567516    3.737889   -2.016606
    125          1           0       -0.400795    2.865809   -2.488345
    126          1           0       -1.099905   -3.220296   -1.108049
    127          1           0       -8.961337   -0.266123   -0.400535
    128          1           0       -8.517095    2.475949   -0.870394
    129          1           0       -8.540193    0.088066   -2.669738
    130          1           0       -7.503023    1.422239   -3.216159
    131          1           0       -9.194292    1.741147   -2.976276
    132          1           0       -8.006423    1.967837    1.405939
    133          1           0       -8.078076    0.298024    2.078100
    134          1           0      -10.582522    0.861595    0.846176
    135          1           0      -10.051511    2.376025    1.486043
    136          1           0       -5.845856    5.716047   -1.933873
    137          1           0       -4.526680    6.408688   -2.816597
    138          1           0       -4.557155    6.639752   -1.052388
    139          1           0       -2.447995    7.185334   -2.590155
    140          1           0       -0.767593    7.472015   -1.854769
    141          1           0       -2.199878    7.083176   -0.859389
    142          1           0        1.192390    0.931770   -2.018360
    143          1           0        0.394841   -1.812427   -2.849075
    144          1           0        1.706290    0.954141   -4.223927
    145          1           0       -0.060554    0.902148   -4.557960
    146          1           0        0.814432   -0.541843   -4.487825
    147          1           0        2.440165   -1.289138   -1.465392
    148          1           0        1.470252   -2.626562   -0.877579
    149          1           0        1.841079    0.118404    0.076211
    150          1           0        1.842969   -1.393416    1.055603
    151          1           0        0.292382   -0.616982    0.501412
    152          1           0       -3.280811   -5.634078    0.571677
    153          1           0       -1.945402   -5.060380   -0.478914
    154          1           0       -3.537725   -5.476242   -1.229802
    155          1           0       -7.867941   -2.898831   -0.275486
    156          1           0      -10.662865   -3.461528    2.957879
    157          1           0      -10.539435   -1.590721    2.864121
    158          1           0       -9.477528   -2.644274    3.830872
 ---------------------------------------------------------------------

 SCF Done:  E(RCAM-B3LYP) =  -4069.81367390     A.U. after   19 cycles

 Excitation energies and oscillator strengths:

 Excited State   1:      Singlet-A      1.6263 eV  762.36 nm  f=0.0023  <S**2>=0.000
     309 -> 315       -0.11266
     310 -> 316        0.11432
     311 -> 313       -0.47812
     312 -> 314        0.49358
 This state for optimization and/or second-order correction.
 Total Energy, E(TD-HF/TD-DFT) =  -4069.75390737
 Copying the excited state density for this state as the 1-particle RhoCI density.

 Excited State   2:      Singlet-A      1.7088 eV  725.56 nm  f=0.6666  <S**2>=0.000
     309 -> 315        0.13231
     310 -> 316        0.12561
     311 -> 313        0.49098
     312 -> 314        0.47579

 Excited State   3:      Singlet-A      2.1710 eV  571.09 nm  f=0.0617  <S**2>=0.000
     309 -> 313        0.55511
     310 -> 314        0.32764
     311 -> 315       -0.23192
     312 -> 316       -0.12759

 Excited State   4:      Singlet-A      2.1823 eV  568.13 nm  f=0.1355  <S**2>=0.000
     309 -> 313       -0.32397
     310 -> 314        0.55365
     311 -> 315        0.14276
     312 -> 316       -0.23429

 Excited State   5:      Singlet-A      2.2484 eV  551.43 nm  f=0.0005  <S**2>=0.000
     312 -> 313        0.70434

 The electronic state is 1-A.
 Alpha  occ. eigenvalues --  -46.87593 -46.87318 -19.26809 -19.26150 -19.19790
 Alpha  occ. eigenvalues --  -19.18948 -19.18633 -19.18626 -19.18262 -19.17777
 Alpha  occ. eigenvalues --  -14.42447 -14.42170 -14.41341 -14.40965 -14.39273
 Alpha  occ. eigenvalues --  -14.39032 -14.38311 -14.38252 -10.39701 -10.38870
 Alpha  occ. eigenvalues --  -10.35296 -10.35251 -10.34511 -10.33952 -10.32091
 Alpha  occ. eigenvalues --  -10.31587 -10.31511 -10.30966 -10.30880 -10.30756
 Alpha  occ. eigenvalues --  -10.30615 -10.30484 -10.30064 -10.30045 -10.29995
 Alpha  occ. eigenvalues --  -10.29911 -10.29672 -10.29616 -10.29477 -10.29106
 Alpha  occ. eigenvalues --  -10.29100 -10.29068 -10.28906 -10.28795 -10.28482
 Alpha  occ. eigenvalues --  -10.28478 -10.28258 -10.28220 -10.28116 -10.27884
 Alpha  occ. eigenvalues --  -10.27721 -10.27711 -10.27680 -10.27515 -10.27439
 Alpha  occ. eigenvalues --  -10.27390 -10.27353 -10.27342 -10.27340 -10.27245
 Alpha  occ. eigenvalues --  -10.27188 -10.27164 -10.27163 -10.27028 -10.26870
 Alpha  occ. eigenvalues --  -10.26787 -10.26650 -10.26484 -10.26385 -10.26301
 Alpha  occ. eigenvalues --  -10.26025 -10.25975 -10.25957 -10.25794 -10.25781
 Alpha  occ. eigenvalues --  -10.25411 -10.25344 -10.25309 -10.25090 -10.24822
 Alpha  occ. eigenvalues --  -10.24745 -10.24737 -10.24557 -10.24530 -10.24419
 Alpha  occ. eigenvalues --  -10.24351  -3.16289  -3.16069  -1.91163  -1.90951
 Alpha  occ. eigenvalues --   -1.90767  -1.90608  -1.90539  -1.90377  -1.17181
 Alpha  occ. eigenvalues --   -1.16440  -1.08774  -1.08387  -1.07320  -1.07026
 Alpha  occ. eigenvalues --   -1.06880  -1.06732  -1.04613  -1.04179  -1.03707
 Alpha  occ. eigenvalues --   -1.03317  -1.03192  -1.02662  -1.02375  -1.01755
 Alpha  occ. eigenvalues --   -0.92052  -0.91668  -0.89447  -0.89305  -0.89016
 Alpha  occ. eigenvalues --   -0.88855  -0.88200  -0.87894  -0.87686  -0.87669
 Alpha  occ. eigenvalues --   -0.87411  -0.87326  -0.87104  -0.86879  -0.85066
 Alpha  occ. eigenvalues --   -0.84722  -0.83868  -0.83480  -0.82831  -0.82738
 Alpha  occ. eigenvalues --   -0.82612  -0.82389  -0.81747  -0.81309  -0.80627
 Alpha  occ. eigenvalues --   -0.80158  -0.78689  -0.78334  -0.77215  -0.77026
 Alpha  occ. eigenvalues --   -0.76844  -0.76611  -0.76006  -0.75559  -0.74851
 Alpha  occ. eigenvalues --   -0.74490  -0.72741  -0.72334  -0.71692  -0.71251
 Alpha  occ. eigenvalues --   -0.69767  -0.69292  -0.68924  -0.68550  -0.67652
 Alpha  occ. eigenvalues --   -0.67286  -0.67252  -0.66979  -0.65412  -0.64996
 Alpha  occ. eigenvalues --   -0.64936  -0.64657  -0.64413  -0.64326  -0.64193
 Alpha  occ. eigenvalues --   -0.63713  -0.62504  -0.61956  -0.60308  -0.60038
 Alpha  occ. eigenvalues --   -0.59887  -0.59510  -0.59008  -0.58632  -0.58546
 Alpha  occ. eigenvalues --   -0.58086  -0.57839  -0.57274  -0.57266  -0.56862
 Alpha  occ. eigenvalues --   -0.56422  -0.56151  -0.55869  -0.55627  -0.55531
 Alpha  occ. eigenvalues --   -0.55385  -0.55215  -0.55016  -0.54661  -0.54313
 Alpha  occ. eigenvalues --   -0.53988  -0.53654  -0.53323  -0.53209  -0.53070
 Alpha  occ. eigenvalues --   -0.52960  -0.52862  -0.52655  -0.52558  -0.52484
 Alpha  occ. eigenvalues --   -0.52286  -0.52196  -0.51823  -0.51648  -0.51479
 Alpha  occ. eigenvalues --   -0.51409  -0.51233  -0.50923  -0.50326  -0.50304
 Alpha  occ. eigenvalues --   -0.50065  -0.49857  -0.49724  -0.49663  -0.49425
 Alpha  occ. eigenvalues --   -0.49290  -0.49234  -0.49146  -0.48940  -0.48842
 Alpha  occ. eigenvalues --   -0.48603  -0.48453  -0.48321  -0.48290  -0.48163
 Alpha  occ. eigenvalues --   -0.48061  -0.47676  -0.47319  -0.47242  -0.46846
 Alpha  occ. eigenvalues --   -0.46780  -0.46653  -0.46500  -0.46352  -0.46221
 Alpha  occ. eigenvalues --   -0.46153  -0.46010  -0.45803  -0.45703  -0.45463
 Alpha  occ. eigenvalues --   -0.45140  -0.44983  -0.44528  -0.44493  -0.44272
 Alpha  occ. eigenvalues --   -0.44219  -0.44119  -0.44051  -0.43932  -0.43890
 Alpha  occ. eigenvalues --   -0.43751  -0.43691  -0.43605  -0.43465  -0.43227
 Alpha  occ. eigenvalues --   -0.43078  -0.43048  -0.42914  -0.42671  -0.42577
 Alpha  occ. eigenvalues --   -0.42544  -0.42126  -0.41984  -0.41780  -0.41592
 Alpha  occ. eigenvalues --   -0.41489  -0.41344  -0.41206  -0.41105  -0.40908
 Alpha  occ. eigenvalues --   -0.40781  -0.40654  -0.40572  -0.40484  -0.40441
 Alpha  occ. eigenvalues --   -0.40205  -0.40034  -0.39884  -0.39267  -0.39064
 Alpha  occ. eigenvalues --   -0.38396  -0.37984  -0.37840  -0.37410  -0.37271
 Alpha  occ. eigenvalues --   -0.37265  -0.37104  -0.36917  -0.36759  -0.36494
 Alpha  occ. eigenvalues --   -0.36243  -0.35764  -0.34368  -0.34048  -0.33894
 Alpha  occ. eigenvalues --   -0.33624  -0.33165  -0.32818  -0.31192  -0.31162
 Alpha  occ. eigenvalues --   -0.30983  -0.30633  -0.30127  -0.29677  -0.29297
 Alpha  occ. eigenvalues --   -0.29163  -0.29047  -0.28884  -0.24020  -0.23683
 Alpha  occ. eigenvalues --   -0.21123  -0.20766
 Alpha virt. eigenvalues --   -0.08748  -0.08470  -0.01731  -0.01344  -0.00000
 Alpha virt. eigenvalues --    0.00193   0.02141   0.02537   0.03329   0.04505
 Alpha virt. eigenvalues --    0.04604   0.05046   0.05143   0.05404   0.06157

 Mulliken charges:
               1
     1  Mg   0.712148
     2  C   -0.008175
     3  C   -0.091970
     4  C   -0.043589
     5  C   -0.059159
     6  N   -0.248192
     7  C   -0.063801
     8  C   -0.018697
     9  C   -0.083029
    10  C    0.047025
    11  C    0.105387
    12  C    0.041682
    13  C   -0.068336
    14  H    0.035445
    15  N   -0.423459
    16  C    0.168331
    17  C   -0.170728
    18  C   -0.000255
    19  C    0.151477
    20  C    0.108510
    21  C    0.016293
    22  O   -0.250267
    23  C    0.056903
    24  N   -0.332948
    25  C    0.045919
    26  C   -0.028086
    27  C   -0.022265
    28  C    0.073002
    29  C    0.076484
    30  C    0.034886
    31  C   -0.006633
    32  N   -0.317921
    33  C    0.076816
    34  C   -0.170322
    35  C    0.013081
    36  C    0.069853
    37  C    0.127891
    38  C    0.042997
    39  O   -0.188764
    40  C   -0.006897
    41  C    0.220027
    42  O   -0.259819
    43  O   -0.302613
    44  C    0.156333
    45  H   -0.018274
    46  H   -0.017007
    47  H   -0.042598
    48  H   -0.002012
    49  H   -0.004024
    50  H    0.025692
    51  H    0.017783
    52  H    0.016876
    53  H    0.012829
    54  H    0.049135
    55  H    0.019057
    56  H    0.019251
    57  H    0.004756
    58  H    0.025641
    59  H    0.050501
    60  H    0.035498
    61  H    0.033340
    62  H    0.044069
    63  H    0.017196
    64  H    0.009038
    65  H    0.023305
    66  H    0.012247
    67  H    0.004942
    68  H    0.006251
    69  H    0.005165
    70  H    0.008280
    71  H    0.020720
    72  H    0.031163
    73  H    0.045927
    74  H    0.010159
    75  H    0.045636
    76  H    0.035994
    77  H    0.045279
    78  H    0.047981
    79  H    0.052664
    80  Mg   0.836825
    81  C   -0.017954
    82  C   -0.088602
    83  C   -0.046291
    84  C   -0.068560
    85  N   -0.254708
    86  C   -0.049656
    87  C   -0.015142
    88  C   -0.090307
    89  C    0.045351
    90  C    0.114664
    91  C    0.062639
    92  C   -0.077450
    93  H    0.034045
    94  N   -0.423091
    95  C    0.162306
    96  C   -0.175467
    97  C   -0.009325
    98  C    0.152327
    99  C    0.099529
   100  C    0.015968
   101  O   -0.259070
   102  C    0.061920
   103  N   -0.349521
   104  C    0.035311
   105  C   -0.019890
   106  C   -0.025820
   107  C    0.084826
   108  C    0.073411
   109  C    0.019707
   110  C   -0.026431
   111  N   -0.324182
   112  C    0.078848
   113  C   -0.161535
   114  C    0.001672
   115  C    0.096723
   116  C    0.129675
   117  C    0.042422
   118  O   -0.188193
   119  C    0.001030
   120  C    0.211150
   121  O   -0.251502
   122  O   -0.305612
   123  C    0.152263
   124  H   -0.021025
   125  H   -0.018014
   126  H   -0.026574
   127  H   -0.001131
   128  H   -0.005064
   129  H    0.022083
   130  H    0.014257
   131  H    0.015321
   132  H    0.013964
   133  H    0.037425
   134  H    0.020540
   135  H    0.019294
   136  H    0.008342
   137  H    0.024428
   138  H    0.038914
   139  H    0.038345
   140  H    0.031245
   141  H    0.035770
   142  H    0.017310
   143  H    0.020608
   144  H    0.022590
   145  H    0.008133
   146  H    0.007875
   147  H    0.027891
   148  H    0.027464
   149  H    0.023090
   150  H    0.090671
   151  H    0.025835
   152  H    0.045059
   153  H    0.017397
   154  H    0.046271
   155  H    0.034436
   156  H    0.043526
   157  H    0.049234
   158  H    0.053165
 Sum of Mulliken charges =  -0.00000

 Dipole moment (field-independent basis, Debye):
    X=              1.2415    Y=              6.4511    Z=             -3.9962  Tot=              7.6894
 Quadrupole moment (field-independent basis, Debye-Ang):
   XX=           -455.9328   YY=           -538.8489   ZZ=           -484.0348
   XY=            -27.7386   XZ=             -6.4876   YZ=             -4.4880

 Normal termination of Gaussian 16 at Wed Sep  8 14:58:31 2021.
