 Gaussian 16, Revision A.03,
 Gaussian 16:  ES64L-G16RevA.03 25-Dec-2016

 -----------------------------------
 #p cam-b3lyp/Def2SVP td=(nstates=5)
 -----------------------------------

 --------------------------------
 TDDFT excited states in gaussian
 --------------------------------
 Symbolic Z-matrix:
 Charge =  0 Multiplicity = 1

                         Standard orientation:
 ---------------------------------------------------------------------
 Center     Atomic      Atomic             Coordinates (Angstroms)
 Number     Number       Type             X           Y           Z
 ---------------------------------------------------------------------
      1         12           0        4.797237    1.142344    0.667600
      2          6           0        5.505349   -2.122151   -0.618428
      3          6           0        5.828651    2.387238   -2.337311
      4          6           0        4.612567    4.045612    1.929960
      5          6           0        4.914203   -0.251071    3.859837
      6          7           0        5.547491    0.156561   -1.167066
      7          6           0        5.714631   -1.104773   -1.552125
      8          6           0        6.060391   -1.248401   -3.064473
      9          6           0        6.678580    0.198869   -3.319912
     10          6           0        5.949516    0.969620   -2.233481
     11          6           0        8.178633    0.276145   -3.054634
     12          6           0        4.788437   -1.491567   -3.944663
     13          6           0        5.064230   -1.964765   -5.374829
     14          1           0        4.145662   -2.911873   -5.988479
     15          7           0        4.695918    2.913382   -0.201887
     16          6           0        5.151331    3.236880   -1.436081
     17          6           0        4.841476    4.670800   -1.621948
     18          6           0        4.340405    5.200116   -0.323161
     19          6           0        4.557102    4.065991    0.538337
     20          6           0        4.981741    5.379565   -2.934094
     21          6           0        3.768329    6.522302    0.080182
     22          8           0        3.612232    6.850428    1.305963
     23          6           0        3.473875    7.470580   -1.009363
     24          7           0        4.983757    1.856232    2.620344
     25          6           0        4.800778    3.150860    2.902196
     26          6           0        4.703494    3.379157    4.381505
     27          6           0        4.614956    1.930574    5.047478
     28          6           0        4.767641    1.072572    3.767326
     29          6           0        5.861425    4.162354    5.015390
     30          6           0        3.407287    1.657409    5.978786
     31          6           0        2.128688    1.646161    5.171224
     32          7           0        4.968619   -0.854984    1.499679
     33          6           0        5.019592   -1.201090    2.857724
     34          6           0        5.246975   -2.656398    2.924386
     35          6           0        5.329561   -3.055806    1.591907
     36          6           0        5.190456   -1.917887    0.746873
     37          6           0        5.408092   -3.421098    4.113381
     38          6           0        5.527570   -4.175531    0.685891
     39          8           0        5.606313   -5.397366    0.821585
     40          6           0        5.771053   -3.598438   -0.778181
     41          6           0        4.893464   -4.372574   -1.723623
     42          8           0        3.650553   -4.275975   -1.666985
     43          8           0        5.650396   -4.913995   -2.690297
     44          6           0        4.837393   -5.671551   -3.678876
     45          1           0        6.347530    2.903280   -3.147500
     46          1           0        4.441930    5.012983    2.406945
     47          1           0        4.877548   -0.768488    4.820247
     48          1           0        6.801755   -2.015061   -3.290385
     49          1           0        6.413139    0.587036   -4.303065
     50          1           0        8.552393   -0.645568   -2.608911
     51          1           0        8.309955    1.112004   -2.367183
     52          1           0        8.719043    0.546781   -3.962098
     53          1           0        4.308653   -0.535683   -4.154790
     54          1           0        4.110344   -2.192982   -3.457291
     55          1           0        6.094647   -2.301746   -5.491427
     56          1           0        4.983296   -1.105391   -6.040506
     57          1           0        5.527222    4.776391   -3.658785
     58          1           0        5.623177    6.243702   -2.762234
     59          1           0        4.019842    5.708251   -3.327854
     60          1           0        4.389736    7.678132   -1.563142
     61          1           0        2.988561    8.325912   -0.540612
     62          1           0        2.789976    6.997078   -1.714364
     63          1           0        3.805803    3.942928    4.631983
     64          1           0        5.484198    1.711959    5.668203
     65          1           0        5.543734    5.058932    5.548236
     66          1           0        6.573646    4.407167    4.227926
     67          1           0        6.483761    3.585059    5.698651
     68          1           0        3.312155    2.451113    6.719010
     69          1           0        3.482566    0.711250    6.514852
     70          1           0        1.874165    2.703270    5.103616
     71          1           0        1.351602    1.090337    5.696968
     72          1           0        2.301870    1.287158    4.156527
     73          1           0        4.820435   -4.328472    3.974451
     74          1           0        5.076641   -2.864821    4.989907
     75          1           0        6.485812   -3.583272    4.104680
     76          1           0        6.829554   -3.735453   -0.997100
     77          1           0        5.242074   -6.682891   -3.719601
     78          1           0        4.843900   -5.086545   -4.598729
     79          1           0        3.803401   -5.874798   -3.398001
     80         12           0       -5.663285   -0.072302   -0.354707
     81          6           0       -2.981496   -2.412996    0.101577
     82          6           0       -3.304303    2.232729   -1.224548
     83          6           0       -7.948186    2.129067   -0.329854
     84          6           0       -7.639257   -2.165379    1.610047
     85          7           0       -3.459952   -0.194467   -0.505227
     86          6           0       -2.555958   -1.152661   -0.367368
     87          6           0       -1.127212   -0.760435   -0.830377
     88          6           0       -1.250664    0.832459   -0.668142
     89          6           0       -2.760620    0.979782   -0.844227
     90          6           0       -0.881325    1.326356    0.720741
     91          6           0       -0.849271   -1.166229   -2.320380
     92          6           0        0.619732   -1.094680   -2.743065
     93          1           0        1.120986   -2.087854   -3.689015
     94          7           0       -5.716250    1.733053   -1.177168
     95          6           0       -4.662768    2.519024   -1.483269
     96          6           0       -5.231752    3.752754   -2.047463
     97          6           0       -6.711357    3.698365   -1.897330
     98          6           0       -6.850824    2.501247   -1.092629
     99          6           0       -4.395268    4.798831   -2.725273
    100          6           0       -7.816849    4.585021   -2.385101
    101          8           0       -9.012752    4.479003   -1.936310
    102          6           0       -7.438916    5.642160   -3.334363
    103          7           0       -7.457203    0.086212    0.684068
    104          6           0       -8.290711    1.119474    0.470602
    105          6           0       -9.633401    0.880131    1.118895
    106          6           0       -9.608365   -0.641749    1.609635
    107          6           0       -8.158857   -1.008597    1.222690
    108          6           0       -9.973790    1.789676    2.299257
    109          6           0      -10.760061   -1.559512    1.115716
    110          6           0      -10.645827   -1.773287   -0.376474
    111          7           0       -5.452876   -2.033947    0.526059
    112          6           0       -6.392615   -2.711830    1.333174
    113          6           0       -5.752853   -3.962989    1.788955
    114          6           0       -4.466979   -3.914831    1.229768
    115          6           0       -4.309056   -2.708628    0.495180
    116          6           0       -6.341011   -4.932602    2.649212
    117          6           0       -3.203632   -4.605142    1.102672
    118          8           0       -2.780022   -5.710376    1.438428
    119          6           0       -2.142288   -3.604506    0.471280
    120          6           0       -1.424532   -4.326623   -0.635918
    121          8           0       -2.035912   -4.682676   -1.658690
    122          8           0       -0.099998   -4.284989   -0.403040
    123          6           0        0.655573   -4.978682   -1.479947
    124          1           0       -2.634239    3.090310   -1.291235
    125          1           0       -8.806348    2.803398   -0.377882
    126          1           0       -8.223022   -2.917634    2.144843
    127          1           0       -0.327344   -1.137068   -0.204168
    128          1           0       -0.721614    1.352578   -1.462463
    129          1           0       -0.709764    0.509829    1.406292
    130          1           0       -1.717788    1.928261    1.051002
    131          1           0       -0.025398    2.004988    0.664252
    132          1           0       -1.273332   -0.402219   -2.984615
    133          1           0       -1.237695   -2.144383   -2.527658
    134          1           0        1.292985   -1.010618   -1.881308
    135          1           0        0.776524   -0.166072   -3.297259
    136          1           0       -3.325901    4.643330   -2.536423
    137          1           0       -4.621032    5.753726   -2.238366
    138          1           0       -4.612656    4.885943   -3.791965
    139          1           0       -6.690356    6.285952   -2.878690
    140          1           0       -8.376595    6.113011   -3.635921
    141          1           0       -6.965249    5.176735   -4.205938
    142          1           0      -10.436363    1.005314    0.402875
    143          1           0       -9.669948   -0.717645    2.705216
    144          1           0      -10.917638    2.350011    2.160505
    145          1           0       -9.147141    2.469965    2.455445
    146          1           0      -10.045611    1.288286    3.262915
    147          1           0      -11.726766   -1.079767    1.287420
    148          1           0      -10.786631   -2.524075    1.611609
    149          1           0      -11.128206   -0.883001   -0.790949
    150          1           0      -11.168095   -2.680139   -0.674644
    151          1           0       -9.597597   -1.759612   -0.696908
    152          1           0       -6.104983   -5.902665    2.232364
    153          1           0       -7.415755   -4.787206    2.736133
    154          1           0       -5.819383   -4.706778    3.583102
    155          1           0       -1.463618   -3.300528    1.269139
    156          1           0        1.274679   -5.740446   -0.996105
    157          1           0        1.182006   -4.180988   -2.037003
    158          1           0        0.089709   -5.580363   -2.181545
 ---------------------------------------------------------------------

 SCF Done:  E(RCAM-B3LYP) =  -4069.81425244     A.U. after   19 cycles

 Excitation energies and oscillator strengths:

 Excited State   1:      Singlet-A      1.6518 eV  750.58 nm  f=0.0024  <S**2>=0.000
     309 -> 315        0.12141
     310 -> 316       -0.11565
     311 -> 313        0.49472
     312 -> 314       -0.47733
 This state for optimization and/or second-order correction.
 Total Energy, E(TD-HF/TD-DFT) =  -4069.75354814
 Copying the excited state density for this state as the 1-particle RhoCI density.

 Excited State   2:      Singlet-A      1.6977 eV  730.31 nm  f=0.7047  <S**2>=0.000
     309 -> 315        0.12525
     310 -> 316        0.12839
     311 -> 313        0.47522
     312 -> 314        0.49261

 Excited State   3:      Singlet-A      2.1816 eV  568.31 nm  f=0.0984  <S**2>=0.000
     309 -> 313        0.10540
     310 -> 314        0.63472
     312 -> 316       -0.26707

 Excited State   4:      Singlet-A      2.1952 eV  564.79 nm  f=0.1024  <S**2>=0.000
     309 -> 313        0.63171
     310 -> 314       -0.10390
     311 -> 315       -0.27553

 Excited State   5:      Singlet-A      2.3167 eV  535.17 nm  f=0.0000  <S**2>=0.000
     312 -> 313        0.70627

 The electronic state is 1-A.
 Alpha  occ. eigenvalues --  -46.88246 -46.87332 -19.27011 -19.24848 -19.19924
 Alpha  occ. eigenvalues --  -19.19230 -19.18590 -19.18452 -19.18079 -19.17563
 Alpha  occ. eigenvalues --  -14.42874 -14.42165 -14.41867 -14.41032 -14.39846
 Alpha  occ. eigenvalues --  -14.39028 -14.39017 -14.38258 -10.39897 -10.38001
 Alpha  occ. eigenvalues --  -10.35863 -10.35137 -10.34826 -10.33707 -10.32299
 Alpha  occ. eigenvalues --  -10.31815 -10.31364 -10.30982 -10.30943 -10.30923
 Alpha  occ. eigenvalues --  -10.30648 -10.30606 -10.30310 -10.30064 -10.30033
 Alpha  occ. eigenvalues --  -10.30004 -10.29864 -10.29668 -10.29569 -10.29417
 Alpha  occ. eigenvalues --  -10.29167 -10.29143 -10.29072 -10.28932 -10.28810
 Alpha  occ. eigenvalues --  -10.28505 -10.28250 -10.28192 -10.28129 -10.28037
 Alpha  occ. eigenvalues --  -10.28012 -10.28001 -10.27882 -10.27854 -10.27831
 Alpha  occ. eigenvalues --  -10.27783 -10.27783 -10.27688 -10.27665 -10.27354
 Alpha  occ. eigenvalues --  -10.27276 -10.27250 -10.27145 -10.27143 -10.27124
 Alpha  occ. eigenvalues --  -10.27086 -10.26835 -10.26576 -10.26477 -10.26411
 Alpha  occ. eigenvalues --  -10.26366 -10.26222 -10.26153 -10.26092 -10.25925
 Alpha  occ. eigenvalues --  -10.25757 -10.25727 -10.25625 -10.25558 -10.25236
 Alpha  occ. eigenvalues --  -10.25202 -10.25177 -10.25005 -10.24523 -10.24514
 Alpha  occ. eigenvalues --  -10.24360  -3.16989  -3.16083  -1.91872  -1.91456
 Alpha  occ. eigenvalues --   -1.91298  -1.90965  -1.90553  -1.90390  -1.17381
 Alpha  occ. eigenvalues --   -1.15245  -1.09069  -1.08118  -1.07632  -1.07506
 Alpha  occ. eigenvalues --   -1.06710  -1.05812  -1.05008  -1.04175  -1.04145
 Alpha  occ. eigenvalues --   -1.03655  -1.03330  -1.02828  -1.02716  -1.01778
 Alpha  occ. eigenvalues --   -0.92429  -0.91541  -0.89902  -0.89590  -0.89177
 Alpha  occ. eigenvalues --   -0.88755  -0.88653  -0.88226  -0.88078  -0.87930
 Alpha  occ. eigenvalues --   -0.87689  -0.87465  -0.87326  -0.86843  -0.85392
 Alpha  occ. eigenvalues --   -0.84588  -0.84312  -0.83552  -0.83372  -0.83082
 Alpha  occ. eigenvalues --   -0.82672  -0.82220  -0.82080  -0.81043  -0.80820
 Alpha  occ. eigenvalues --   -0.79662  -0.79197  -0.78329  -0.77603  -0.77361
 Alpha  occ. eigenvalues --   -0.76784  -0.76358  -0.76330  -0.75274  -0.75189
 Alpha  occ. eigenvalues --   -0.74288  -0.73163  -0.72364  -0.72075  -0.71166
 Alpha  occ. eigenvalues --   -0.70250  -0.69485  -0.69281  -0.68410  -0.68064
 Alpha  occ. eigenvalues --   -0.67635  -0.67197  -0.66767  -0.65714  -0.65314
 Alpha  occ. eigenvalues --   -0.65048  -0.64810  -0.64652  -0.64403  -0.64064
 Alpha  occ. eigenvalues --   -0.63772  -0.62842  -0.61252  -0.60848  -0.60211
 Alpha  occ. eigenvalues --   -0.60045  -0.59416  -0.59406  -0.58947  -0.58596
 Alpha  occ. eigenvalues --   -0.58161  -0.57984  -0.57727  -0.57021  -0.56765
 Alpha  occ. eigenvalues --   -0.56656  -0.56516  -0.55954  -0.55867  -0.55811
 Alpha  occ. eigenvalues --   -0.55250  -0.55087  -0.54893  -0.54546  -0.54312
 Alpha  occ. eigenvalues --   -0.53714  -0.53706  -0.53681  -0.53493  -0.53465
 Alpha  occ. eigenvalues --   -0.53182  -0.52796  -0.52778  -0.52703  -0.52338
 Alpha  occ. eigenvalues --   -0.52303  -0.52236  -0.52033  -0.51922  -0.51608
 Alpha  occ. eigenvalues --   -0.51529  -0.51172  -0.50984  -0.50642  -0.50393
 Alpha  occ. eigenvalues --   -0.50312  -0.50229  -0.49963  -0.49691  -0.49671
 Alpha  occ. eigenvalues --   -0.49565  -0.49488  -0.49151  -0.49078  -0.48883
 Alpha  occ. eigenvalues --   -0.48840  -0.48756  -0.48663  -0.48118  -0.48104
 Alpha  occ. eigenvalues --   -0.47955  -0.47878  -0.47714  -0.47204  -0.47137
 Alpha  occ. eigenvalues --   -0.47000  -0.46816  -0.46655  -0.46552  -0.46305
 Alpha  occ. eigenvalues --   -0.46259  -0.46127  -0.45920  -0.45580  -0.45534
 Alpha  occ. eigenvalues --   -0.45107  -0.45002  -0.44895  -0.44855  -0.44558
 Alpha  occ. eigenvalues --   -0.44475  -0.44442  -0.44119  -0.44018  -0.43954
 Alpha  occ. eigenvalues --   -0.43795  -0.43743  -0.43705  -0.43495  -0.43417
 Alpha  occ. eigenvalues --   -0.43293  -0.43033  -0.43021  -0.42489  -0.42467
 Alpha  occ. eigenvalues --   -0.42394  -0.42273  -0.42118  -0.41935  -0.41611
 Alpha  occ. eigenvalues --   -0.41542  -0.41307  -0.41255  -0.41239  -0.41211
 Alpha  occ. eigenvalues --   -0.41021  -0.40935  -0.40667  -0.40601  -0.40412
 Alpha  occ. eigenvalues --   -0.40314  -0.40102  -0.39780  -0.39729  -0.39166
 Alpha  occ. eigenvalues --   -0.38835  -0.38175  -0.38045  -0.37722  -0.37698
 Alpha  occ. eigenvalues --   -0.37372  -0.37178  -0.36944  -0.36746  -0.36654
 Alpha  occ. eigenvalues --   -0.36087  -0.35248  -0.34733  -0.34577  -0.33902
 Alpha  occ. eigenvalues --   -0.33625  -0.33042  -0.32682  -0.31760  -0.31466
 Alpha  occ. eigenvalues --   -0.31008  -0.30596  -0.30458  -0.29873  -0.29725
 Alpha  occ. eigenvalues --   -0.29438  -0.29014  -0.28859  -0.24515  -0.23680
 Alpha  occ. eigenvalues --   -0.21534  -0.20793
 Alpha virt. eigenvalues --   -0.09190  -0.08457  -0.02170  -0.01369  -0.00482
 Alpha virt. eigenvalues --    0.00262   0.01766   0.01954   0.02604   0.03543
 Alpha virt. eigenvalues --    0.04118   0.04287   0.05037   0.05544   0.06162

 Mulliken charges:
               1
     1  Mg   0.829654
     2  C   -0.004381
     3  C   -0.093850
     4  C   -0.045451
     5  C   -0.062848
     6  N   -0.257449
     7  C   -0.053376
     8  C   -0.013626
     9  C   -0.086971
    10  C    0.046188
    11  C    0.104574
    12  C    0.048925
    13  C   -0.072679
    14  H    0.036450
    15  N   -0.433532
    16  C    0.167221
    17  C   -0.177952
    18  C   -0.004682
    19  C    0.147215
    20  C    0.110162
    21  C    0.010999
    22  O   -0.248914
    23  C    0.063106
    24  N   -0.340583
    25  C    0.041069
    26  C   -0.028252
    27  C   -0.024286
    28  C    0.074515
    29  C    0.075863
    30  C    0.034902
    31  C   -0.004820
    32  N   -0.311473
    33  C    0.080566
    34  C   -0.167599
    35  C    0.009894
    36  C    0.083070
    37  C    0.126689
    38  C    0.046770
    39  O   -0.186594
    40  C   -0.006599
    41  C    0.218551
    42  O   -0.255423
    43  O   -0.302038
    44  C    0.157360
    45  H   -0.017019
    46  H   -0.016344
    47  H   -0.039902
    48  H    0.001275
    49  H   -0.003628
    50  H    0.025854
    51  H    0.016973
    52  H    0.017574
    53  H    0.012279
    54  H    0.045016
    55  H    0.018768
    56  H    0.018860
    57  H    0.006461
    58  H    0.027804
    59  H    0.038348
    60  H    0.038446
    61  H    0.036270
    62  H    0.029283
    63  H    0.016689
    64  H    0.010502
    65  H    0.023910
    66  H    0.012795
    67  H    0.005605
    68  H    0.007425
    69  H    0.006069
    70  H    0.008709
    71  H    0.019783
    72  H    0.026963
    73  H    0.050337
    74  H    0.010230
    75  H    0.046656
    76  H    0.037205
    77  H    0.046468
    78  H    0.048834
    79  H    0.050445
    80  Mg   0.836690
    81  C   -0.016135
    82  C   -0.088053
    83  C   -0.046188
    84  C   -0.066113
    85  N   -0.254114
    86  C   -0.050291
    87  C   -0.015730
    88  C   -0.091128
    89  C    0.045335
    90  C    0.109527
    91  C    0.065817
    92  C   -0.083803
    93  H    0.039891
    94  N   -0.423318
    95  C    0.162281
    96  C   -0.175144
    97  C   -0.008620
    98  C    0.151894
    99  C    0.099828
   100  C    0.015032
   101  O   -0.254040
   102  C    0.061449
   103  N   -0.350326
   104  C    0.037205
   105  C   -0.019541
   106  C   -0.034773
   107  C    0.089368
   108  C    0.073964
   109  C    0.034922
   110  C   -0.007546
   111  N   -0.324240
   112  C    0.079015
   113  C   -0.163940
   114  C    0.002943
   115  C    0.095647
   116  C    0.131616
   117  C    0.041222
   118  O   -0.185819
   119  C    0.003272
   120  C    0.209623
   121  O   -0.256453
   122  O   -0.304708
   123  C    0.158708
   124  H   -0.020484
   125  H   -0.016539
   126  H   -0.041210
   127  H    0.003585
   128  H   -0.005582
   129  H    0.023698
   130  H    0.014574
   131  H    0.018880
   132  H    0.009999
   133  H    0.038854
   134  H    0.031283
   135  H    0.013418
   136  H    0.007375
   137  H    0.025415
   138  H    0.038179
   139  H    0.037793
   140  H    0.035506
   141  H    0.033212
   142  H    0.013796
   143  H    0.011876
   144  H    0.024418
   145  H    0.011542
   146  H    0.005020
   147  H    0.005616
   148  H    0.003363
   149  H    0.010594
   150  H    0.017419
   151  H    0.030569
   152  H    0.046189
   153  H    0.007737
   154  H    0.046465
   155  H    0.035426
   156  H    0.043826
   157  H    0.061642
   158  H    0.036021
 Sum of Mulliken charges =  -0.00000

 Dipole moment (field-independent basis, Debye):
    X=              5.0476    Y=              6.4384    Z=             -2.7630  Tot=              8.6352
 Quadrupole moment (field-independent basis, Debye-Ang):
   XX=           -493.2424   YY=           -558.6260   ZZ=           -466.2031
   XY=             19.8146   XZ=            -35.2401   YZ=            -10.0075

 Normal termination of Gaussian 16 at Fri Sep 10 19:49:07 2021.
