 Gaussian 16, Revision A.03,
 Gaussian 16:  ES64L-G16RevA.03 25-Dec-2016

 -----------------------------------
 #p cam-b3lyp/Def2SVP td=(nstates=5)
 -----------------------------------

 --------------------------------
 TDDFT excited states in gaussian
 --------------------------------
 Symbolic Z-matrix:
 Charge =  0 Multiplicity = 1

                         Standard orientation:
 ---------------------------------------------------------------------
 Center     Atomic      Atomic             Coordinates (Angstroms)
 Number     Number       Type             X           Y           Z
 ---------------------------------------------------------------------
      1         12           0       -7.911679   -0.616140    0.164922
      2          6           0       -8.034429    2.948273    0.468410
      3          6           0       -8.823467   -0.220692   -3.099328
      4          6           0       -8.252307   -3.764259   -0.008119
      5          6           0       -8.128648   -0.771814    3.639739
      6          7           0       -8.343334    1.185939   -1.046206
      7          6           0       -8.296190    2.496223   -0.826880
      8          6           0       -8.476623    3.346009   -2.120202
      9          6           0       -9.264498    2.284217   -3.011185
     10          6           0       -8.754251    1.004667   -2.372184
     11          6           0      -10.778722    2.348981   -2.839622
     12          6           0       -7.107024    3.736183   -2.771120
     13          6           0       -7.180076    4.828978   -3.841548
     14          1           0       -6.085273    5.781854   -3.945370
     15          7           0       -7.978465   -1.813188   -1.405258
     16          6           0       -8.358062   -1.479748   -2.662243
     17          6           0       -8.235628   -2.714849   -3.466120
     18          6           0       -7.936133   -3.836849   -2.533643
     19          6           0       -8.071311   -3.179103   -1.259094
     20          6           0       -8.351117   -2.739529   -4.959372
     21          6           0       -7.594272   -5.276277   -2.755700
     22          8           0       -7.599987   -6.131198   -1.805094
     23          6           0       -7.335314   -5.682622   -4.148850
     24          7           0       -8.376514   -2.074327    1.584519
     25          6           0       -8.403114   -3.371211    1.258379
     26          6           0       -8.476398   -4.239813    2.479075
     27          6           0       -8.248593   -3.269352    3.726498
     28          6           0       -8.160457   -1.923504    2.965450
     29          6           0       -9.786158   -5.017113    2.669717
     30          6           0       -7.106312   -3.639140    4.705717
     31          6           0       -5.769297   -3.486679    4.015613
     32          7           0       -7.878884    0.808712    1.801921
     33          6           0       -8.006840    0.525012    3.169333
     34          6           0       -8.033918    1.817713    3.878035
     35          6           0       -7.935873    2.770248    2.865656
     36          6           0       -7.879247    2.114825    1.602523
     37          6           0       -8.196300    1.996109    5.280262
     38          6           0       -7.890588    4.189954    2.555430
     39          8           0       -7.810149    5.221516    3.223937
     40          6           0       -8.075341    4.365497    0.983527
     41          6           0       -7.014302    5.318563    0.504811
     42          8           0       -5.807743    5.001516    0.537403
     43          8           0       -7.595169    6.347691   -0.130824
     44          6           0       -6.596112    7.315860   -0.656837
     45          1           0       -9.331880   -0.233171   -4.065403
     46          1           0       -8.263476   -4.856178   -0.013203
     47          1           0       -8.109383   -0.743957    4.730750
     48          1           0       -9.079436    4.245334   -1.992705
     49          1           0       -8.965782    2.330136   -4.058268
     50          1           0      -11.059817    3.028392   -2.035068
     51          1           0      -11.088738    1.330758   -2.603813
     52          1           0      -11.265053    2.599440   -3.782770
     53          1           0       -6.748046    2.905299   -3.378432
     54          1           0       -6.385799    4.027790   -2.006839
     55          1           0       -8.138009    5.349158   -3.815358
     56          1           0       -7.158538    4.350106   -4.820536
     57          1           0       -8.737362   -1.797589   -5.346811
     58          1           0       -9.120119   -3.470915   -5.207203
     59          1           0       -7.412203   -3.016407   -5.439072
     60          1           0       -8.215795   -5.469637   -4.755431
     61          1           0       -7.019849   -6.724431   -4.104523
     62          1           0       -6.529529   -5.068403   -4.551832
     63          1           0       -7.693413   -4.996936    2.467863
     64          1           0       -9.132602   -3.204900    4.361359
     65          1           0       -9.647652   -6.095622    2.749337
     66          1           0      -10.449398   -4.768074    1.841839
     67          1           0      -10.382462   -4.704773    3.526620
     68          1           0       -7.192093   -4.681080    5.012227
     69          1           0       -7.098124   -3.027594    5.608044
     70          1           0       -5.659756   -4.432105    3.485516
     71          1           0       -4.974377   -3.356908    4.750782
     72          1           0       -5.795703   -2.694554    3.267063
     73          1           0       -7.477333    2.760108    5.575830
     74          1           0       -8.028595    1.064363    5.820010
     75          1           0       -9.235297    2.322431    5.323322
     76          1           0       -9.079394    4.758924    0.827917
     77          1           0       -6.850022    8.293563   -0.247130
     78          1           0       -6.598863    7.205497   -1.741373
     79          1           0       -5.574445    7.199501   -0.293525
     80         12           0        7.964907   -0.950956   -0.060643
     81          6           0        8.310642    2.609145    0.231181
     82          6           0        6.634289   -0.418023   -3.155804
     83          6           0        7.232926   -4.036416   -0.168206
     84          6           0        8.237625   -1.122412    3.409502
     85          7           0        7.574936    0.901455   -1.204637
     86          6           0        7.804377    2.192477   -1.017629
     87          6           0        7.548067    3.078739   -2.265992
     88          6           0        6.508230    2.122852   -3.030120
     89          6           0        6.949594    0.776402   -2.460087
     90          6           0        5.062738    2.361658   -2.626564
     91          6           0        8.848330    3.307177   -3.114007
     92          6           0        8.741911    4.409455   -4.170141
     93          1           0        9.920571    5.226810   -4.444349
     94          7           0        7.527669   -2.113940   -1.608174
     95          6           0        7.015928   -1.729270   -2.796214
     96          6           0        6.858284   -2.961445   -3.584291
     97          6           0        7.164198   -4.122752   -2.705385
     98          6           0        7.302947   -3.455929   -1.426254
     99          6           0        6.530635   -2.954072   -5.049218
    100          6           0        7.295823   -5.592096   -2.969798
    101          8           0        7.331434   -6.447387   -2.015835
    102          6           0        7.287776   -6.007736   -4.380002
    103          7           0        7.551582   -2.354339    1.416531
    104          6           0        7.316367   -3.640287    1.102008
    105          6           0        7.318377   -4.512519    2.334730
    106          6           0        7.845899   -3.578621    3.520949
    107          6           0        7.978629   -2.245073    2.753208
    108          6           0        5.969440   -5.116596    2.724415
    109          6           0        9.069315   -4.091132    4.329200
    110          6           0       10.299707   -4.103280    3.450931
    111          7           0        8.409747    0.436168    1.534987
    112          6           0        8.446919    0.160316    2.919408
    113          6           0        8.678710    1.443901    3.613031
    114          6           0        8.737826    2.388374    2.577191
    115          6           0        8.535596    1.742186    1.327774
    116          6           0        8.757254    1.625422    5.022634
    117          6           0        8.914728    3.786643    2.257405
    118          8           0        9.207319    4.794387    2.899732
    119          6           0        8.520016    4.010521    0.734096
    120          6           0        9.602910    4.831753    0.089544
    121          8           0       10.751691    4.373240   -0.039580
    122          8           0        9.054402    5.930342   -0.460548
    123          6           0       10.087461    6.771441   -1.121742
    124          1           0        5.998518   -0.351509   -4.039127
    125          1           0        7.092402   -5.119740   -0.155964
    126          1           0        8.432622   -1.106021    4.483924
    127          1           0        7.087521    4.036681   -2.056194
    128          1           0        6.662910    2.150750   -4.105595
    129          1           0        4.983745    3.055774   -1.803094
    130          1           0        4.672442    1.392846   -2.343508
    131          1           0        4.477158    2.680915   -3.493461
    132          1           0        9.008550    2.438087   -3.764979
    133          1           0        9.690195    3.497154   -2.476970
    134          1           0        7.861226    5.044655   -4.015696
    135          1           0        8.568399    3.942582   -5.142737
    136          1           0        6.199830   -1.962635   -5.382436
    137          1           0        5.651187   -3.593147   -5.183399
    138          1           0        7.345568   -3.340479   -5.665054
    139          1           0        6.362209   -5.680520   -4.847652
    140          1           0        7.481785   -7.082032   -4.369131
    141          1           0        8.102760   -5.493059   -4.901085
    142          1           0        7.997730   -5.347726    2.216387
    143          1           0        7.075417   -3.422934    4.290339
    144          1           0        5.988137   -6.220914    2.789305
    145          1           0        5.229063   -4.790372    2.006111
    146          1           0        5.555292   -4.754327    3.663796
    147          1           0        8.906293   -5.123174    4.649331
    148          1           0        9.274404   -3.506317    5.219663
    149          1           0       10.210336   -5.052425    2.914076
    150          1           0       11.203139   -4.076075    4.056827
    151          1           0       10.260331   -3.298929    2.707215
    152          1           0        9.589860    2.291808    5.204821
    153          1           0        8.886096    0.676531    5.539126
    154          1           0        7.777026    2.068839    5.217095
    155          1           0        7.555396    4.519231    0.716986
    156          1           0       10.011795    7.772255   -0.685458
    157          1           0        9.897300    6.679620   -2.207633
    158          1           0       11.126804    6.533983   -0.927255
 ---------------------------------------------------------------------

 SCF Done:  E(RCAM-B3LYP) =  -4069.81169799     A.U. after   19 cycles

 Excitation energies and oscillator strengths:

 Excited State   1:      Singlet-A      1.6699 eV  742.47 nm  f=0.0233  <S**2>=0.000
     309 -> 315       -0.10363
     310 -> 316        0.13782
     311 -> 313       -0.41099
     312 -> 314        0.54971
 This state for optimization and/or second-order correction.
 Total Energy, E(TD-HF/TD-DFT) =  -4069.75033113
 Copying the excited state density for this state as the 1-particle RhoCI density.

 Excited State   2:      Singlet-A      1.6851 eV  735.77 nm  f=0.7344  <S**2>=0.000
     309 -> 315        0.14174
     310 -> 316        0.10535
     311 -> 313        0.54889
     312 -> 314        0.41045

 Excited State   3:      Singlet-A      2.1853 eV  567.36 nm  f=0.0578  <S**2>=0.000
     309 -> 313       -0.13850
     310 -> 314        0.62769
     312 -> 316       -0.26613

 Excited State   4:      Singlet-A      2.1929 eV  565.39 nm  f=0.1354  <S**2>=0.000
     309 -> 313        0.62566
     310 -> 314        0.13740
     311 -> 315       -0.27206

 Excited State   5:      Singlet-A      2.7605 eV  449.13 nm  f=0.0000  <S**2>=0.000
     312 -> 313        0.70710

 The electronic state is 1-A.
 Alpha  occ. eigenvalues --  -46.87853 -46.87590 -19.26342 -19.26281 -19.19093
 Alpha  occ. eigenvalues --  -19.19079 -19.18869 -19.18660 -19.18218 -19.17975
 Alpha  occ. eigenvalues --  -14.42508 -14.42426 -14.41503 -14.41289 -14.39459
 Alpha  occ. eigenvalues --  -14.39283 -14.38641 -14.38528 -10.39138 -10.39021
 Alpha  occ. eigenvalues --  -10.35503 -10.35338 -10.34439 -10.34152 -10.31738
 Alpha  occ. eigenvalues --  -10.31694 -10.31462 -10.31235 -10.30969 -10.30955
 Alpha  occ. eigenvalues --  -10.30625 -10.30560 -10.30327 -10.30290 -10.30260
 Alpha  occ. eigenvalues --  -10.30075 -10.29970 -10.29822 -10.29685 -10.29370
 Alpha  occ. eigenvalues --  -10.29334 -10.29310 -10.28817 -10.28648 -10.28628
 Alpha  occ. eigenvalues --  -10.28605 -10.28421 -10.28335 -10.28181 -10.28064
 Alpha  occ. eigenvalues --  -10.27931 -10.27846 -10.27784 -10.27640 -10.27600
 Alpha  occ. eigenvalues --  -10.27549 -10.27545 -10.27492 -10.27460 -10.27452
 Alpha  occ. eigenvalues --  -10.27423 -10.27413 -10.27402 -10.27309 -10.27212
 Alpha  occ. eigenvalues --  -10.26972 -10.26788 -10.26635 -10.26472 -10.26376
 Alpha  occ. eigenvalues --  -10.26292 -10.26224 -10.26080 -10.26072 -10.25927
 Alpha  occ. eigenvalues --  -10.25883 -10.25865 -10.25771 -10.25473 -10.25326
 Alpha  occ. eigenvalues --  -10.24885 -10.24840 -10.24801 -10.24729 -10.24678
 Alpha  occ. eigenvalues --  -10.24620  -3.16596  -3.16340  -1.91477  -1.91222
 Alpha  occ. eigenvalues --   -1.91064  -1.90906  -1.90811  -1.90647  -1.16691
 Alpha  occ. eigenvalues --   -1.16575  -1.08676  -1.08581  -1.07270  -1.06912
 Alpha  occ. eigenvalues --   -1.06877  -1.06701  -1.04639  -1.04424  -1.03815
 Alpha  occ. eigenvalues --   -1.03593  -1.03288  -1.02969  -1.02465  -1.02041
 Alpha  occ. eigenvalues --   -0.92027  -0.91914  -0.89569  -0.89428  -0.89253
 Alpha  occ. eigenvalues --   -0.89079  -0.88335  -0.88154  -0.87920  -0.87732
 Alpha  occ. eigenvalues --   -0.87721  -0.87615  -0.87332  -0.87064  -0.85046
 Alpha  occ. eigenvalues --   -0.84932  -0.83983  -0.83811  -0.83023  -0.82878
 Alpha  occ. eigenvalues --   -0.82709  -0.82587  -0.81642  -0.81528  -0.80653
 Alpha  occ. eigenvalues --   -0.80376  -0.78854  -0.78573  -0.77275  -0.77078
 Alpha  occ. eigenvalues --   -0.76993  -0.76830  -0.75981  -0.75767  -0.74946
 Alpha  occ. eigenvalues --   -0.74734  -0.72827  -0.72629  -0.71726  -0.71509
 Alpha  occ. eigenvalues --   -0.69953  -0.69695  -0.68935  -0.68760  -0.67696
 Alpha  occ. eigenvalues --   -0.67535  -0.67288  -0.67141  -0.65349  -0.65203
 Alpha  occ. eigenvalues --   -0.64908  -0.64701  -0.64677  -0.64586  -0.64319
 Alpha  occ. eigenvalues --   -0.64137  -0.62353  -0.62210  -0.60497  -0.60278
 Alpha  occ. eigenvalues --   -0.59865  -0.59725  -0.59041  -0.58923  -0.58557
 Alpha  occ. eigenvalues --   -0.58357  -0.57638  -0.57481  -0.57361  -0.57170
 Alpha  occ. eigenvalues --   -0.56364  -0.56137  -0.56038  -0.55821  -0.55576
 Alpha  occ. eigenvalues --   -0.55390  -0.55388  -0.55180  -0.54575  -0.54421
 Alpha  occ. eigenvalues --   -0.53960  -0.53842  -0.53353  -0.53283  -0.53163
 Alpha  occ. eigenvalues --   -0.53077  -0.52971  -0.52836  -0.52818  -0.52612
 Alpha  occ. eigenvalues --   -0.52483  -0.52341  -0.51961  -0.51808  -0.51681
 Alpha  occ. eigenvalues --   -0.51596  -0.51249  -0.51132  -0.50634  -0.50425
 Alpha  occ. eigenvalues --   -0.50081  -0.49976  -0.49914  -0.49803  -0.49575
 Alpha  occ. eigenvalues --   -0.49425  -0.49270  -0.49155  -0.49134  -0.49031
 Alpha  occ. eigenvalues --   -0.48648  -0.48512  -0.48499  -0.48488  -0.48308
 Alpha  occ. eigenvalues --   -0.48280  -0.47752  -0.47530  -0.47352  -0.47056
 Alpha  occ. eigenvalues --   -0.46851  -0.46642  -0.46620  -0.46487  -0.46412
 Alpha  occ. eigenvalues --   -0.46213  -0.46205  -0.46015  -0.45874  -0.45750
 Alpha  occ. eigenvalues --   -0.45249  -0.45140  -0.44631  -0.44566  -0.44445
 Alpha  occ. eigenvalues --   -0.44409  -0.44197  -0.44149  -0.44075  -0.44056
 Alpha  occ. eigenvalues --   -0.44016  -0.43877  -0.43549  -0.43486  -0.43443
 Alpha  occ. eigenvalues --   -0.43317  -0.43081  -0.42863  -0.42830  -0.42753
 Alpha  occ. eigenvalues --   -0.42704  -0.42490  -0.42062  -0.41900  -0.41758
 Alpha  occ. eigenvalues --   -0.41598  -0.41597  -0.41393  -0.41196  -0.40930
 Alpha  occ. eigenvalues --   -0.40917  -0.40883  -0.40665  -0.40635  -0.40621
 Alpha  occ. eigenvalues --   -0.40426  -0.40309  -0.40168  -0.39486  -0.39364
 Alpha  occ. eigenvalues --   -0.38520  -0.38284  -0.37819  -0.37592  -0.37372
 Alpha  occ. eigenvalues --   -0.37327  -0.37199  -0.37132  -0.36768  -0.36704
 Alpha  occ. eigenvalues --   -0.36247  -0.36149  -0.34341  -0.34183  -0.33829
 Alpha  occ. eigenvalues --   -0.33794  -0.33241  -0.33106  -0.31399  -0.31218
 Alpha  occ. eigenvalues --   -0.31090  -0.30903  -0.30078  -0.29879  -0.29505
 Alpha  occ. eigenvalues --   -0.29375  -0.29262  -0.29140  -0.24136  -0.23965
 Alpha  occ. eigenvalues --   -0.21182  -0.21047
 Alpha virt. eigenvalues --   -0.08829  -0.08723  -0.01804  -0.01615  -0.00115
 Alpha virt. eigenvalues --    0.00035   0.02149   0.02280   0.03057   0.03290
 Alpha virt. eigenvalues --    0.04656   0.04800   0.05041   0.05235   0.06103

 Mulliken charges:
               1
     1  Mg   0.838599
     2  C   -0.003060
     3  C   -0.094337
     4  C   -0.045806
     5  C   -0.063880
     6  N   -0.256774
     7  C   -0.052529
     8  C   -0.013974
     9  C   -0.086973
    10  C    0.046238
    11  C    0.104804
    12  C    0.053555
    13  C   -0.071641
    14  H    0.035709
    15  N   -0.433144
    16  C    0.168329
    17  C   -0.177301
    18  C   -0.004024
    19  C    0.148670
    20  C    0.110207
    21  C    0.012260
    22  O   -0.249440
    23  C    0.062526
    24  N   -0.341141
    25  C    0.041218
    26  C   -0.028198
    27  C   -0.024015
    28  C    0.074863
    29  C    0.076124
    30  C    0.035101
    31  C   -0.004519
    32  N   -0.310499
    33  C    0.080432
    34  C   -0.169580
    35  C    0.008435
    36  C    0.082967
    37  C    0.127284
    38  C    0.046194
    39  O   -0.188181
    40  C   -0.005351
    41  C    0.212942
    42  O   -0.257253
    43  O   -0.304747
    44  C    0.157670
    45  H   -0.017652
    46  H   -0.016720
    47  H   -0.041327
    48  H    0.001045
    49  H   -0.004239
    50  H    0.025568
    51  H    0.016539
    52  H    0.016656
    53  H    0.010867
    54  H    0.044018
    55  H    0.018113
    56  H    0.017739
    57  H    0.005765
    58  H    0.026921
    59  H    0.039154
    60  H    0.037368
    61  H    0.035778
    62  H    0.031141
    63  H    0.016639
    64  H    0.009575
    65  H    0.023329
    66  H    0.012549
    67  H    0.004845
    68  H    0.006497
    69  H    0.004813
    70  H    0.008864
    71  H    0.018176
    72  H    0.028845
    73  H    0.047752
    74  H    0.009207
    75  H    0.046128
    76  H    0.035245
    77  H    0.043182
    78  H    0.046206
    79  H    0.053652
    80  Mg   0.838042
    81  C   -0.016800
    82  C   -0.087789
    83  C   -0.045499
    84  C   -0.064745
    85  N   -0.254584
    86  C   -0.049609
    87  C   -0.015105
    88  C   -0.090582
    89  C    0.045854
    90  C    0.114385
    91  C    0.062553
    92  C   -0.077756
    93  H    0.034646
    94  N   -0.423490
    95  C    0.162918
    96  C   -0.174723
    97  C   -0.007900
    98  C    0.152114
    99  C    0.099454
   100  C    0.015508
   101  O   -0.253235
   102  C    0.061253
   103  N   -0.350015
   104  C    0.037560
   105  C   -0.019841
   106  C   -0.034838
   107  C    0.088983
   108  C    0.073619
   109  C    0.034745
   110  C   -0.007640
   111  N   -0.324167
   112  C    0.078556
   113  C   -0.162968
   114  C    0.002402
   115  C    0.096222
   116  C    0.131435
   117  C    0.042571
   118  O   -0.187704
   119  C    0.000842
   120  C    0.211206
   121  O   -0.251190
   122  O   -0.305474
   123  C    0.152091
   124  H   -0.019885
   125  H   -0.015645
   126  H   -0.040425
   127  H   -0.000408
   128  H   -0.004703
   129  H    0.023154
   130  H    0.014707
   131  H    0.016052
   132  H    0.013762
   133  H    0.037633
   134  H    0.020888
   135  H    0.019352
   136  H    0.008544
   137  H    0.025859
   138  H    0.039522
   139  H    0.038078
   140  H    0.036236
   141  H    0.033766
   142  H    0.014243
   143  H    0.012571
   144  H    0.024984
   145  H    0.011898
   146  H    0.005759
   147  H    0.006166
   148  H    0.003647
   149  H    0.010853
   150  H    0.017810
   151  H    0.030118
   152  H    0.045920
   153  H    0.008404
   154  H    0.047485
   155  H    0.035583
   156  H    0.043959
   157  H    0.049363
   158  H    0.053444
 Sum of Mulliken charges =  -0.00000

 Dipole moment (field-independent basis, Debye):
    X=             -4.8398    Y=             -1.8373    Z=             -7.2990  Tot=              8.9485
 Quadrupole moment (field-independent basis, Debye-Ang):
   XX=           -529.0680   YY=           -547.6669   ZZ=           -450.0724
   XY=             -8.8374   XZ=              5.2231   YZ=            -50.3472

 Normal termination of Gaussian 16 at Sat Sep 11 19:09:54 2021.
