 Gaussian 16, Revision A.03,
 Gaussian 16:  ES64L-G16RevA.03 25-Dec-2016

 -----------------------------------
 #p cam-b3lyp/Def2SVP td=(nstates=5)
 -----------------------------------

 --------------------------------
 TDDFT excited states in gaussian
 --------------------------------
 Symbolic Z-matrix:
 Charge =  0 Multiplicity = 1

                         Standard orientation:
 ---------------------------------------------------------------------
 Center     Atomic      Atomic             Coordinates (Angstroms)
 Number     Number       Type             X           Y           Z
 ---------------------------------------------------------------------
      1         12           0       -4.096190    0.201713    0.411117
      2          6           0       -3.363661    3.512342    1.558004
      3          6           0       -5.051377    1.599680   -2.551377
      4          6           0       -5.174350   -2.649878   -0.462166
      5          6           0       -4.170009   -0.781016    3.753939
      6          7           0       -4.152715    2.301504   -0.287686
      7          6           0       -3.788488    3.471295    0.228161
      8          6           0       -3.828729    4.639932   -0.801423
      9          6           0       -4.887235    4.034274   -1.828429
     10          6           0       -4.660320    2.555661   -1.567401
     11          6           0       -6.333466    4.377228   -1.485940
     12          6           0       -2.440039    4.878830   -1.484210
     13          6           0       -2.307883    6.196938   -2.252636
     14          1           0       -1.026604    6.886586   -2.244955
     15          7           0       -4.520299   -0.513972   -1.380747
     16          6           0       -4.873258    0.201315   -2.475768
     17          6           0       -5.084376   -0.785555   -3.556599
     18          6           0       -5.010440   -2.144837   -2.952463
     19          6           0       -4.923716   -1.819232   -1.551806
     20          6           0       -5.276778   -0.404741   -4.992466
     21          6           0       -5.027471   -3.519330   -3.542895
     22          8           0       -5.186243   -4.565754   -2.825705
     23          6           0       -4.940946   -3.604339   -5.012021
     24          7           0       -4.818857   -1.434044    1.488005
     25          6           0       -5.165324   -2.568485    0.869952
     26          6           0       -5.379427   -3.681888    1.852007
     27          6           0       -4.868284   -3.132511    3.261501
     28          6           0       -4.504823   -1.688991    2.834401
     29          6           0       -6.823845   -4.181812    1.992522
     30          6           0       -3.797309   -3.975452    3.998306
     31          6           0       -2.497996   -3.943767    3.225079
     32          7           0       -3.648281    1.122557    2.324875
     33          6           0       -3.770866    0.535218    3.592423
     34          6           0       -3.458407    1.580086    4.584738
     35          6           0       -3.190175    2.714407    3.821055
     36          6           0       -3.352041    2.404976    2.440351
     37          6           0       -3.504223    1.427070    5.998570
     38          6           0       -2.828489    4.122285    3.851402
     39          8           0       -2.474947    4.907993    4.731837
     40          6           0       -3.045064    4.726779    2.394176
     41          6           0       -1.815220    5.519080    2.043386
     42          8           0       -0.716691    4.952490    1.871408
     43          8           0       -2.169297    6.775862    1.734080
     44          6           0       -0.998441    7.607740    1.347777
     45          1           0       -5.596061    1.942557   -3.433247
     46          1           0       -5.441716   -3.675892   -0.723410
     47          1           0       -4.090341   -1.035990    4.812284
     48          1           0       -4.196504    5.585198   -0.401876
     49          1           0       -4.638704    4.279319   -2.860857
     50          1           0       -6.406758    4.873999   -0.518589
     51          1           0       -6.861636    3.423760   -1.465245
     52          1           0       -6.793860    4.957493   -2.286007
     53          1           0       -2.316849    4.172380   -2.305071
     54          1           0       -1.633315    4.804690   -0.754123
     55          1           0       -3.114442    6.886719   -2.002489
     56          1           0       -2.448202    5.989372   -3.313497
     57          1           0       -5.449998    0.664952   -5.103354
     58          1           0       -6.207332   -0.866227   -5.322327
     59          1           0       -4.454205   -0.745808   -5.621257
     60          1           0       -5.775980   -3.060182   -5.453790
     61          1           0       -4.876993   -4.665853   -5.248556
     62          1           0       -4.034648   -3.095953   -5.342349
     63          1           0       -4.797568   -4.561314    1.579105
     64          1           0       -5.679671   -3.042976    3.984210
     65          1           0       -6.938535   -5.248864    1.800295
     66          1           0       -7.450563   -3.594141    1.322330
     67          1           0       -7.286676   -3.976745    2.957484
     68          1           0       -4.109832   -5.017439    4.057783
     69          1           0       -3.600818   -3.629688    5.013240
     70          1           0       -2.639987   -4.724233    2.478391
     71          1           0       -1.659165   -4.178967    3.881018
     72          1           0       -2.375065   -3.000977    2.691676
     73          1           0       -2.612206    1.917941    6.387570
     74          1           0       -3.533169    0.375277    6.282289
     75          1           0       -4.434135    1.947177    6.227937
     76          1           0       -3.935214    5.353116    2.443743
     77          1           0       -0.995032    8.480251    2.001189
     78          1           0       -1.081117    7.779715    0.274467
     79          1           0       -0.015803    7.186146    1.562300
     80         12           0        3.564289   -1.632559   -0.589977
     81          6           0        5.885357    1.068544   -0.147545
     82          6           0        1.560809    0.561219   -2.265676
     83          6           0        1.306055   -3.861351   -0.606493
     84          6           0        5.170363   -3.259663    2.040384
     85          7           0        3.802035    0.511312   -1.079388
     86          6           0        4.753474    1.417697   -0.913288
     87          6           0        4.513340    2.749137   -1.674324
     88          6           0        2.914551    2.668316   -1.801722
     89          6           0        2.741468    1.151776   -1.748584
     90          6           0        2.184829    3.274215   -0.614399
     91          6           0        5.201862    2.764314   -3.084187
     92          6           0        5.270557    4.139687   -3.751546
     93          1           0        6.442818    4.463297   -4.559968
     94          7           0        1.944188   -1.810939   -1.722241
     95          6           0        1.272960   -0.819107   -2.344321
     96          6           0        0.144539   -1.466261   -3.031366
     97          6           0        0.109603   -2.898643   -2.629154
     98          6           0        1.128230   -2.907931   -1.598418
     99          6           0       -0.721222   -0.749781   -4.026615
    100          6           0       -0.714304   -4.064091   -3.086427
    101          8           0       -0.742933   -5.166231   -2.432733
    102          6           0       -1.558777   -3.845795   -4.269944
    103          7           0        3.141234   -3.220589    0.683413
    104          6           0        2.133153   -4.069877    0.418070
    105          6           0        2.192052   -5.283530    1.314710
    106          6           0        3.594886   -5.187203    2.076518
    107          6           0        4.086373   -3.828481    1.530886
    108          6           0        1.064527   -5.409181    2.339072
    109          6           0        4.541253   -6.413951    1.966377
    110          6           0        5.035062   -6.558860    0.544914
    111          7           0        5.333271   -1.290360    0.602353
    112          6           0        5.809258   -2.083408    1.669410
    113          6           0        6.977952   -1.385245    2.243124
    114          6           0        7.087713   -0.213857    1.478728
    115          6           0        6.047794   -0.174308    0.510998
    116          6           0        7.744626   -1.825187    3.358825
    117          6           0        7.840442    1.003341    1.277382
    118          8           0        8.879584    1.469187    1.743098
    119          6           0        7.019735    1.948925    0.298246
    120          6           0        7.964967    2.460418   -0.754094
    121          8           0        8.481012    1.679929   -1.573335
    122          8           0        7.934418    3.805556   -0.757556
    123          6           0        8.847612    4.359729   -1.792346
    124          1           0        0.758862    1.216921   -2.606001
    125          1           0        0.618278   -4.709515   -0.639015
    126          1           0        5.784809   -3.749264    2.798948
    127          1           0        4.798316    3.641371   -1.129835
    128          1           0        2.574309    3.057653   -2.757759
    129          1           0        2.864869    3.554042    0.176413
    130          1           0        1.498198    2.511658   -0.270751
    131          1           0        1.564172    4.113306   -0.941576
    132          1           0        4.559107    2.238951   -3.802239
    133          1           0        6.184898    2.338131   -3.032723
    134          1           0        5.054125    4.951309   -3.046304
    135          1           0        4.469286    4.206780   -4.491470
    136          1           0       -0.560437    0.334830   -3.992400
    137          1           0       -1.758766   -0.880967   -3.700800
    138          1           0       -0.615877   -1.146025   -5.038825
    139          1           0       -2.245492   -3.024994   -4.077165
    140          1           0       -2.002615   -4.817401   -4.495472
    141          1           0       -0.919535   -3.532300   -5.102827
    142          1           0        2.170556   -6.196263    0.732001
    143          1           0        3.461775   -5.060749    3.161016
    144          1           0        0.502139   -6.358231    2.254916
    145          1           0        0.401245   -4.562466    2.222165
    146          1           0        1.373302   -5.318902    3.379118
    147          1           0        3.998903   -7.332983    2.201736
    148          1           0        5.394028   -6.363033    2.635082
    149          1           0        4.219228   -7.097839    0.053995
    150          1           0        5.959677   -7.131888    0.517132
    151          1           0        5.124290   -5.580971    0.057664
    152          1           0        8.784369   -1.672004    3.101965
    153          1           0        7.541907   -2.867921    3.594183
    154          1           0        7.369378   -1.149413    4.131982
    155          1           0        6.599647    2.756732    0.898708
    156          1           0        9.529880    5.046346   -1.281719
    157          1           0        8.190409    4.789416   -2.571574
    158          1           0        9.546458    3.677115   -2.261503
 ---------------------------------------------------------------------

 SCF Done:  E(RCAM-B3LYP) =  -4069.81195769     A.U. after   19 cycles

 Excitation energies and oscillator strengths:

 Excited State   1:      Singlet-A      1.6211 eV  764.81 nm  f=0.1382  <S**2>=0.000
     309 -> 315        0.11414
     310 -> 316        0.11264
     311 -> 313        0.48684
     312 -> 314       -0.48146
 This state for optimization and/or second-order correction.
 Total Energy, E(TD-HF/TD-DFT) =  -4069.75238306
 Copying the excited state density for this state as the 1-particle RhoCI density.

 Excited State   2:      Singlet-A      1.7099 eV  725.10 nm  f=0.5853  <S**2>=0.000
     309 -> 315        0.13005
     310 -> 316       -0.12840
     311 -> 313        0.48085
     312 -> 314        0.48562

 Excited State   3:      Singlet-A      2.1258 eV  583.23 nm  f=0.0000  <S**2>=0.000
     312 -> 313        0.70309

 Excited State   4:      Singlet-A      2.1745 eV  570.17 nm  f=0.0007  <S**2>=0.000
     309 -> 313        0.43702
     310 -> 314        0.47511
     311 -> 315       -0.17812
     312 -> 316        0.19250

 Excited State   5:      Singlet-A      2.1955 eV  564.71 nm  f=0.1659  <S**2>=0.000
     309 -> 313        0.46956
     310 -> 314       -0.43085
     311 -> 315       -0.20893
     312 -> 316       -0.18936

 The electronic state is 1-A.
 Alpha  occ. eigenvalues --  -46.88114 -46.87381 -19.26714 -19.26124 -19.19493
 Alpha  occ. eigenvalues --  -19.19062 -19.18929 -19.18510 -19.18406 -19.17784
 Alpha  occ. eigenvalues --  -14.42799 -14.42184 -14.41745 -14.41096 -14.39759
 Alpha  occ. eigenvalues --  -14.39083 -14.38911 -14.38319 -10.39526 -10.38852
 Alpha  occ. eigenvalues --  -10.35679 -10.35102 -10.34733 -10.33958 -10.32101
 Alpha  occ. eigenvalues --  -10.31758 -10.31569 -10.31310 -10.30980 -10.30927
 Alpha  occ. eigenvalues --  -10.30806 -10.30715 -10.30509 -10.30152 -10.30136
 Alpha  occ. eigenvalues --  -10.30099 -10.30002 -10.29890 -10.29648 -10.29607
 Alpha  occ. eigenvalues --  -10.29216 -10.29165 -10.29154 -10.29139 -10.28731
 Alpha  occ. eigenvalues --  -10.28525 -10.28467 -10.28337 -10.28148 -10.28120
 Alpha  occ. eigenvalues --  -10.28076 -10.27981 -10.27887 -10.27755 -10.27730
 Alpha  occ. eigenvalues --  -10.27669 -10.27632 -10.27562 -10.27529 -10.27367
 Alpha  occ. eigenvalues --  -10.27343 -10.27329 -10.27227 -10.27222 -10.27193
 Alpha  occ. eigenvalues --  -10.27190 -10.26762 -10.26627 -10.26578 -10.26429
 Alpha  occ. eigenvalues --  -10.26328 -10.26289 -10.26239 -10.26114 -10.25978
 Alpha  occ. eigenvalues --  -10.25678 -10.25610 -10.25540 -10.25253 -10.25179
 Alpha  occ. eigenvalues --  -10.25110 -10.25046 -10.24716 -10.24598 -10.24572
 Alpha  occ. eigenvalues --  -10.24432  -3.16854  -3.16131  -1.91734  -1.91323
 Alpha  occ. eigenvalues --   -1.91165  -1.91012  -1.90601  -1.90439  -1.17067
 Alpha  occ. eigenvalues --   -1.16416  -1.08969  -1.08394  -1.07428  -1.07092
 Alpha  occ. eigenvalues --   -1.06713  -1.06636  -1.04943  -1.04184  -1.04072
 Alpha  occ. eigenvalues --   -1.03564  -1.03385  -1.02776  -1.02732  -1.01837
 Alpha  occ. eigenvalues --   -0.92324  -0.91699  -0.89764  -0.89614  -0.89263
 Alpha  occ. eigenvalues --   -0.88730  -0.88499  -0.88194  -0.88032  -0.88005
 Alpha  occ. eigenvalues --   -0.87653  -0.87528  -0.87400  -0.86875  -0.85395
 Alpha  occ. eigenvalues --   -0.84655  -0.84139  -0.83679  -0.83294  -0.83024
 Alpha  occ. eigenvalues --   -0.82680  -0.82328  -0.81951  -0.81343  -0.80946
 Alpha  occ. eigenvalues --   -0.80186  -0.79141  -0.78383  -0.77568  -0.77280
 Alpha  occ. eigenvalues --   -0.76865  -0.76596  -0.76288  -0.75460  -0.75130
 Alpha  occ. eigenvalues --   -0.74571  -0.73091  -0.72422  -0.71982  -0.71264
 Alpha  occ. eigenvalues --   -0.70075  -0.69551  -0.69261  -0.68497  -0.67977
 Alpha  occ. eigenvalues --   -0.67662  -0.67353  -0.66946  -0.65696  -0.65190
 Alpha  occ. eigenvalues --   -0.64958  -0.64955  -0.64503  -0.64501  -0.64369
 Alpha  occ. eigenvalues --   -0.63970  -0.62656  -0.62040  -0.60742  -0.60203
 Alpha  occ. eigenvalues --   -0.60145  -0.59437  -0.59301  -0.58825  -0.58728
 Alpha  occ. eigenvalues --   -0.58161  -0.57955  -0.57583  -0.57290  -0.57036
 Alpha  occ. eigenvalues --   -0.56646  -0.56377  -0.55952  -0.55841  -0.55651
 Alpha  occ. eigenvalues --   -0.55604  -0.55275  -0.55029  -0.54809  -0.54333
 Alpha  occ. eigenvalues --   -0.54275  -0.53816  -0.53607  -0.53494  -0.53361
 Alpha  occ. eigenvalues --   -0.53240  -0.52977  -0.52853  -0.52607  -0.52562
 Alpha  occ. eigenvalues --   -0.52266  -0.52217  -0.52141  -0.52002  -0.51631
 Alpha  occ. eigenvalues --   -0.51518  -0.51400  -0.51022  -0.50900  -0.50473
 Alpha  occ. eigenvalues --   -0.50234  -0.50185  -0.49885  -0.49720  -0.49646
 Alpha  occ. eigenvalues --   -0.49457  -0.49356  -0.49063  -0.48934  -0.48883
 Alpha  occ. eigenvalues --   -0.48755  -0.48694  -0.48577  -0.48234  -0.48166
 Alpha  occ. eigenvalues --   -0.48036  -0.48006  -0.47598  -0.47289  -0.47118
 Alpha  occ. eigenvalues --   -0.46953  -0.46862  -0.46661  -0.46455  -0.46434
 Alpha  occ. eigenvalues --   -0.46200  -0.46165  -0.46004  -0.45847  -0.45552
 Alpha  occ. eigenvalues --   -0.45436  -0.44974  -0.44908  -0.44833  -0.44469
 Alpha  occ. eigenvalues --   -0.44414  -0.44343  -0.44259  -0.44133  -0.43869
 Alpha  occ. eigenvalues --   -0.43830  -0.43742  -0.43716  -0.43652  -0.43338
 Alpha  occ. eigenvalues --   -0.43297  -0.43102  -0.43056  -0.42842  -0.42689
 Alpha  occ. eigenvalues --   -0.42622  -0.42336  -0.42275  -0.42035  -0.41895
 Alpha  occ. eigenvalues --   -0.41718  -0.41459  -0.41379  -0.41240  -0.41164
 Alpha  occ. eigenvalues --   -0.41139  -0.40782  -0.40714  -0.40636  -0.40425
 Alpha  occ. eigenvalues --   -0.40382  -0.40205  -0.39929  -0.39577  -0.39214
 Alpha  occ. eigenvalues --   -0.38716  -0.38220  -0.38114  -0.37668  -0.37574
 Alpha  occ. eigenvalues --   -0.37377  -0.37094  -0.37013  -0.36882  -0.36558
 Alpha  occ. eigenvalues --   -0.36492  -0.35953  -0.34612  -0.34205  -0.33969
 Alpha  occ. eigenvalues --   -0.33622  -0.33520  -0.32902  -0.31568  -0.31346
 Alpha  occ. eigenvalues --   -0.30951  -0.30679  -0.30368  -0.29832  -0.29688
 Alpha  occ. eigenvalues --   -0.29660  -0.29050  -0.28936  -0.24402  -0.23757
 Alpha  occ. eigenvalues --   -0.21469  -0.20836
 Alpha virt. eigenvalues --   -0.09129  -0.08516  -0.02080  -0.01421  -0.00448
 Alpha virt. eigenvalues --    0.00275   0.01875   0.02359   0.02562   0.03558
 Alpha virt. eigenvalues --    0.04272   0.04563   0.04986   0.05406   0.05610

 Mulliken charges:
               1
     1  Mg   0.837519
     2  C   -0.004177
     3  C   -0.096764
     4  C   -0.043396
     5  C   -0.063141
     6  N   -0.256864
     7  C   -0.053486
     8  C   -0.013417
     9  C   -0.086085
    10  C    0.044535
    11  C    0.104671
    12  C    0.049718
    13  C   -0.071587
    14  H    0.034063
    15  N   -0.432847
    16  C    0.166538
    17  C   -0.185335
    18  C   -0.006025
    19  C    0.151185
    20  C    0.112143
    21  C    0.006414
    22  O   -0.241237
    23  C    0.067618
    24  N   -0.340871
    25  C    0.039863
    26  C   -0.029339
    27  C   -0.025739
    28  C    0.076214
    29  C    0.075770
    30  C    0.047240
    31  C   -0.023995
    32  N   -0.311039
    33  C    0.081537
    34  C   -0.168695
    35  C    0.008661
    36  C    0.083881
    37  C    0.127134
    38  C    0.046615
    39  O   -0.187207
    40  C   -0.005874
    41  C    0.213162
    42  O   -0.258420
    43  O   -0.304222
    44  C    0.157021
    45  H   -0.017663
    46  H   -0.014145
    47  H   -0.040396
    48  H    0.001929
    49  H   -0.004894
    50  H    0.025964
    51  H    0.017329
    52  H    0.017223
    53  H    0.007255
    54  H    0.045562
    55  H    0.020433
    56  H    0.018176
    57  H    0.005754
    58  H    0.028571
    59  H    0.035095
    60  H    0.036030
    61  H    0.040045
    62  H    0.022617
    63  H    0.021337
    64  H    0.009824
    65  H    0.024747
    66  H    0.012138
    67  H    0.004719
    68  H    0.006484
    69  H    0.002585
    70  H    0.016680
    71  H    0.021836
    72  H    0.031822
    73  H    0.048404
    74  H    0.009953
    75  H    0.046747
    76  H    0.035890
    77  H    0.044743
    78  H    0.045710
    79  H    0.053340
    80  Mg   0.838281
    81  C   -0.016692
    82  C   -0.089736
    83  C   -0.046379
    84  C   -0.065086
    85  N   -0.255039
    86  C   -0.047613
    87  C   -0.015149
    88  C   -0.092302
    89  C    0.048005
    90  C    0.117283
    91  C    0.062865
    92  C   -0.076767
    93  H    0.033138
    94  N   -0.423219
    95  C    0.162469
    96  C   -0.175526
    97  C   -0.007893
    98  C    0.149497
    99  C    0.094753
   100  C    0.021713
   101  O   -0.248658
   102  C    0.040835
   103  N   -0.350017
   104  C    0.036373
   105  C   -0.016949
   106  C   -0.034983
   107  C    0.088994
   108  C    0.067008
   109  C    0.034943
   110  C   -0.007479
   111  N   -0.324165
   112  C    0.078758
   113  C   -0.163273
   114  C    0.002554
   115  C    0.096374
   116  C    0.131371
   117  C    0.042403
   118  O   -0.188445
   119  C    0.000842
   120  C    0.211014
   121  O   -0.251661
   122  O   -0.305183
   123  C    0.152373
   124  H   -0.019129
   125  H   -0.015331
   126  H   -0.041203
   127  H   -0.000360
   128  H   -0.008160
   129  H    0.024926
   130  H    0.021236
   131  H    0.018167
   132  H    0.012821
   133  H    0.036929
   134  H    0.020710
   135  H    0.018176
   136  H    0.005792
   137  H    0.039150
   138  H    0.033964
   139  H    0.043681
   140  H    0.042606
   141  H    0.031119
   142  H    0.013747
   143  H    0.011610
   144  H    0.023932
   145  H    0.017905
   146  H    0.003882
   147  H    0.005393
   148  H    0.003336
   149  H    0.010786
   150  H    0.017408
   151  H    0.030498
   152  H    0.045398
   153  H    0.007805
   154  H    0.047488
   155  H    0.036876
   156  H    0.043479
   157  H    0.049098
   158  H    0.053046
 Sum of Mulliken charges =  -0.00000

 Dipole moment (field-independent basis, Debye):
    X=             -6.7379    Y=              2.0915    Z=             -4.3323  Tot=              8.2790
 Quadrupole moment (field-independent basis, Debye-Ang):
   XX=           -547.4546   YY=           -498.8222   ZZ=           -486.7791
   XY=            -17.2741   XZ=              4.9379   YZ=            -58.6191

 Normal termination of Gaussian 16 at Thu Sep  9 08:34:18 2021.
