 Gaussian 16, Revision A.03,
 Gaussian 16:  ES64L-G16RevA.03 25-Dec-2016

 -----------------------------------
 #p cam-b3lyp/Def2SVP td=(nstates=5)
 -----------------------------------

 --------------------------------
 TDDFT excited states in gaussian
 --------------------------------
 Symbolic Z-matrix:
 Charge =  0 Multiplicity = 1

                         Standard orientation:
 ---------------------------------------------------------------------
 Center     Atomic      Atomic             Coordinates (Angstroms)
 Number     Number       Type             X           Y           Z
 ---------------------------------------------------------------------
      1         12           0       -5.200815    0.667004    0.364700
      2          6           0       -5.540682   -2.416608   -1.420809
      3          6           0       -5.830025   -1.089881    3.221361
      4          6           0       -5.355848    3.435361    1.903786
      5          6           0       -5.726062    2.308228   -2.664518
      6          7           0       -5.615363   -1.477397    0.725726
      7          6           0       -5.658405   -2.565256   -0.037086
      8          6           0       -5.764851   -3.888198    0.778921
      9          6           0       -6.410198   -3.307797    2.116329
     10          6           0       -5.893035   -1.882265    2.036798
     11          6           0       -7.935056   -3.279045    2.094378
     12          6           0       -4.364221   -4.532883    1.051589
     13          6           0       -4.397231   -5.979839    1.552170
     14          1           0       -3.349890   -6.893774    1.121880
     15          7           0       -5.059796    1.070173    2.293539
     16          6           0       -5.340079    0.230454    3.319013
     17          6           0       -5.078958    0.996859    4.556398
     18          6           0       -4.806604    2.408686    4.168246
     19          6           0       -5.092659    2.366274    2.756952
     20          6           0       -5.055913    0.375999    5.919392
     21          6           0       -4.369606    3.608488    4.947758
     22          8           0       -4.416646    4.789847    4.461188
     23          6           0       -3.963024    3.371865    6.344806
     24          7           0       -5.715121    2.598890   -0.236082
     25          6           0       -5.642596    3.628406    0.614695
     26          6           0       -5.780796    4.939202   -0.101303
     27          6           0       -5.720101    4.599820   -1.660433
     28          6           0       -5.634616    3.056626   -1.562880
     29          6           0       -7.059187    5.734063    0.198572
     30          6           0       -4.654079    5.345879   -2.501511
     31          6           0       -3.269591    4.899024   -2.088459
     32          7           0       -5.393891    0.087442   -1.718056
     33          6           0       -5.631061    0.934339   -2.810389
     34          6           0       -5.791728    0.074085   -3.997072
     35          6           0       -5.652433   -1.222785   -3.506594
     36          6           0       -5.445656   -1.176861   -2.098252
     37          6           0       -6.090953    0.519426   -5.314862
     38          6           0       -5.654727   -2.637769   -3.840767
     39          8           0       -5.690882   -3.280713   -4.890914
     40          6           0       -5.704040   -3.472582   -2.485599
     41          6           0       -4.655998   -4.548108   -2.575929
     42          8           0       -3.442295   -4.258525   -2.596740
     43          8           0       -5.230339   -5.745658   -2.384752
     44          6           0       -4.240411   -6.854672   -2.432558
     45          1           0       -6.246561   -1.490928    4.147429
     46          1           0       -5.308270    4.418326    2.377022
     47          1           0       -5.808170    2.753549   -3.657695
     48          1           0       -6.423887   -4.639272    0.343051
     49          1           0       -6.019845   -3.803490    3.004943
     50          1           0       -8.324380   -3.542470    1.111039
     51          1           0       -8.210607   -2.256052    2.351383
     52          1           0       -8.345751   -3.907600    2.884963
     53          1           0       -3.907415   -4.048404    1.914531
     54          1           0       -3.732495   -4.472546    0.164679
     55          1           0       -5.379911   -6.429483    1.407021
     56          1           0       -4.260745   -5.970315    2.633595
     57          1           0       -5.454777   -0.637527    5.904599
     58          1           0       -5.758931    0.935595    6.536098
     59          1           0       -4.063641    0.410690    6.369419
     60          1           0       -4.794437    2.925727    6.890940
     61          1           0       -3.597838    4.328097    6.717778
     62          1           0       -3.157661    2.636915    6.358508
     63          1           0       -4.960817    5.610584    0.150306
     64          1           0       -6.660641    4.823219   -2.164567
     65          1           0       -6.871236    6.740167    0.574251
     66          1           0       -7.656263    5.158051    0.904972
     67          1           0       -7.747163    5.827110   -0.641338
     68          1           0       -4.711855    6.418815   -2.321467
     69          1           0       -4.761069    5.183337   -3.574071
     70          1           0       -3.061775    5.522313   -1.219462
     71          1           0       -2.553294    5.092160   -2.887727
     72          1           0       -3.269624    3.861753   -1.752967
     73          1           0       -5.443793   -0.048565   -5.983099
     74          1           0       -5.923875    1.591356   -5.418079
     75          1           0       -7.145449    0.252650   -5.383601
     76          1           0       -6.709196   -3.885897   -2.408441
     77          1           0       -4.582495   -7.557755   -3.192088
     78          1           0       -4.138073   -7.222911   -1.411611
     79          1           0       -3.251508   -6.601869   -2.816617
     80         12           0        5.352968    0.715909   -0.518314
     81          6           0        5.285781   -2.553395    0.960253
     82          6           0        4.729443    1.971660    2.591178
     83          6           0        4.958945    3.565633   -1.856696
     84          6           0        4.831425   -0.820223   -3.602789
     85          7           0        5.065553   -0.264895    1.443235
     86          6           0        5.123204   -1.508959    1.894141
     87          6           0        5.080144   -1.635204    3.440672
     88          6           0        4.339544   -0.249938    3.774484
     89          6           0        4.761800    0.554936    2.547064
     90          6           0        2.824056   -0.362318    3.773771
     91          6           0        6.513771   -1.687800    4.076243
     92          6           0        6.551144   -2.119620    5.543852
     93          1           0        7.679080   -2.924952    6.003927
     94          7           0        5.396400    2.529635    0.286117
     95          6           0        5.139169    2.856788    1.569893
     96          6           0        5.284388    4.318543    1.649419
     97          6           0        5.486701    4.845435    0.272401
     98          6           0        5.262865    3.643310   -0.505345
     99          6           0        5.304869    5.064568    2.951897
    100          6           0        5.813347    6.208730   -0.257618
    101          8           0        5.707806    6.489812   -1.503687
    102          6           0        6.170433    7.230644    0.737202
    103          7           0        4.743305    1.310788   -2.414829
    104          6           0        4.709040    2.611532   -2.753669
    105          6           0        4.508142    2.782794   -4.240509
    106          6           0        4.657161    1.318369   -4.865665
    107          6           0        4.837760    0.505183   -3.565085
    108          6           0        3.168578    3.383602   -4.665939
    109          6           0        5.703331    1.140471   -5.999931
    110          6           0        7.098897    1.322854   -5.448118
    111          7           0        5.284733   -1.314839   -1.252791
    112          6           0        5.026792   -1.735090   -2.576023
    113          6           0        4.970365   -3.211238   -2.560818
    114          6           0        5.178183   -3.549148   -1.215038
    115          6           0        5.331747   -2.366329   -0.442474
    116          6           0        4.703684   -4.045137   -3.683146
    117          6           0        5.291976   -4.637149   -0.270581
    118          8           0        5.332205   -5.863650   -0.359051
    119          6           0        5.240654   -4.036964    1.200315
    120          6           0        6.361056   -4.652898    1.992664
    121          8           0        7.546462   -4.422274    1.695593
    122          8           0        5.853741   -5.232823    3.095701
    123          6           0        6.927869   -5.848298    3.919882
    124          1           0        4.311609    2.453791    3.475388
    125          1           0        4.921838    4.519901   -2.387226
    126          1           0        4.770480   -1.377273   -4.540156
    127          1           0        4.495658   -2.468273    3.812339
    128          1           0        4.735200    0.201082    4.680798
    129          1           0        2.492074   -1.331250    3.431597
    130          1           0        2.471758    0.415018    3.108426
    131          1           0        2.427278   -0.115281    4.762646
    132          1           0        6.900999   -0.665175    4.171370
    133          1           0        7.163988   -2.315320    3.498258
    134          1           0        5.602905   -2.566682    5.866250
    135          1           0        6.651694   -1.226833    6.165822
    136          1           0        4.968334    4.432404    3.782869
    137          1           0        4.544266    5.849780    2.882636
    138          1           0        6.272641    5.527104    3.157210
    139          1           0        5.351413    7.349762    1.442524
    140          1           0        6.456762    8.112355    0.160578
    141          1           0        7.031678    6.872992    1.312481
    142          1           0        5.271859    3.424446   -4.662559
    143          1           0        3.718637    0.973607   -5.324085
    144          1           0        3.275474    4.300053   -5.276476
    145          1           0        2.586912    3.585103   -3.776233
    146          1           0        2.516437    2.711423   -5.220998
    147          1           0        5.568492    1.910335   -6.763658
    148          1           0        5.641246    0.178568   -6.497816
    149          1           0        7.225587    2.409605   -5.451638
    150          1           0        7.831226    0.838036   -6.090512
    151          1           0        7.157008    0.987583   -4.406060
    152          1           0        5.405262   -4.867246   -3.633883
    153          1           0        4.798302   -3.496189   -4.617737
    154          1           0        3.667845   -4.326428   -3.475371
    155          1           0        4.262662   -4.278118    1.618593
    156          1           0        6.659739   -6.899976    4.060468
    157          1           0        7.003236   -5.221867    4.828532
    158          1           0        7.911749   -5.938588    3.474589
 ---------------------------------------------------------------------

 SCF Done:  E(RCAM-B3LYP) =  -4069.81180392     A.U. after   19 cycles

 Excitation energies and oscillator strengths:

 Excited State   1:      Singlet-A      1.6638 eV  745.17 nm  f=0.1551  <S**2>=0.000
     309 -> 315       -0.11235
     310 -> 316        0.12871
     311 -> 313        0.45027
     312 -> 314        0.51825
 This state for optimization and/or second-order correction.
 Total Energy, E(TD-HF/TD-DFT) =  -4069.75065864
 Copying the excited state density for this state as the 1-particle RhoCI density.

 Excited State   2:      Singlet-A      1.6878 eV  734.57 nm  f=0.5496  <S**2>=0.000
     309 -> 315       -0.13372
     310 -> 316       -0.11628
     311 -> 313        0.51710
     312 -> 314       -0.44945

 Excited State   3:      Singlet-A      2.1850 eV  567.43 nm  f=0.0658  <S**2>=0.000
     309 -> 313       -0.21350
     310 -> 314        0.60637
     312 -> 316       -0.25731

 Excited State   4:      Singlet-A      2.1916 eV  565.74 nm  f=0.1276  <S**2>=0.000
     309 -> 313        0.60440
     310 -> 314        0.21186
     311 -> 315        0.26208

 Excited State   5:      Singlet-A      2.4856 eV  498.80 nm  f=0.0000  <S**2>=0.000
     312 -> 313        0.70709

 The electronic state is 1-A.
 Alpha  occ. eigenvalues --  -46.87875 -46.87501 -19.26291 -19.26272 -19.19081
 Alpha  occ. eigenvalues --  -19.19026 -19.18949 -19.18573 -19.18234 -19.17908
 Alpha  occ. eigenvalues --  -14.42522 -14.42350 -14.41524 -14.41195 -14.39488
 Alpha  occ. eigenvalues --  -14.39195 -14.38664 -14.38434 -10.39089 -10.39007
 Alpha  occ. eigenvalues --  -10.35586 -10.35252 -10.34450 -10.34087 -10.31726
 Alpha  occ. eigenvalues --  -10.31628 -10.31468 -10.31163 -10.30981 -10.30895
 Alpha  occ. eigenvalues --  -10.30644 -10.30589 -10.30291 -10.30229 -10.30195
 Alpha  occ. eigenvalues --  -10.29991 -10.29973 -10.29721 -10.29718 -10.29345
 Alpha  occ. eigenvalues --  -10.29272 -10.29234 -10.28787 -10.28639 -10.28633
 Alpha  occ. eigenvalues --  -10.28513 -10.28445 -10.28254 -10.28164 -10.28058
 Alpha  occ. eigenvalues --  -10.27878 -10.27836 -10.27803 -10.27680 -10.27608
 Alpha  occ. eigenvalues --  -10.27563 -10.27521 -10.27514 -10.27473 -10.27336
 Alpha  occ. eigenvalues --  -10.27330 -10.27324 -10.27305 -10.27206 -10.27203
 Alpha  occ. eigenvalues --  -10.26927 -10.26720 -10.26633 -10.26598 -10.26290
 Alpha  occ. eigenvalues --  -10.26278 -10.26230 -10.26096 -10.25972 -10.25965
 Alpha  occ. eigenvalues --  -10.25922 -10.25755 -10.25597 -10.25498 -10.25228
 Alpha  occ. eigenvalues --  -10.24914 -10.24866 -10.24724 -10.24704 -10.24578
 Alpha  occ. eigenvalues --  -10.24532  -3.16618  -3.16251  -1.91499  -1.91133
 Alpha  occ. eigenvalues --   -1.91086  -1.90928  -1.90722  -1.90558  -1.16625
 Alpha  occ. eigenvalues --   -1.16579  -1.08686  -1.08519  -1.07353  -1.06865
 Alpha  occ. eigenvalues --   -1.06827  -1.06648  -1.04653  -1.04351  -1.03836
 Alpha  occ. eigenvalues --   -1.03506  -1.03315  -1.02873  -1.02489  -1.01949
 Alpha  occ. eigenvalues --   -0.92038  -0.91840  -0.89586  -0.89330  -0.89232
 Alpha  occ. eigenvalues --   -0.89059  -0.88352  -0.88056  -0.87950  -0.87740
 Alpha  occ. eigenvalues --   -0.87608  -0.87535  -0.87388  -0.86969  -0.85034
 Alpha  occ. eigenvalues --   -0.84893  -0.83994  -0.83717  -0.83092  -0.82788
 Alpha  occ. eigenvalues --   -0.82707  -0.82540  -0.81619  -0.81481  -0.80657
 Alpha  occ. eigenvalues --   -0.80313  -0.78895  -0.78475  -0.77282  -0.77016
 Alpha  occ. eigenvalues --   -0.76970  -0.76782  -0.75968  -0.75726  -0.74957
 Alpha  occ. eigenvalues --   -0.74652  -0.72849  -0.72534  -0.71735  -0.71443
 Alpha  occ. eigenvalues --   -0.69963  -0.69596  -0.68934  -0.68714  -0.67719
 Alpha  occ. eigenvalues --   -0.67458  -0.67276  -0.67096  -0.65334  -0.65164
 Alpha  occ. eigenvalues --   -0.64912  -0.64671  -0.64626  -0.64531  -0.64333
 Alpha  occ. eigenvalues --   -0.64045  -0.62323  -0.62168  -0.60542  -0.60185
 Alpha  occ. eigenvalues --   -0.59862  -0.59681  -0.59054  -0.58843  -0.58571
 Alpha  occ. eigenvalues --   -0.58281  -0.57631  -0.57428  -0.57377  -0.57083
 Alpha  occ. eigenvalues --   -0.56391  -0.56052  -0.55996  -0.55790  -0.55609
 Alpha  occ. eigenvalues --   -0.55388  -0.55324  -0.55102  -0.54559  -0.54358
 Alpha  occ. eigenvalues --   -0.53940  -0.53820  -0.53389  -0.53291  -0.53078
 Alpha  occ. eigenvalues --   -0.53022  -0.52971  -0.52848  -0.52787  -0.52544
 Alpha  occ. eigenvalues --   -0.52492  -0.52242  -0.51990  -0.51678  -0.51670
 Alpha  occ. eigenvalues --   -0.51552  -0.51252  -0.51060  -0.50708  -0.50337
 Alpha  occ. eigenvalues --   -0.50099  -0.50019  -0.49860  -0.49710  -0.49588
 Alpha  occ. eigenvalues --   -0.49363  -0.49289  -0.49146  -0.49079  -0.48982
 Alpha  occ. eigenvalues --   -0.48642  -0.48564  -0.48509  -0.48437  -0.48223
 Alpha  occ. eigenvalues --   -0.48201  -0.47764  -0.47467  -0.47374  -0.46974
 Alpha  occ. eigenvalues --   -0.46860  -0.46603  -0.46568  -0.46448  -0.46430
 Alpha  occ. eigenvalues --   -0.46220  -0.46114  -0.45925  -0.45866  -0.45682
 Alpha  occ. eigenvalues --   -0.45267  -0.45056  -0.44641  -0.44588  -0.44403
 Alpha  occ. eigenvalues --   -0.44342  -0.44217  -0.44141  -0.44087  -0.44006
 Alpha  occ. eigenvalues --   -0.43933  -0.43809  -0.43535  -0.43444  -0.43442
 Alpha  occ. eigenvalues --   -0.43259  -0.43091  -0.42828  -0.42758  -0.42745
 Alpha  occ. eigenvalues --   -0.42672  -0.42397  -0.42060  -0.41831  -0.41769
 Alpha  occ. eigenvalues --   -0.41580  -0.41531  -0.41345  -0.41204  -0.40951
 Alpha  occ. eigenvalues --   -0.40904  -0.40862  -0.40628  -0.40608  -0.40585
 Alpha  occ. eigenvalues --   -0.40341  -0.40267  -0.40147  -0.39493  -0.39261
 Alpha  occ. eigenvalues --   -0.38526  -0.38201  -0.37782  -0.37567  -0.37386
 Alpha  occ. eigenvalues --   -0.37312  -0.37112  -0.37072  -0.36736  -0.36679
 Alpha  occ. eigenvalues --   -0.36232  -0.36079  -0.34359  -0.34099  -0.33791
 Alpha  occ. eigenvalues --   -0.33767  -0.33258  -0.33017  -0.31476  -0.31132
 Alpha  occ. eigenvalues --   -0.31109  -0.30823  -0.30090  -0.29815  -0.29546
 Alpha  occ. eigenvalues --   -0.29403  -0.29167  -0.29039  -0.24154  -0.23876
 Alpha  occ. eigenvalues --   -0.21206  -0.20957
 Alpha virt. eigenvalues --   -0.08859  -0.08631  -0.01831  -0.01526  -0.00159
 Alpha virt. eigenvalues --    0.00114   0.02126   0.02369   0.03027   0.03374
 Alpha virt. eigenvalues --    0.04666   0.04859   0.05082   0.05254   0.06169

 Mulliken charges:
               1
     1  Mg   0.838646
     2  C   -0.002830
     3  C   -0.094308
     4  C   -0.046011
     5  C   -0.064008
     6  N   -0.256812
     7  C   -0.052206
     8  C   -0.013987
     9  C   -0.086925
    10  C    0.046268
    11  C    0.104802
    12  C    0.053520
    13  C   -0.072548
    14  H    0.038271
    15  N   -0.433052
    16  C    0.168123
    17  C   -0.177584
    18  C   -0.004522
    19  C    0.148604
    20  C    0.110242
    21  C    0.011584
    22  O   -0.249764
    23  C    0.062906
    24  N   -0.341216
    25  C    0.041297
    26  C   -0.028133
    27  C   -0.024095
    28  C    0.075103
    29  C    0.076138
    30  C    0.035063
    31  C   -0.004449
    32  N   -0.310522
    33  C    0.080634
    34  C   -0.169825
    35  C    0.008465
    36  C    0.083080
    37  C    0.127329
    38  C    0.046134
    39  O   -0.188034
    40  C   -0.005248
    41  C    0.212863
    42  O   -0.256966
    43  O   -0.304916
    44  C    0.157404
    45  H   -0.017595
    46  H   -0.017001
    47  H   -0.041351
    48  H    0.001246
    49  H   -0.004020
    50  H    0.025602
    51  H    0.016302
    52  H    0.016796
    53  H    0.010581
    54  H    0.044556
    55  H    0.017843
    56  H    0.017646
    57  H    0.006115
    58  H    0.026887
    59  H    0.038174
    60  H    0.037834
    61  H    0.034958
    62  H    0.029894
    63  H    0.016491
    64  H    0.009601
    65  H    0.023208
    66  H    0.012501
    67  H    0.004916
    68  H    0.006693
    69  H    0.004709
    70  H    0.008926
    71  H    0.018715
    72  H    0.028610
    73  H    0.047440
    74  H    0.009151
    75  H    0.046307
    76  H    0.035352
    77  H    0.043159
    78  H    0.046850
    79  H    0.054390
    80  Mg   0.838211
    81  C   -0.016864
    82  C   -0.087981
    83  C   -0.045377
    84  C   -0.063047
    85  N   -0.254461
    86  C   -0.049767
    87  C   -0.015039
    88  C   -0.090554
    89  C    0.045691
    90  C    0.114613
    91  C    0.062652
    92  C   -0.077505
    93  H    0.034514
    94  N   -0.423423
    95  C    0.162682
    96  C   -0.174591
    97  C   -0.007964
    98  C    0.152021
    99  C    0.099349
   100  C    0.015433
   101  O   -0.253583
   102  C    0.061231
   103  N   -0.349832
   104  C    0.037598
   105  C   -0.019925
   106  C   -0.035187
   107  C    0.088932
   108  C    0.073509
   109  C    0.034652
   110  C   -0.007581
   111  N   -0.324352
   112  C    0.078555
   113  C   -0.161583
   114  C    0.002458
   115  C    0.096491
   116  C    0.131081
   117  C    0.042914
   118  O   -0.188352
   119  C    0.000707
   120  C    0.211069
   121  O   -0.251082
   122  O   -0.305851
   123  C    0.152161
   124  H   -0.020216
   125  H   -0.015883
   126  H   -0.039382
   127  H   -0.001446
   128  H   -0.004988
   129  H    0.022437
   130  H    0.015349
   131  H    0.014106
   132  H    0.014022
   133  H    0.037733
   134  H    0.019970
   135  H    0.019316
   136  H    0.008288
   137  H    0.026532
   138  H    0.039254
   139  H    0.038449
   140  H    0.035977
   141  H    0.033628
   142  H    0.013966
   143  H    0.014203
   144  H    0.024181
   145  H    0.011630
   146  H    0.006721
   147  H    0.006032
   148  H    0.004169
   149  H    0.010596
   150  H    0.017676
   151  H    0.029960
   152  H    0.045136
   153  H    0.008703
   154  H    0.050303
   155  H    0.034876
   156  H    0.043383
   157  H    0.049109
   158  H    0.053587
 Sum of Mulliken charges =  -0.00000

 Dipole moment (field-independent basis, Debye):
    X=             -3.5111    Y=              1.9401    Z=              6.8822  Tot=              7.9660
 Quadrupole moment (field-independent basis, Debye-Ang):
   XX=           -518.8994   YY=           -529.5818   ZZ=           -469.6358
   XY=             21.2188   XZ=             -2.2044   YZ=            -28.1268

 Normal termination of Gaussian 16 at Fri Sep 10 20:33:22 2021.
