 Gaussian 16, Revision A.03,
 Gaussian 16:  ES64L-G16RevA.03 25-Dec-2016

 -----------------------------------
 #p cam-b3lyp/Def2SVP td=(nstates=5)
 -----------------------------------

 --------------------------------
 TDDFT excited states in gaussian
 --------------------------------
 Symbolic Z-matrix:
 Charge =  0 Multiplicity = 1

                         Standard orientation:
 ---------------------------------------------------------------------
 Center     Atomic      Atomic             Coordinates (Angstroms)
 Number     Number       Type             X           Y           Z
 ---------------------------------------------------------------------
      1         12           0       15.610720   -0.802418    0.243901
      2          6           0       15.867420    2.230288   -1.639982
      3          6           0       16.462337    1.014780    3.003539
      4          6           0       15.834780   -3.533822    1.839473
      5          6           0       15.900153   -2.526259   -2.771105
      6          7           0       16.079053    1.343565    0.519703
      7          6           0       16.083657    2.411364   -0.272101
      8          6           0       16.265151    3.752324    0.500079
      9          6           0       16.994369    3.195300    1.803905
     10          6           0       16.453287    1.776458    1.797389
     11          6           0       18.513418    3.142276    1.676695
     12          6           0       14.896047    4.425302    0.852764
     13          6           0       14.983947    5.883541    1.312291
     14          1           0       13.921794    6.802716    0.932428
     15          7           0       15.599376   -1.155372    2.187646
     16          6           0       15.962244   -0.294938    3.169107
     17          6           0       15.777739   -1.026254    4.441041
     18          6           0       15.459451   -2.442864    4.109373
     19          6           0       15.646674   -2.439933    2.680976
     20          6           0       15.858633   -0.371491    5.785843
     21          6           0       15.061517   -3.616011    4.948125
     22          8           0       15.058108   -4.809666    4.490141
     23          6           0       14.756928   -3.338504    6.363490
     24          7           0       16.055046   -2.756386   -0.341094
     25          6           0       16.027990   -3.763227    0.538977
     26          6           0       16.097681   -5.093373   -0.150800
     27          6           0       15.932797   -4.791868   -1.710178
     28          6           0       15.875647   -3.245585   -1.646811
     29          6           0       17.382820   -5.900358    0.079861
     30          6           0       14.800375   -5.541874   -2.455517
     31          6           0       13.454459   -5.063410   -1.958848
     32          7           0       15.665660   -0.277776   -1.861515
     33          6           0       15.814153   -1.155099   -2.945456
     34          6           0       15.903302   -0.327153   -4.162266
     35          6           0       15.816557    0.983496   -3.696951
     36          6           0       15.708154    0.975748   -2.276923
     37          6           0       16.103469   -0.809650   -5.485733
     38          6           0       15.815004    2.389548   -4.066915
     39          8           0       15.786505    3.005603   -5.133290
     40          6           0       15.970477    3.256852   -2.740476
     41          6           0       14.933626    4.345993   -2.785443
     42          8           0       13.717559    4.074913   -2.714296
     43          8           0       15.536402    5.538830   -2.665677
     44          6           0       14.560954    6.661594   -2.673143
     45          1           0       16.948106    1.432142    3.887722
     46          1           0       15.806849   -4.503886    2.340106
     47          1           0       15.906456   -2.997304   -3.755752
     48          1           0       16.902397    4.482003    0.000169
     49          1           0       16.673990    3.718901    2.704416
     50          1           0       18.836623    3.375133    0.662182
     51          1           0       18.792121    2.121807    1.940251
     52          1           0       18.987027    3.783779    2.420298
     53          1           0       14.494061    3.969549    1.757616
     54          1           0       14.203076    4.352825    0.013798
     55          1           0       15.960184    6.314092    1.087577
     56          1           0       14.923299    5.902972    2.400475
     57          1           0       16.269434    0.635023    5.717166
     58          1           0       16.595265   -0.926495    6.366406
     59          1           0       14.899875   -0.379555    6.304544
     60          1           0       15.630573   -2.891954    6.838765
     61          1           0       14.405555   -4.279389    6.785536
     62          1           0       13.964713   -2.590991    6.414187
     63          1           0       15.288116   -5.745459    0.174492
     64          1           0       16.832608   -5.042319   -2.272572
     65          1           0       17.207733   -6.893785    0.493567
     66          1           0       18.035725   -5.316366    0.727904
     67          1           0       18.009029   -6.024910   -0.803182
     68          1           0       14.855787   -6.610783   -2.252272
     69          1           0       14.834333   -5.407674   -3.536761
     70          1           0       13.299338   -5.661639   -1.061690
     71          1           0       12.681427   -5.265138   -2.701100
     72          1           0       13.492267   -4.018262   -1.651077
     73          1           0       15.419065   -0.248404   -6.121786
     74          1           0       15.914805   -1.881080   -5.549354
     75          1           0       17.154158   -0.561112   -5.634519
     76          1           0       16.984176    3.656255   -2.744123
     77          1           0       14.858758    7.340208   -3.472536
     78          1           0       14.535351    7.056594   -1.657405
     79          1           0       13.544221    6.414769   -2.980829
     80         12           0      -16.137688   -0.511985   -0.220787
     81          6           0      -13.711054    1.886965    0.890776
     82          6           0      -18.547444    1.696477    0.754108
     83          6           0      -18.293336   -2.774528   -0.769857
     84          6           0      -13.630363   -2.925659   -0.038604
     85          7           0      -16.019551    1.499901    0.690613
     86          6           0      -15.042946    2.335463    1.010622
     87          6           0      -15.518618    3.758148    1.409709
     88          6           0      -17.011154    3.390996    1.874895
     89          6           0      -17.228481    2.136506    1.031272
     90          6           0      -17.106253    3.002975    3.341089
     91          6           0      -15.523515    4.749787    0.193711
     92          6           0      -15.678794    6.225457    0.567922
     93          1           0      -14.967567    7.223457   -0.226187
     94          7           0      -18.098407   -0.377925   -0.496773
     95          6           0      -18.918000    0.597458   -0.051615
     96          6           0      -20.268399    0.224128   -0.500187
     97          6           0      -20.203156   -1.134369   -1.104304
     98          6           0      -18.836507   -1.498132   -0.788048
     99          6           0      -21.442506    1.155023   -0.408959
    100          6           0      -21.208760   -1.973102   -1.833343
    101          8           0      -21.008189   -3.218268   -2.061710
    102          6           0      -22.475072   -1.316608   -2.189641
    103          7           0      -16.044265   -2.588479   -0.178762
    104          6           0      -17.112181   -3.335391   -0.509813
    105          6           0      -16.732291   -4.787647   -0.674252
    106          6           0      -15.134300   -4.822370   -0.621269
    107          6           0      -14.858159   -3.330285   -0.333471
    108          6           0      -17.296930   -5.745804    0.374314
    109          6           0      -14.404823   -5.491591   -1.818212
    110          6           0      -14.598274   -4.664120   -3.068514
    111          7           0      -14.007854   -0.517889    0.142327
    112          6           0      -13.155442   -1.642248    0.199531
    113          6           0      -11.816119   -1.153938    0.587081
    114          6           0      -11.988990    0.228575    0.752184
    115          6           0      -13.345196    0.574405    0.505986
    116          6           0      -10.661943   -1.962389    0.788097
    117          6           0      -11.334941    1.472518    1.089117
    118          8           0      -10.172445    1.811596    1.306721
    119          6           0      -12.448617    2.583411    1.317205
    120          6           0      -12.037749    3.815628    0.558706
    121          8           0      -11.981402    3.803671   -0.683587
    122          8           0      -11.990548    4.859526    1.406309
    123          6           0      -11.598207    6.107285    0.698504
    124          1           0      -19.378728    2.215525    1.232047
    125          1           0      -18.971573   -3.579778   -1.061477
    126          1           0      -12.772959   -3.601862   -0.055794
    127          1           0      -14.972586    4.205851    2.231415
    128          1           0      -17.715844    4.168253    1.590925
    129          1           0      -16.132359    2.923689    3.800846
    130          1           0      -17.612577    2.046772    3.360095
    131          1           0      -17.759020    3.700284    3.873994
    132          1           0      -16.445804    4.604224   -0.383298
    133          1           0      -14.644584    4.619967   -0.407333
    134          1           0      -15.515391    6.398602    1.638569
    135          1           0      -16.719163    6.517169    0.404975
    136          1           0      -21.222064    2.019121    0.229911
    137          1           0      -22.235237    0.618621    0.123684
    138          1           0      -21.817396    1.457479   -1.389090
    139          1           0      -22.958515   -0.950498   -1.287026
    140          1           0      -23.027057   -2.048606   -2.782415
    141          1           0      -22.252548   -0.438317   -2.805846
    142          1           0      -17.060390   -5.166900   -1.634257
    143          1           0      -14.767626   -5.383687    0.250686
    144          1           0      -17.891395   -6.570173   -0.062842
    145          1           0      -17.894629   -5.174487    1.072088
    146          1           0      -16.556215   -6.205135    1.026655
    147          1           0      -14.838594   -6.472974   -2.025325
    148          1           0      -13.343090   -5.637809   -1.649916
    149          1           0      -15.576062   -4.992839   -3.433162
    150          1           0      -13.814947   -4.876349   -3.793351
    151          1           0      -14.678139   -3.597973   -2.826423
    152          1           0       -9.835565   -1.448282    0.315576
    153          1           0      -10.798564   -2.959958    0.375818
    154          1           0      -10.618460   -1.972102    1.880468
    155          1           0      -12.514070    2.766157    2.390470
    156          1           0      -10.722975    6.508160    1.219040
    157          1           0      -12.506409    6.738617    0.680320
    158          1           0      -11.218084    6.011984   -0.311878
 ---------------------------------------------------------------------

 SCF Done:  E(RCAM-B3LYP) =  -4069.81174764     A.U. after   19 cycles

 Excitation energies and oscillator strengths:

 Excited State   1:      Singlet-A      1.6756 eV  739.94 nm  f=0.3924  <S**2>=0.000
     309 -> 315        0.17357
     311 -> 313        0.68588
     309 <- 315        0.10461
 This state for optimization and/or second-order correction.
 Total Energy, E(TD-HF/TD-DFT) =  -4069.75017037
 Copying the excited state density for this state as the 1-particle RhoCI density.

 Excited State   2:      Singlet-A      1.6799 eV  738.06 nm  f=0.3895  <S**2>=0.000
     310 -> 316        0.17550
     312 -> 314        0.68554
     310 <- 316        0.10510

 Excited State   3:      Singlet-A      2.1861 eV  567.14 nm  f=0.0944  <S**2>=0.000
     309 -> 313        0.64201
     311 -> 315       -0.27295

 Excited State   4:      Singlet-A      2.1925 eV  565.49 nm  f=0.1056  <S**2>=0.000
     310 -> 314        0.64025
     312 -> 316       -0.27809

 Excited State   5:      Singlet-A      3.0449 eV  407.18 nm  f=0.0000  <S**2>=0.000
     312 -> 313        0.70708

 The electronic state is 1-A.
 Alpha  occ. eigenvalues --  -46.87724 -46.87660 -19.26345 -19.26208 -19.19156
 Alpha  occ. eigenvalues --  -19.18942 -19.18743 -19.18714 -19.18097 -19.18049
 Alpha  occ. eigenvalues --  -14.42498 -14.42378 -14.41378 -14.41359 -14.39352
 Alpha  occ. eigenvalues --  -14.39330 -14.38599 -14.38514 -10.39086 -10.39003
 Alpha  occ. eigenvalues --  -10.35391 -10.35377 -10.34317 -10.34226 -10.31751
 Alpha  occ. eigenvalues --  -10.31602 -10.31333 -10.31309 -10.31023 -10.30836
 Alpha  occ. eigenvalues --  -10.30497 -10.30435 -10.30397 -10.30360 -10.30141
 Alpha  occ. eigenvalues --  -10.30136 -10.29894 -10.29849 -10.29558 -10.29437
 Alpha  occ. eigenvalues --  -10.29400 -10.29183 -10.28719 -10.28676 -10.28653
 Alpha  occ. eigenvalues --  -10.28461 -10.28404 -10.28292 -10.28141 -10.28045
 Alpha  occ. eigenvalues --  -10.28000 -10.27721 -10.27669 -10.27655 -10.27518
 Alpha  occ. eigenvalues --  -10.27512 -10.27483 -10.27468 -10.27464 -10.27431
 Alpha  occ. eigenvalues --  -10.27410 -10.27381 -10.27376 -10.27331 -10.27085
 Alpha  occ. eigenvalues --  -10.27049 -10.26691 -10.26627 -10.26415 -10.26338
 Alpha  occ. eigenvalues --  -10.26167 -10.26135 -10.26112 -10.26029 -10.25948
 Alpha  occ. eigenvalues --  -10.25934 -10.25847 -10.25773 -10.25400 -10.25371
 Alpha  occ. eigenvalues --  -10.24872 -10.24761 -10.24726 -10.24716 -10.24690
 Alpha  occ. eigenvalues --  -10.24611  -3.16466  -3.16410  -1.91348  -1.91292
 Alpha  occ. eigenvalues --   -1.90935  -1.90881  -1.90777  -1.90718  -1.16639
 Alpha  occ. eigenvalues --   -1.16556  -1.08656  -1.08555  -1.07145  -1.06967
 Alpha  occ. eigenvalues --   -1.06941  -1.06565  -1.04509  -1.04495  -1.03689
 Alpha  occ. eigenvalues --   -1.03663  -1.03162  -1.03038  -1.02339  -1.02111
 Alpha  occ. eigenvalues --   -0.91986  -0.91900  -0.89494  -0.89448  -0.89152
 Alpha  occ. eigenvalues --   -0.89115  -0.88220  -0.88216  -0.87799  -0.87792
 Alpha  occ. eigenvalues --   -0.87684  -0.87601  -0.87202  -0.87120  -0.85000
 Alpha  occ. eigenvalues --   -0.84909  -0.83875  -0.83865  -0.82931  -0.82895
 Alpha  occ. eigenvalues --   -0.82652  -0.82576  -0.81594  -0.81512  -0.80523
 Alpha  occ. eigenvalues --   -0.80441  -0.78725  -0.78635  -0.77146  -0.77144
 Alpha  occ. eigenvalues --   -0.76897  -0.76861  -0.75851  -0.75838  -0.74828
 Alpha  occ. eigenvalues --   -0.74803  -0.72703  -0.72698  -0.71601  -0.71581
 Alpha  occ. eigenvalues --   -0.69835  -0.69756  -0.68827  -0.68800  -0.67601
 Alpha  occ. eigenvalues --   -0.67569  -0.67199  -0.67146  -0.65271  -0.65213
 Alpha  occ. eigenvalues --   -0.64781  -0.64769  -0.64653  -0.64548  -0.64203
 Alpha  occ. eigenvalues --   -0.64198  -0.62276  -0.62223  -0.60370  -0.60339
 Alpha  occ. eigenvalues --   -0.59797  -0.59732  -0.58992  -0.58915  -0.58431
 Alpha  occ. eigenvalues --   -0.58425  -0.57552  -0.57511  -0.57237  -0.57236
 Alpha  occ. eigenvalues --   -0.56238  -0.56203  -0.55904  -0.55884  -0.55451
 Alpha  occ. eigenvalues --   -0.55448  -0.55267  -0.55246  -0.54486  -0.54450
 Alpha  occ. eigenvalues --   -0.53913  -0.53822  -0.53227  -0.53227  -0.53149
 Alpha  occ. eigenvalues --   -0.53141  -0.52901  -0.52841  -0.52684  -0.52668
 Alpha  occ. eigenvalues --   -0.52399  -0.52366  -0.51883  -0.51843  -0.51658
 Alpha  occ. eigenvalues --   -0.51543  -0.51200  -0.51123  -0.50500  -0.50475
 Alpha  occ. eigenvalues --   -0.49980  -0.49961  -0.49867  -0.49847  -0.49487
 Alpha  occ. eigenvalues --   -0.49442  -0.49202  -0.49142  -0.49104  -0.49024
 Alpha  occ. eigenvalues --   -0.48557  -0.48521  -0.48391  -0.48375  -0.48373
 Alpha  occ. eigenvalues --   -0.48338  -0.47623  -0.47594  -0.47226  -0.47118
 Alpha  occ. eigenvalues --   -0.46725  -0.46708  -0.46554  -0.46482  -0.46287
 Alpha  occ. eigenvalues --   -0.46270  -0.46091  -0.46085  -0.45820  -0.45749
 Alpha  occ. eigenvalues --   -0.45209  -0.45131  -0.44513  -0.44505  -0.44476
 Alpha  occ. eigenvalues --   -0.44434  -0.44127  -0.44077  -0.44072  -0.44016
 Alpha  occ. eigenvalues --   -0.43947  -0.43938  -0.43551  -0.43421  -0.43385
 Alpha  occ. eigenvalues --   -0.43314  -0.42955  -0.42928  -0.42900  -0.42625
 Alpha  occ. eigenvalues --   -0.42581  -0.42553  -0.41963  -0.41937  -0.41668
 Alpha  occ. eigenvalues --   -0.41632  -0.41461  -0.41458  -0.41070  -0.40990
 Alpha  occ. eigenvalues --   -0.40796  -0.40751  -0.40722  -0.40698  -0.40500
 Alpha  occ. eigenvalues --   -0.40493  -0.40226  -0.40159  -0.39424  -0.39369
 Alpha  occ. eigenvalues --   -0.38398  -0.38350  -0.37673  -0.37653  -0.37265
 Alpha  occ. eigenvalues --   -0.37249  -0.37199  -0.37190  -0.36768  -0.36638
 Alpha  occ. eigenvalues --   -0.36216  -0.36119  -0.34253  -0.34214  -0.33858
 Alpha  occ. eigenvalues --   -0.33693  -0.33175  -0.33114  -0.31273  -0.31273
 Alpha  occ. eigenvalues --   -0.30973  -0.30963  -0.29956  -0.29953  -0.29377
 Alpha  occ. eigenvalues --   -0.29327  -0.29249  -0.29211  -0.24036  -0.24008
 Alpha  occ. eigenvalues --   -0.21117  -0.21056
 Alpha virt. eigenvalues --   -0.08791  -0.08702  -0.01684  -0.01678  -0.00028
 Alpha virt. eigenvalues --    0.00014   0.02208   0.02272   0.03200   0.03230
 Alpha virt. eigenvalues --    0.04730   0.04791   0.05169   0.05174   0.06184

 Mulliken charges:
               1
     1  Mg   0.838823
     2  C   -0.002920
     3  C   -0.094068
     4  C   -0.045878
     5  C   -0.063975
     6  N   -0.256756
     7  C   -0.052474
     8  C   -0.014009
     9  C   -0.087005
    10  C    0.046321
    11  C    0.104833
    12  C    0.053464
    13  C   -0.071837
    14  H    0.036263
    15  N   -0.433122
    16  C    0.168439
    17  C   -0.177160
    18  C   -0.004002
    19  C    0.148737
    20  C    0.110199
    21  C    0.012321
    22  O   -0.249661
    23  C    0.062452
    24  N   -0.341136
    25  C    0.041230
    26  C   -0.028137
    27  C   -0.023987
    28  C    0.074864
    29  C    0.076198
    30  C    0.035136
    31  C   -0.004508
    32  N   -0.310466
    33  C    0.080428
    34  C   -0.169700
    35  C    0.008355
    36  C    0.083025
    37  C    0.127298
    38  C    0.046141
    39  O   -0.188451
    40  C   -0.005364
    41  C    0.212866
    42  O   -0.256968
    43  O   -0.304854
    44  C    0.157668
    45  H   -0.017658
    46  H   -0.016875
    47  H   -0.041523
    48  H    0.000888
    49  H   -0.004018
    50  H    0.025430
    51  H    0.016401
    52  H    0.016594
    53  H    0.011278
    54  H    0.044214
    55  H    0.017774
    56  H    0.017949
    57  H    0.005853
    58  H    0.026741
    59  H    0.039629
    60  H    0.037277
    61  H    0.035632
    62  H    0.031611
    63  H    0.016577
    64  H    0.009381
    65  H    0.023163
    66  H    0.012500
    67  H    0.004681
    68  H    0.006299
    69  H    0.004706
    70  H    0.008790
    71  H    0.018220
    72  H    0.029056
    73  H    0.047616
    74  H    0.009103
    75  H    0.045922
    76  H    0.035074
    77  H    0.042889
    78  H    0.046399
    79  H    0.053806
    80  Mg   0.837909
    81  C   -0.016841
    82  C   -0.087785
    83  C   -0.045530
    84  C   -0.064903
    85  N   -0.254562
    86  C   -0.049811
    87  C   -0.015107
    88  C   -0.090497
    89  C    0.045739
    90  C    0.114386
    91  C    0.062529
    92  C   -0.077913
    93  H    0.034967
    94  N   -0.423488
    95  C    0.162901
    96  C   -0.174632
    97  C   -0.007811
    98  C    0.152124
    99  C    0.099363
   100  C    0.015582
   101  O   -0.253178
   102  C    0.061184
   103  N   -0.350088
   104  C    0.037508
   105  C   -0.019820
   106  C   -0.034825
   107  C    0.088949
   108  C    0.073662
   109  C    0.034718
   110  C   -0.007682
   111  N   -0.324114
   112  C    0.078455
   113  C   -0.163093
   114  C    0.002253
   115  C    0.096220
   116  C    0.131480
   117  C    0.042417
   118  O   -0.187788
   119  C    0.000894
   120  C    0.211285
   121  O   -0.250951
   122  O   -0.305673
   123  C    0.152004
   124  H   -0.019685
   125  H   -0.015571
   126  H   -0.040413
   127  H   -0.000661
   128  H   -0.004317
   129  H    0.022433
   130  H    0.014406
   131  H    0.016258
   132  H    0.013936
   133  H    0.037723
   134  H    0.020749
   135  H    0.019585
   136  H    0.008755
   137  H    0.026124
   138  H    0.039819
   139  H    0.038237
   140  H    0.036410
   141  H    0.033923
   142  H    0.014424
   143  H    0.012405
   144  H    0.025145
   145  H    0.011604
   146  H    0.005656
   147  H    0.006268
   148  H    0.003693
   149  H    0.010929
   150  H    0.018012
   151  H    0.030104
   152  H    0.046119
   153  H    0.008555
   154  H    0.046902
   155  H    0.034981
   156  H    0.043922
   157  H    0.049468
   158  H    0.053666
 Sum of Mulliken charges =  -0.00000

 Dipole moment (field-independent basis, Debye):
    X=             -1.9547    Y=              2.0280    Z=              5.7735  Tot=              6.4239
 Quadrupole moment (field-independent basis, Debye-Ang):
   XX=           -344.5222   YY=           -473.4508   ZZ=           -514.6281
   XY=            -36.5520   XZ=             31.0223   YZ=             38.3692

 Normal termination of Gaussian 16 at Sun Sep 12 16:04:16 2021.
