 Gaussian 16, Revision A.03,
 Gaussian 16:  ES64L-G16RevA.03 25-Dec-2016

 -----------------------------------
 #p cam-b3lyp/Def2SVP td=(nstates=5)
 -----------------------------------

 --------------------------------
 TDDFT excited states in gaussian
 --------------------------------
 Symbolic Z-matrix:
 Charge =  0 Multiplicity = 1

                         Standard orientation:
 ---------------------------------------------------------------------
 Center     Atomic      Atomic             Coordinates (Angstroms)
 Number     Number       Type             X           Y           Z
 ---------------------------------------------------------------------
      1         12           0       -7.851426    0.701080    0.276195
      2          6           0       -8.129729   -2.432474   -1.431319
      3          6           0       -8.599190   -0.970736    3.155248
      4          6           0       -8.058826    3.513326    1.727013
      5          6           0       -8.250706    2.254552   -2.817825
      6          7           0       -8.286721   -1.431090    0.682419
      7          6           0       -8.302823   -2.540585   -0.049655
      8          6           0       -8.445768   -3.839023    0.799461
      9          6           0       -9.141938   -3.218695    2.092728
     10          6           0       -8.617553   -1.797107    1.992576
     11          6           0      -10.664622   -3.187573    2.009250
     12          6           0       -7.059112   -4.478279    1.146255
     13          6           0       -7.116531   -5.909998    1.686847
     14          1           0       -6.055788   -6.838133    1.325270
     15          7           0       -7.785919    1.159892    2.196624
     16          6           0       -8.109373    0.350907    3.234028
     17          6           0       -7.895237    1.152454    4.458099
     18          6           0       -7.603242    2.551853    4.040349
     19          6           0       -7.833109    2.468984    2.620606
     20          6           0       -7.928333    0.571451    5.838349
     21          6           0       -7.193811    3.772950    4.801547
     22          8           0       -7.217768    4.939750    4.279459
     23          6           0       -6.843823    3.576250    6.219947
     24          7           0       -8.335385    2.615692   -0.400324
     25          6           0       -8.293502    3.669369    0.422474
     26          6           0       -8.399022    4.959060   -0.336145
     27          6           0       -8.277470    4.574359   -1.881132
     28          6           0       -8.200771    3.034489   -1.735571
     29          6           0       -9.685822    5.764837   -0.110576
     30          6           0       -7.176526    5.293529   -2.700360
     31          6           0       -5.810958    4.856133   -2.219728
     32          7           0       -7.963385    0.061577   -1.794927
     33          6           0       -8.154293    0.876817   -2.919921
     34          6           0       -8.270365   -0.017263   -4.086633
     35          6           0       -8.154744   -1.299595   -3.553619
     36          6           0       -8.003963   -1.213144   -2.140084
     37          6           0       -8.515577    0.390157   -5.427645
     38          6           0       -8.148193   -2.723691   -3.846473
     39          8           0       -8.144596   -3.396830   -4.878153
     40          6           0       -8.253948   -3.518642   -2.470720
     41          6           0       -7.206523   -4.598414   -2.488038
     42          8           0       -5.992050   -4.311964   -2.468885
     43          8           0       -7.791763   -5.788757   -2.285259
     44          6           0       -6.804201   -6.900651   -2.261448
     45          1           0       -9.053461   -1.343855    4.075227
     46          1           0       -8.027010    4.509543    2.173084
     47          1           0       -8.291877    2.670964   -3.825972
     48          1           0       -9.089312   -4.601148    0.359642
     49          1           0       -8.788770   -3.689110    3.010173
     50          1           0      -11.015377   -3.478711    1.019235
     51          1           0      -10.946959   -2.156995    2.225324
     52          1           0      -11.108385   -3.792055    2.800736
     53          1           0       -6.635448   -3.969816    2.012301
     54          1           0       -6.392448   -4.445013    0.283829
     55          1           0       -8.094072   -6.361725    1.515774
     56          1           0       -7.023107   -5.869298    2.772119
     57          1           0       -8.329470   -0.441284    5.837063
     58          1           0       -8.653548    1.150137    6.410096
     59          1           0       -6.954627    0.617248    6.326338
     60          1           0       -7.697681    3.147831    6.745240
     61          1           0       -6.490752    4.542199    6.579298
     62          1           0       -6.041950    2.840415    6.287001
     63          1           0       -7.587589    5.635848   -0.071646
     64          1           0       -9.196524    4.784866   -2.428581
     65          1           0       -9.509796    6.781066    0.242975
     66          1           0      -10.312307    5.210796    0.587883
     67          1           0      -10.339576    5.834781   -0.979558
     68          1           0       -7.238046    6.371360   -2.553928
     69          1           0       -7.241309    5.100076   -3.771168
     70          1           0       -5.635891    5.504017   -1.361573
     71          1           0       -5.062856    5.024524   -2.995099
     72          1           0       -5.827579    3.829060   -1.854584
     73          1           0       -7.844154   -0.198308   -6.052840
     74          1           0       -8.341167    1.458299   -5.555148
     75          1           0       -9.567340    0.123586   -5.530559
     76          1           0       -9.262669   -3.927546   -2.421704
     77          1           0       -7.118030   -7.624846   -3.013304
     78          1           0       -6.743679   -7.239246   -1.226994
     79          1           0       -5.800027   -6.661085   -2.612988
     80         12           0        8.015757    0.703523   -0.422066
     81          6           0        7.870376   -2.613788    0.939300
     82          6           0        7.276624    1.856879    2.701716
     83          6           0        7.692217    3.600098   -1.676115
     84          6           0        7.608075   -0.722525   -3.575776
     85          7           0        7.644759   -0.341562    1.491677
     86          6           0        7.677035   -1.600689    1.901418
     87          6           0        7.571775   -1.779350    3.439789
     88          6           0        6.826774   -0.400910    3.791545
     89          6           0        7.302262    0.442296    2.610197
     90          6           0        5.311860   -0.502114    3.727072
     91          6           0        8.978673   -1.864108    4.129328
     92          6           0        8.955112   -2.346062    5.581537
     93          1           0       10.059054   -3.174870    6.057837
     94          7           0        8.037974    2.488347    0.445386
     95          6           0        7.731876    2.773341    1.728493
     96          6           0        7.882533    4.230434    1.863942
     97          6           0        8.142553    4.802545    0.514951
     98          6           0        7.942642    3.629346   -0.311934
     99          6           0        7.855670    4.931370    3.191124
    100          6           0        8.498120    6.180724    0.045483
    101          8           0        8.443862    6.504960   -1.193374
    102          6           0        8.821463    7.165431    1.088210
    103          7           0        7.485500    1.367267   -2.319600
    104          6           0        7.472486    2.679042   -2.614567
    105          6           0        7.331864    2.902440   -4.101413
    106          6           0        7.496881    1.459163   -4.770219
    107          6           0        7.620792    0.600737   -3.492272
    108          6           0        6.013875    3.527205   -4.558526
    109          6           0        8.586225    1.312450   -5.867697
    110          6           0        9.959825    1.465666   -5.255216
    111          7           0        7.964665   -1.300403   -1.228116
    112          6           0        7.757018   -1.673324   -2.574190
    113          6           0        7.691242   -3.148684   -2.612034
    114          6           0        7.843387   -3.533865   -1.271520
    115          6           0        7.973161   -2.379273   -0.453243
    116          6           0        7.464412   -3.941788   -3.772049
    117          6           0        7.913064   -4.654286   -0.361300
    118          8           0        7.949471   -5.877307   -0.490268
    119          6           0        7.806897   -4.104316    1.126199
    120          6           0        8.891235   -4.755131    1.940538
    121          8           0       10.088866   -4.523179    1.698657
    122          8           0        8.337040   -5.368652    3.002052
    123          6           0        9.373870   -6.019764    3.846370
    124          1           0        6.826847    2.311592    3.584798
    125          1           0        7.681910    4.572177   -2.174556
    126          1           0        7.581109   -1.246784   -4.533437
    127          1           0        6.968028   -2.620339    3.759178
    128          1           0        7.188768    0.015979    4.727772
    129          1           0        4.987982   -1.456344    3.338910
    130          1           0        4.990920    0.300046    3.075463
    131          1           0        4.877573   -0.286098    4.707409
    132          1           0        9.367907   -0.848200    4.274813
    133          1           0        9.647598   -2.476272    3.556244
    134          1           0        7.992165   -2.796921    5.850645
    135          1           0        9.036187   -1.475794    6.237342
    136          1           0        7.482617    4.273680    3.985902
    137          1           0        7.103119    5.724040    3.118924
    138          1           0        8.817254    5.379536    3.450317
    139          1           0        7.975780    7.266385    1.764290
    140          1           0        9.135728    8.064197    0.554042
    141          1           0        9.657022    6.782048    1.684431
    142          1           0        8.115560    3.552525   -4.470619
    143          1           0        6.575284    1.137130   -5.276961
    144          1           0        6.150408    4.463177   -5.132459
    145          1           0        5.398512    3.702457   -3.686083
    146          1           0        5.380310    2.879169   -5.161719
    147          1           0        8.486439    2.108916   -6.609211
    148          1           0        8.538258    0.368602   -6.400458
    149          1           0       10.093024    2.550950   -5.216326
    150          1           0       10.714205    0.997719   -5.884477
    151          1           0        9.974473    1.094602   -4.223838
    152          1           0        8.158573   -4.770214   -3.723424
    153          1           0        7.599373   -3.361948   -4.682732
    154          1           0        6.419477   -4.222426   -3.615177
    155          1           0        6.811633   -4.352453    1.496955
    156          1           0        9.094099   -7.073641    3.939983
    157          1           0        9.416792   -5.425299    4.778316
    158          1           0       10.374112   -6.101997    3.437473
 ---------------------------------------------------------------------

 SCF Done:  E(RCAM-B3LYP) =  -4069.81174673     A.U. after   19 cycles

 Excitation energies and oscillator strengths:

 Excited State   1:      Singlet-A      1.6722 eV  741.44 nm  f=0.1660  <S**2>=0.000
     310 -> 316        0.14453
     311 -> 313       -0.37585
     312 -> 314        0.57410
 This state for optimization and/or second-order correction.
 Total Energy, E(TD-HF/TD-DFT) =  -4069.75029443
 Copying the excited state density for this state as the 1-particle RhoCI density.

 Excited State   2:      Singlet-A      1.6825 eV  736.88 nm  f=0.5851  <S**2>=0.000
     309 -> 315        0.14732
     311 -> 313        0.57351
     312 -> 314        0.37558

 Excited State   3:      Singlet-A      2.1858 eV  567.22 nm  f=0.0849  <S**2>=0.000
     310 -> 314        0.63678
     312 -> 316       -0.27061

 Excited State   4:      Singlet-A      2.1922 eV  565.57 nm  f=0.1127  <S**2>=0.000
     309 -> 313        0.63498
     311 -> 315       -0.27560

 Excited State   5:      Singlet-A      2.7656 eV  448.31 nm  f=0.0000  <S**2>=0.000
     312 -> 313        0.70710

 The electronic state is 1-A.
 Alpha  occ. eigenvalues --  -46.87834 -46.87591 -19.26315 -19.26285 -19.19119
 Alpha  occ. eigenvalues --  -19.19027 -19.18871 -19.18653 -19.18196 -19.17987
 Alpha  occ. eigenvalues --  -14.42485 -14.42432 -14.41486 -14.41288 -14.39442
 Alpha  occ. eigenvalues --  -14.39284 -14.38623 -14.38530 -10.39088 -10.39047
 Alpha  occ. eigenvalues --  -10.35506 -10.35331 -10.34415 -10.34165 -10.31733
 Alpha  occ. eigenvalues --  -10.31667 -10.31436 -10.31245 -10.30964 -10.30944
 Alpha  occ. eigenvalues --  -10.30604 -10.30545 -10.30327 -10.30292 -10.30247
 Alpha  occ. eigenvalues --  -10.30068 -10.29956 -10.29819 -10.29670 -10.29367
 Alpha  occ. eigenvalues --  -10.29332 -10.29295 -10.28773 -10.28674 -10.28635
 Alpha  occ. eigenvalues --  -10.28545 -10.28401 -10.28339 -10.28143 -10.28092
 Alpha  occ. eigenvalues --  -10.27932 -10.27830 -10.27763 -10.27626 -10.27604
 Alpha  occ. eigenvalues --  -10.27537 -10.27534 -10.27486 -10.27437 -10.27434
 Alpha  occ. eigenvalues --  -10.27418 -10.27410 -10.27399 -10.27295 -10.27180
 Alpha  occ. eigenvalues --  -10.26993 -10.26723 -10.26658 -10.26484 -10.26362
 Alpha  occ. eigenvalues --  -10.26258 -10.26220 -10.26059 -10.26056 -10.25977
 Alpha  occ. eigenvalues --  -10.25874 -10.25860 -10.25759 -10.25470 -10.25305
 Alpha  occ. eigenvalues --  -10.24868 -10.24825 -10.24803 -10.24726 -10.24661
 Alpha  occ. eigenvalues --  -10.24620  -3.16577  -3.16341  -1.91459  -1.91224
 Alpha  occ. eigenvalues --   -1.91045  -1.90887  -1.90812  -1.90649  -1.16635
 Alpha  occ. eigenvalues --   -1.16607  -1.08652  -1.08596  -1.07273  -1.06905
 Alpha  occ. eigenvalues --   -1.06903  -1.06649  -1.04616  -1.04431  -1.03797
 Alpha  occ. eigenvalues --   -1.03595  -1.03271  -1.02968  -1.02448  -1.02041
 Alpha  occ. eigenvalues --   -0.92003  -0.91922  -0.89556  -0.89422  -0.89214
 Alpha  occ. eigenvalues --   -0.89101  -0.88323  -0.88145  -0.87904  -0.87719
 Alpha  occ. eigenvalues --   -0.87707  -0.87620  -0.87322  -0.87057  -0.85011
 Alpha  occ. eigenvalues --   -0.84947  -0.83971  -0.83803  -0.83020  -0.82869
 Alpha  occ. eigenvalues --   -0.82680  -0.82598  -0.81605  -0.81543  -0.80627
 Alpha  occ. eigenvalues --   -0.80385  -0.78840  -0.78569  -0.77252  -0.77084
 Alpha  occ. eigenvalues --   -0.76957  -0.76842  -0.75948  -0.75784  -0.74931
 Alpha  occ. eigenvalues --   -0.74731  -0.72809  -0.72629  -0.71704  -0.71515
 Alpha  occ. eigenvalues --   -0.69943  -0.69683  -0.68904  -0.68773  -0.67677
 Alpha  occ. eigenvalues --   -0.67538  -0.67251  -0.67151  -0.65313  -0.65219
 Alpha  occ. eigenvalues --   -0.64883  -0.64706  -0.64649  -0.64597  -0.64304
 Alpha  occ. eigenvalues --   -0.64132  -0.62314  -0.62226  -0.60487  -0.60273
 Alpha  occ. eigenvalues --   -0.59834  -0.59741  -0.59020  -0.58926  -0.58536
 Alpha  occ. eigenvalues --   -0.58361  -0.57607  -0.57497  -0.57343  -0.57169
 Alpha  occ. eigenvalues --   -0.56346  -0.56139  -0.55992  -0.55839  -0.55560
 Alpha  occ. eigenvalues --   -0.55395  -0.55368  -0.55180  -0.54546  -0.54426
 Alpha  occ. eigenvalues --   -0.53921  -0.53863  -0.53338  -0.53256  -0.53162
 Alpha  occ. eigenvalues --   -0.53086  -0.52942  -0.52848  -0.52799  -0.52613
 Alpha  occ. eigenvalues --   -0.52474  -0.52329  -0.51946  -0.51803  -0.51648
 Alpha  occ. eigenvalues --   -0.51608  -0.51225  -0.51138  -0.50629  -0.50416
 Alpha  occ. eigenvalues --   -0.50069  -0.49962  -0.49922  -0.49795  -0.49550
 Alpha  occ. eigenvalues --   -0.49431  -0.49248  -0.49144  -0.49122  -0.49047
 Alpha  occ. eigenvalues --   -0.48618  -0.48504  -0.48501  -0.48480  -0.48303
 Alpha  occ. eigenvalues --   -0.48279  -0.47729  -0.47536  -0.47333  -0.47054
 Alpha  occ. eigenvalues --   -0.46830  -0.46644  -0.46582  -0.46502  -0.46394
 Alpha  occ. eigenvalues --   -0.46203  -0.46192  -0.46015  -0.45844  -0.45760
 Alpha  occ. eigenvalues --   -0.45237  -0.45135  -0.44606  -0.44547  -0.44456
 Alpha  occ. eigenvalues --   -0.44418  -0.44181  -0.44117  -0.44069  -0.44052
 Alpha  occ. eigenvalues --   -0.44013  -0.43882  -0.43516  -0.43500  -0.43417
 Alpha  occ. eigenvalues --   -0.43326  -0.43058  -0.42881  -0.42838  -0.42723
 Alpha  occ. eigenvalues --   -0.42675  -0.42483  -0.42040  -0.41902  -0.41735
 Alpha  occ. eigenvalues --   -0.41606  -0.41561  -0.41404  -0.41173  -0.40927
 Alpha  occ. eigenvalues --   -0.40901  -0.40870  -0.40668  -0.40643  -0.40604
 Alpha  occ. eigenvalues --   -0.40423  -0.40258  -0.40186  -0.39478  -0.39351
 Alpha  occ. eigenvalues --   -0.38503  -0.38279  -0.37771  -0.37609  -0.37355
 Alpha  occ. eigenvalues --   -0.37292  -0.37197  -0.37142  -0.36729  -0.36724
 Alpha  occ. eigenvalues --   -0.36217  -0.36153  -0.34321  -0.34186  -0.33815
 Alpha  occ. eigenvalues --   -0.33783  -0.33220  -0.33108  -0.31400  -0.31211
 Alpha  occ. eigenvalues --   -0.31071  -0.30907  -0.30054  -0.29892  -0.29491
 Alpha  occ. eigenvalues --   -0.29358  -0.29260  -0.29141  -0.24116  -0.23967
 Alpha  occ. eigenvalues --   -0.21164  -0.21048
 Alpha virt. eigenvalues --   -0.08813  -0.08724  -0.01788  -0.01615  -0.00102
 Alpha virt. eigenvalues --    0.00034   0.02167   0.02276   0.03078   0.03288
 Alpha virt. eigenvalues --    0.04689   0.04790   0.05087   0.05210   0.06162

 Mulliken charges:
               1
     1  Mg   0.838664
     2  C   -0.002921
     3  C   -0.094168
     4  C   -0.045966
     5  C   -0.063959
     6  N   -0.256780
     7  C   -0.052406
     8  C   -0.013985
     9  C   -0.086992
    10  C    0.046298
    11  C    0.104808
    12  C    0.053487
    13  C   -0.071982
    14  H    0.036642
    15  N   -0.433132
    16  C    0.168314
    17  C   -0.177268
    18  C   -0.004173
    19  C    0.148657
    20  C    0.110195
    21  C    0.012080
    22  O   -0.249720
    23  C    0.062594
    24  N   -0.341165
    25  C    0.041254
    26  C   -0.028153
    27  C   -0.024013
    28  C    0.074868
    29  C    0.076153
    30  C    0.035127
    31  C   -0.004494
    32  N   -0.310508
    33  C    0.080485
    34  C   -0.169682
    35  C    0.008446
    36  C    0.083011
    37  C    0.127301
    38  C    0.046184
    39  O   -0.188172
    40  C   -0.005341
    41  C    0.212910
    42  O   -0.257052
    43  O   -0.304828
    44  C    0.157562
    45  H   -0.017603
    46  H   -0.016925
    47  H   -0.041422
    48  H    0.001084
    49  H   -0.004042
    50  H    0.025544
    51  H    0.016399
    52  H    0.016714
    53  H    0.010998
    54  H    0.044225
    55  H    0.017941
    56  H    0.017841
    57  H    0.005940
    58  H    0.026811
    59  H    0.039121
    60  H    0.037467
    61  H    0.035359
    62  H    0.031074
    63  H    0.016452
    64  H    0.009548
    65  H    0.023181
    66  H    0.012560
    67  H    0.004829
    68  H    0.006429
    69  H    0.004807
    70  H    0.008682
    71  H    0.018217
    72  H    0.028898
    73  H    0.047651
    74  H    0.009126
    75  H    0.046123
    76  H    0.035248
    77  H    0.043129
    78  H    0.046472
    79  H    0.053942
    80  Mg   0.837996
    81  C   -0.016869
    82  C   -0.087871
    83  C   -0.045443
    84  C   -0.064459
    85  N   -0.254553
    86  C   -0.049779
    87  C   -0.015090
    88  C   -0.090525
    89  C    0.045777
    90  C    0.114405
    91  C    0.062572
    92  C   -0.077727
    93  H    0.034666
    94  N   -0.423486
    95  C    0.162895
    96  C   -0.174655
    97  C   -0.007835
    98  C    0.152109
    99  C    0.099383
   100  C    0.015539
   101  O   -0.253221
   102  C    0.061220
   103  N   -0.349995
   104  C    0.037623
   105  C   -0.019923
   106  C   -0.034894
   107  C    0.088934
   108  C    0.073534
   109  C    0.034698
   110  C   -0.007644
   111  N   -0.324156
   112  C    0.078476
   113  C   -0.162835
   114  C    0.002304
   115  C    0.096258
   116  C    0.131441
   117  C    0.042525
   118  O   -0.187945
   119  C    0.000857
   120  C    0.211190
   121  O   -0.251080
   122  O   -0.305645
   123  C    0.152084
   124  H   -0.019859
   125  H   -0.015576
   126  H   -0.040142
   127  H   -0.000834
   128  H   -0.004610
   129  H    0.022589
   130  H    0.014791
   131  H    0.015748
   132  H    0.013911
   133  H    0.037672
   134  H    0.020562
   135  H    0.019457
   136  H    0.008577
   137  H    0.026163
   138  H    0.039596
   139  H    0.038265
   140  H    0.036280
   141  H    0.033772
   142  H    0.014250
   143  H    0.012980
   144  H    0.024945
   145  H    0.011818
   146  H    0.006181
   147  H    0.006278
   148  H    0.003804
   149  H    0.010831
   150  H    0.017835
   151  H    0.030007
   152  H    0.045829
   153  H    0.008627
   154  H    0.047688
   155  H    0.035089
   156  H    0.043739
   157  H    0.049332
   158  H    0.053552
 Sum of Mulliken charges =  -0.00000

 Dipole moment (field-independent basis, Debye):
    X=             -3.7226    Y=              2.1200    Z=              7.1012  Tot=              8.2933
 Quadrupole moment (field-independent basis, Debye-Ang):
   XX=           -518.1152   YY=           -532.4132   ZZ=           -466.5465
   XY=             29.7519   XZ=             -6.6145   YZ=            -30.5804

 Normal termination of Gaussian 16 at Sun Sep 12 04:03:57 2021.
