 Gaussian 16, Revision A.03,
 Gaussian 16:  ES64L-G16RevA.03 25-Dec-2016

 -----------------------------------
 #p cam-b3lyp/Def2SVP td=(nstates=5)
 -----------------------------------

 --------------------------------
 TDDFT excited states in gaussian
 --------------------------------
 Symbolic Z-matrix:
 Charge =  0 Multiplicity = 1

                         Standard orientation:
 ---------------------------------------------------------------------
 Center     Atomic      Atomic             Coordinates (Angstroms)
 Number     Number       Type             X           Y           Z
 ---------------------------------------------------------------------
      1         12           0       -5.091982   -0.881499    0.179084
      2          6           0       -5.373258    1.983041    2.306879
      3          6           0       -6.126331    1.110994   -2.390577
      4          6           0       -5.288796   -3.486883   -1.618097
      5          6           0       -5.189081   -2.844891    3.056813
      6          7           0       -5.647222    1.259786    0.093927
      7          6           0       -5.655025    2.261671    0.967619
      8          6           0       -5.917084    3.650719    0.312450
      9          6           0       -6.682224    3.169270   -1.000854
     10          6           0       -6.091692    1.776160   -1.129075
     11          6           0       -8.191489    3.047952   -0.816727
     12          6           0       -4.589187    4.401429   -0.040899
     13          6           0       -4.748336    5.886562   -0.379140
     14          1           0       -3.703730    6.813621    0.029157
     15          7           0       -5.152743   -1.081231   -1.785417
     16          6           0       -5.588054   -0.161579   -2.679860
     17          6           0       -5.433372   -0.783907   -4.012325
     18          6           0       -5.051224   -2.208720   -3.807473
     19          6           0       -5.176140   -2.324315   -2.376945
     20          6           0       -5.595702   -0.029962   -5.296446
     21          6           0       -4.649035   -3.296727   -4.752257
     22          8           0       -4.583639   -4.521415   -4.391098
     23          6           0       -4.416257   -2.898245   -6.152282
     24          7           0       -5.441294   -2.890785    0.624492
     25          6           0       -5.417061   -3.824199   -0.333180
     26          6           0       -5.409758   -5.205741    0.250966
     27          6           0       -5.187947   -5.020518    1.821394
     28          6           0       -5.188150   -3.472949    1.878845
     29          6           0       -6.674466   -6.041260    0.009240
     30          6           0       -3.998450   -5.782085    2.458207
     31          6           0       -2.693110   -5.214828    1.946930
     32          7           0       -5.073771   -0.525007    2.320025
     33          6           0       -5.143968   -1.489191    3.335946
     34          6           0       -5.209245   -0.762626    4.617317
     35          6           0       -5.189073    0.582662    4.254496
     36          6           0       -5.142321    0.689765    2.835117
     37          6           0       -5.334536   -1.354134    5.905282
     38          6           0       -5.220997    1.954624    4.734660
     39          8           0       -5.167885    2.486359    5.844584
     40          6           0       -5.464483    2.915999    3.488747
     41          6           0       -4.465695    4.037499    3.578017
     42          8           0       -3.245073    3.819887    3.436267
     43          8           0       -5.114782    5.211904    3.577982
     44          6           0       -4.180116    6.367454    3.635065
     45          1           0       -6.664501    1.576933   -3.218354
     46          1           0       -5.248485   -4.413190   -2.194958
     47          1           0       -5.135950   -3.391115    4.000354
     48          1           0       -6.557312    4.314109    0.894211
     49          1           0       -6.419964    3.773408   -1.869161
     50          1           0       -8.478277    3.188417    0.225359
     51          1           0       -8.445245    2.041134   -1.149020
     52          1           0       -8.719306    3.726699   -1.487166
     53          1           0       -4.211116    4.033407   -0.994672
     54          1           0       -3.858263    4.290583    0.760842
     55          1           0       -5.728447    6.260325   -0.081494
     56          1           0       -4.735790    5.993044   -1.463900
     57          1           0       -6.038353    0.951548   -5.131386
     58          1           0       -6.336863   -0.566037   -5.888910
     59          1           0       -4.660721    0.039395   -5.852621
     60          1           0       -5.324942   -2.450047   -6.554724
     61          1           0       -4.050623   -3.789132   -6.661674
     62          1           0       -3.653840   -2.119060   -6.175516
     63          1           0       -4.592623   -5.798791   -0.157700
     64          1           0       -6.053062   -5.348542    2.398152
     65          1           0       -6.482627   -6.991939   -0.488868
     66          1           0       -7.375115   -5.434166   -0.563316
     67          1           0       -7.256902   -6.258294    0.904272
     68          1           0       -4.024934   -6.833248    2.173075
     69          1           0       -3.990065   -5.733948    3.547181
     70          1           0       -2.556159   -5.734908    0.999516
     71          1           0       -1.881900   -5.443813    2.638824
     72          1           0       -2.781085   -4.151116    1.724980
     73          1           0       -4.643329   -0.818177    6.555630
     74          1           0       -5.105633   -2.419188    5.875847
     75          1           0       -6.385868   -1.158650    6.115859
     76          1           0       -6.490513    3.274511    3.565251
     77          1           0       -4.466611    6.969729    4.497283
     78          1           0       -4.212649    6.841088    2.653730
     79          1           0       -3.142896    6.136802    3.880653
     80         12           0        5.473588   -0.384018   -0.083897
     81          6           0        3.812960    1.859505   -2.339549
     82          6           0        7.573574    2.189210    0.692725
     83          6           0        7.230751   -2.447203    1.566292
     84          6           0        4.016933   -3.013641   -1.847127
     85          7           0        5.578396    1.707052   -0.797130
     86          6           0        4.856717    2.464845   -1.609086
     87          6           0        5.225931    3.972283   -1.579561
     88          6           0        6.739385    3.839030   -1.059407
     89          6           0        6.624122    2.513839   -0.308900
     90          6           0        7.748617    3.665810   -2.182255
     91          6           0        4.341049    4.784742   -0.570149
     92          6           0        4.434167    6.305497   -0.712899
     93          1           0        3.234042    7.101951   -0.472404
     94          7           0        6.831633   -0.072154    1.329269
     95          6           0        7.575020    1.039206    1.512371
     96          6           0        8.436392    0.760543    2.671918
     97          6           0        8.258106   -0.665963    3.056652
     98          6           0        7.430847   -1.132751    1.962192
     99          6           0        9.256934    1.819508    3.349208
    100          6           0        8.760880   -1.478983    4.210951
    101          8           0        8.679299   -2.758084    4.219832
    102          6           0        9.435647   -0.740506    5.288388
    103          7           0        5.777824   -2.433212   -0.258848
    104          6           0        6.549804   -3.095093    0.620851
    105          6           0        6.400041   -4.589308    0.461792
    106          6           0        5.178730   -4.793343   -0.550312
    107          6           0        4.878097   -3.315898   -0.885251
    108          6           0        7.628643   -5.328359   -0.068043
    109          6           0        4.009016   -5.694944   -0.069105
    110          6           0        3.280228   -5.027877    1.075127
    111          7           0        4.012179   -0.576661   -1.663522
    112          6           0        3.565798   -1.770403   -2.271644
    113          6           0        2.657465   -1.385557   -3.371310
    114          6           0        2.656437    0.017146   -3.341110
    115          6           0        3.519999    0.474585   -2.309363
    116          6           0        2.004886   -2.282225   -4.263634
    117          6           0        2.129433    1.215044   -3.954294
    118          8           0        1.285079    1.449559   -4.817891
    119          6           0        2.952847    2.463049   -3.414983
    120          6           0        1.970567    3.528201   -3.011124
    121          8           0        1.192456    3.342167   -2.059008
    122          8           0        2.257973    4.665418   -3.670293
    123          6           0        1.317677    5.754775   -3.294844
    124          1           0        8.423165    2.856988    0.838198
    125          1           0        7.729091   -3.204357    2.176095
    126          1           0        3.446384   -3.776733   -2.380833
    127          1           0        5.206443    4.463728   -2.544903
    128          1           0        6.994114    4.643977   -0.374913
    129          1           0        7.267343    3.542047   -3.141000
    130          1           0        8.321176    2.782987   -1.929561
    131          1           0        8.459840    4.496762   -2.181347
    132          1           0        4.750441    4.665547    0.441256
    133          1           0        3.314885    4.478263   -0.630796
    134          1           0        4.910153    6.602664   -1.655282
    135          1           0        5.107495    6.685916    0.059064
    136          1           0        9.314833    2.732275    2.743483
    137          1           0       10.287938    1.451208    3.384682
    138          1           0        8.920293    2.026275    4.367341
    139          1           0       10.288770   -0.204415    4.879432
    140          1           0        9.643723   -1.480260    6.063854
    141          1           0        8.746147    0.016268    5.678887
    142          1           0        6.154327   -5.056202    1.407688
    143          1           0        5.501772   -5.268719   -1.488129
    144          1           0        7.978050   -6.133302    0.605797
    145          1           0        8.415567   -4.605265   -0.236639
    146          1           0        7.509675   -5.774436   -1.053976
    147          1           0        4.394795   -6.641173    0.318190
    148          1           0        3.297319   -5.933766   -0.852327
    149          1           0        3.890237   -5.292542    1.943990
    150          1           0        2.270039   -5.421647    1.167387
    151          1           0        3.305306   -3.936561    0.974853
    152          1           0        0.986776   -1.931480   -4.368176
    153          1           0        2.037865   -3.305052   -3.894159
    154          1           0        2.619274   -2.148880   -5.158073
    155          1           0        3.608996    2.795381   -4.220341
    156          1           0        0.868508    6.122932   -4.222422
    157          1           0        1.914910    6.474535   -2.704084
    158          1           0        0.436062    5.482198   -2.726599
 ---------------------------------------------------------------------

 SCF Done:  E(RCAM-B3LYP) =  -4069.81196915     A.U. after   19 cycles

 Excitation energies and oscillator strengths:

 Excited State   1:      Singlet-A      1.6574 eV  748.08 nm  f=0.1176  <S**2>=0.000
     309 -> 315       -0.12874
     310 -> 316        0.10945
     311 -> 313        0.52275
     312 -> 314        0.44599
 This state for optimization and/or second-order correction.
 Total Energy, E(TD-HF/TD-DFT) =  -4069.75106247
 Copying the excited state density for this state as the 1-particle RhoCI density.

 Excited State   2:      Singlet-A      1.6959 eV  731.10 nm  f=0.6274  <S**2>=0.000
     309 -> 315        0.11585
     310 -> 316        0.13622
     311 -> 313       -0.44443
     312 -> 314        0.52093

 Excited State   3:      Singlet-A      2.1822 eV  568.16 nm  f=0.0193  <S**2>=0.000
     309 -> 313        0.57298
     310 -> 314        0.29486
     311 -> 315        0.24005
     312 -> 316       -0.12238

 Excited State   4:      Singlet-A      2.1943 eV  565.03 nm  f=0.1604  <S**2>=0.000
     309 -> 313       -0.29190
     310 -> 314        0.56921
     311 -> 315       -0.12780
     312 -> 316       -0.24858

 Excited State   5:      Singlet-A      2.4619 eV  503.60 nm  f=0.0000  <S**2>=0.000
     312 -> 313        0.70667

 The electronic state is 1-A.
 Alpha  occ. eigenvalues --  -46.87563 -46.87354 -19.26368 -19.25942 -19.19137
 Alpha  occ. eigenvalues --  -19.18633 -19.18622 -19.18418 -19.18052 -19.17792
 Alpha  occ. eigenvalues --  -14.42404 -14.42015 -14.41271 -14.41043 -14.39258
 Alpha  occ. eigenvalues --  -14.38960 -14.38512 -14.38160 -10.39066 -10.38696
 Alpha  occ. eigenvalues --  -10.35298 -10.35048 -10.34225 -10.34012 -10.31828
 Alpha  occ. eigenvalues --  -10.31394 -10.31231 -10.30985 -10.30934 -10.30463
 Alpha  occ. eigenvalues --  -10.30314 -10.30282 -10.30145 -10.30104 -10.30043
 Alpha  occ. eigenvalues --  -10.29814 -10.29808 -10.29553 -10.29342 -10.29320
 Alpha  occ. eigenvalues --  -10.29220 -10.28823 -10.28636 -10.28571 -10.28324
 Alpha  occ. eigenvalues --  -10.28314 -10.28166 -10.28064 -10.27930 -10.27928
 Alpha  occ. eigenvalues --  -10.27702 -10.27582 -10.27425 -10.27402 -10.27382
 Alpha  occ. eigenvalues --  -10.27375 -10.27370 -10.27298 -10.27292 -10.27200
 Alpha  occ. eigenvalues --  -10.27158 -10.27154 -10.27024 -10.26986 -10.26958
 Alpha  occ. eigenvalues --  -10.26776 -10.26574 -10.26310 -10.26189 -10.26033
 Alpha  occ. eigenvalues --  -10.25971 -10.25959 -10.25944 -10.25876 -10.25840
 Alpha  occ. eigenvalues --  -10.25796 -10.25623 -10.25510 -10.25327 -10.25176
 Alpha  occ. eigenvalues --  -10.24805 -10.24617 -10.24607 -10.24473 -10.24421
 Alpha  occ. eigenvalues --  -10.24394  -3.16312  -3.16094  -1.91194  -1.90975
 Alpha  occ. eigenvalues --   -1.90783  -1.90620  -1.90563  -1.90405  -1.16654
 Alpha  occ. eigenvalues --   -1.16282  -1.08665  -1.08255  -1.06930  -1.06873
 Alpha  occ. eigenvalues --   -1.06825  -1.06262  -1.04407  -1.04148  -1.03575
 Alpha  occ. eigenvalues --   -1.03351  -1.02951  -1.02812  -1.02026  -1.01995
 Alpha  occ. eigenvalues --   -0.91921  -0.91565  -0.89408  -0.89175  -0.89068
 Alpha  occ. eigenvalues --   -0.88765  -0.88133  -0.87949  -0.87724  -0.87596
 Alpha  occ. eigenvalues --   -0.87479  -0.87250  -0.87029  -0.86825  -0.84916
 Alpha  occ. eigenvalues --   -0.84568  -0.83795  -0.83627  -0.82840  -0.82577
 Alpha  occ. eigenvalues --   -0.82560  -0.82246  -0.81564  -0.81219  -0.80383
 Alpha  occ. eigenvalues --   -0.80201  -0.78552  -0.78366  -0.77063  -0.76842
 Alpha  occ. eigenvalues --   -0.76839  -0.76563  -0.75785  -0.75541  -0.74733
 Alpha  occ. eigenvalues --   -0.74563  -0.72619  -0.72379  -0.71510  -0.71291
 Alpha  occ. eigenvalues --   -0.69664  -0.69610  -0.68749  -0.68468  -0.67529
 Alpha  occ. eigenvalues --   -0.67241  -0.67107  -0.66787  -0.65198  -0.64872
 Alpha  occ. eigenvalues --   -0.64701  -0.64589  -0.64467  -0.64246  -0.64122
 Alpha  occ. eigenvalues --   -0.63912  -0.62249  -0.61939  -0.60252  -0.60028
 Alpha  occ. eigenvalues --   -0.59715  -0.59383  -0.58918  -0.58597  -0.58359
 Alpha  occ. eigenvalues --   -0.58113  -0.57521  -0.57202  -0.57162  -0.56937
 Alpha  occ. eigenvalues --   -0.56134  -0.55908  -0.55855  -0.55612  -0.55389
 Alpha  occ. eigenvalues --   -0.55186  -0.55119  -0.55009  -0.54434  -0.54189
 Alpha  occ. eigenvalues --   -0.53829  -0.53472  -0.53152  -0.53075  -0.52912
 Alpha  occ. eigenvalues --   -0.52835  -0.52805  -0.52579  -0.52532  -0.52323
 Alpha  occ. eigenvalues --   -0.52307  -0.52141  -0.51828  -0.51576  -0.51551
 Alpha  occ. eigenvalues --   -0.51186  -0.51148  -0.50823  -0.50378  -0.50117
 Alpha  occ. eigenvalues --   -0.49895  -0.49785  -0.49690  -0.49497  -0.49407
 Alpha  occ. eigenvalues --   -0.49138  -0.49109  -0.49053  -0.48814  -0.48711
 Alpha  occ. eigenvalues --   -0.48508  -0.48322  -0.48258  -0.48227  -0.48117
 Alpha  occ. eigenvalues --   -0.48040  -0.47524  -0.47303  -0.47042  -0.46900
 Alpha  occ. eigenvalues --   -0.46630  -0.46473  -0.46422  -0.46195  -0.46146
 Alpha  occ. eigenvalues --   -0.46019  -0.45964  -0.45800  -0.45780  -0.45465
 Alpha  occ. eigenvalues --   -0.45132  -0.44870  -0.44464  -0.44397  -0.44210
 Alpha  occ. eigenvalues --   -0.44113  -0.44074  -0.44001  -0.43868  -0.43779
 Alpha  occ. eigenvalues --   -0.43707  -0.43618  -0.43524  -0.43314  -0.43134
 Alpha  occ. eigenvalues --   -0.42993  -0.42909  -0.42845  -0.42650  -0.42464
 Alpha  occ. eigenvalues --   -0.42357  -0.42331  -0.41879  -0.41663  -0.41617
 Alpha  occ. eigenvalues --   -0.41375  -0.41319  -0.41138  -0.40919  -0.40759
 Alpha  occ. eigenvalues --   -0.40633  -0.40607  -0.40497  -0.40411  -0.40410
 Alpha  occ. eigenvalues --   -0.40229  -0.40128  -0.39777  -0.39328  -0.39155
 Alpha  occ. eigenvalues --   -0.38262  -0.38129  -0.37567  -0.37334  -0.37180
 Alpha  occ. eigenvalues --   -0.37115  -0.36956  -0.36836  -0.36748  -0.36355
 Alpha  occ. eigenvalues --   -0.36146  -0.35823  -0.34170  -0.33872  -0.33823
 Alpha  occ. eigenvalues --   -0.33375  -0.33092  -0.32774  -0.31181  -0.30951
 Alpha  occ. eigenvalues --   -0.30890  -0.30628  -0.29959  -0.29654  -0.29244
 Alpha  occ. eigenvalues --   -0.29140  -0.29018  -0.28903  -0.23949  -0.23660
 Alpha  occ. eigenvalues --   -0.21031  -0.20710
 Alpha virt. eigenvalues --   -0.08711  -0.08351  -0.01593  -0.01338   0.00053
 Alpha virt. eigenvalues --    0.00368   0.02257   0.02587   0.03389   0.03749
 Alpha virt. eigenvalues --    0.04815   0.05123   0.05185   0.05482   0.06254

 Mulliken charges:
               1
     1  Mg   0.842674
     2  C   -0.001635
     3  C   -0.091664
     4  C   -0.046876
     5  C   -0.064706
     6  N   -0.256684
     7  C   -0.051478
     8  C   -0.014877
     9  C   -0.087598
    10  C    0.047879
    11  C    0.105021
    12  C    0.053273
    13  C   -0.070594
    14  H    0.033105
    15  N   -0.433067
    16  C    0.170676
    17  C   -0.174586
    18  C   -0.003618
    19  C    0.149164
    20  C    0.109913
    21  C    0.012006
    22  O   -0.251635
    23  C    0.061314
    24  N   -0.341157
    25  C    0.041484
    26  C   -0.027944
    27  C   -0.023618
    28  C    0.074542
    29  C    0.076524
    30  C    0.035500
    31  C   -0.004800
    32  N   -0.310218
    33  C    0.080208
    34  C   -0.170510
    35  C    0.007753
    36  C    0.083297
    37  C    0.127470
    38  C    0.045857
    39  O   -0.190067
    40  C   -0.005574
    41  C    0.212230
    42  O   -0.255354
    43  O   -0.305182
    44  C    0.158350
    45  H   -0.018122
    46  H   -0.018096
    47  H   -0.042763
    48  H   -0.000390
    49  H   -0.003738
    50  H    0.024857
    51  H    0.016076
    52  H    0.015803
    53  H    0.016110
    54  H    0.046371
    55  H    0.016448
    56  H    0.017240
    57  H    0.005670
    58  H    0.025157
    59  H    0.044750
    60  H    0.036814
    61  H    0.033990
    62  H    0.036012
    63  H    0.015267
    64  H    0.008760
    65  H    0.022193
    66  H    0.012610
    67  H    0.004156
    68  H    0.005052
    69  H    0.004451
    70  H    0.006993
    71  H    0.017101
    72  H    0.031052
    73  H    0.046773
    74  H    0.008338
    75  H    0.045097
    76  H    0.034215
    77  H    0.041566
    78  H    0.046043
    79  H    0.053386
    80  Mg   0.839681
    81  C   -0.016227
    82  C   -0.087626
    83  C   -0.045413
    84  C   -0.064796
    85  N   -0.254640
    86  C   -0.049448
    87  C   -0.015489
    88  C   -0.090630
    89  C    0.046294
    90  C    0.114467
    91  C    0.062354
    92  C   -0.077714
    93  H    0.034588
    94  N   -0.423458
    95  C    0.163566
    96  C   -0.174442
    97  C   -0.007505
    98  C    0.152440
    99  C    0.099410
   100  C    0.015909
   101  O   -0.253218
   102  C    0.060993
   103  N   -0.350093
   104  C    0.037651
   105  C   -0.019854
   106  C   -0.034738
   107  C    0.088799
   108  C    0.073737
   109  C    0.034617
   110  C   -0.008005
   111  N   -0.324008
   112  C    0.078421
   113  C   -0.162883
   114  C    0.001143
   115  C    0.096833
   116  C    0.131420
   117  C    0.042468
   118  O   -0.191182
   119  C    0.000947
   120  C    0.209852
   121  O   -0.249076
   122  O   -0.305849
   123  C    0.152622
   124  H   -0.019822
   125  H   -0.015609
   126  H   -0.040093
   127  H   -0.001411
   128  H   -0.004181
   129  H    0.022052
   130  H    0.014365
   131  H    0.016040
   132  H    0.015105
   133  H    0.039009
   134  H    0.019899
   135  H    0.019787
   136  H    0.008728
   137  H    0.025922
   138  H    0.040456
   139  H    0.038012
   140  H    0.036403
   141  H    0.034601
   142  H    0.014465
   143  H    0.012265
   144  H    0.025003
   145  H    0.011469
   146  H    0.005536
   147  H    0.005809
   148  H    0.004255
   149  H    0.010632
   150  H    0.018166
   151  H    0.030815
   152  H    0.044608
   153  H    0.010300
   154  H    0.046055
   155  H    0.034358
   156  H    0.041895
   157  H    0.050070
   158  H    0.053079
 Sum of Mulliken charges =  -0.00000

 Dipole moment (field-independent basis, Debye):
    X=              1.9004    Y=              3.0403    Z=             -3.0230  Tot=              4.6897
 Quadrupole moment (field-independent basis, Debye-Ang):
   XX=           -465.0989   YY=           -464.0306   ZZ=           -534.8742
   XY=             20.3970   XZ=             16.4626   YZ=            -17.8947

 Normal termination of Gaussian 16 at Fri Sep 10 15:50:02 2021.
