 Gaussian 16, Revision A.03,
 Gaussian 16:  ES64L-G16RevA.03 25-Dec-2016

 -----------------------------------
 #p cam-b3lyp/Def2SVP td=(nstates=5)
 -----------------------------------

 --------------------------------
 TDDFT excited states in gaussian
 --------------------------------
 Symbolic Z-matrix:
 Charge =  0 Multiplicity = 1

                         Standard orientation:
 ---------------------------------------------------------------------
 Center     Atomic      Atomic             Coordinates (Angstroms)
 Number     Number       Type             X           Y           Z
 ---------------------------------------------------------------------
      1         12           0        3.948904    1.198091    0.640227
      2          6           0        4.823819   -1.959398   -0.800953
      3          6           0        4.937077    2.641097   -2.289673
      4          6           0        3.614604    4.021819    2.044301
      5          6           0        4.113800   -0.346785    3.759815
      6          7           0        4.757959    0.343380   -1.234752
      7          6           0        4.988975   -0.887399   -1.680831
      8          6           0        5.350833   -0.937845   -3.195390
      9          6           0        5.899124    0.548722   -3.372853
     10          6           0        5.126444    1.227584   -2.255698
     11          6           0        7.391910    0.685235   -3.090973
     12          6           0        4.097839   -1.197853   -4.097684
     13          6           0        4.405411   -1.584591   -5.547231
     14          1           0        3.538112   -2.543083   -6.215389
     15          7           0        3.766590    3.003613   -0.140607
     16          6           0        4.213386    3.410482   -1.353091
     17          6           0        3.834976    4.835213   -1.469833
     18          6           0        3.300482    5.273611   -0.150660
     19          6           0        3.566949    4.109444    0.655000
     20          6           0        3.948661    5.615039   -2.743684
     21          6           0        2.661932    6.544530    0.313185
     22          8           0        2.482286    6.802636    1.552412
     23          6           0        2.328321    7.531001   -0.730185
     24          7           0        4.088037    1.821077    2.627729
     25          6           0        3.840221    3.089490    2.972258
     26          6           0        3.722605    3.238114    4.460215
     27          6           0        3.700808    1.755283    5.052239
     28          6           0        3.903290    0.971165    3.732228
     29          6           0        4.836862    4.043688    5.142487
     30          6           0        2.502112    1.377367    5.958179
     31          6           0        1.230689    1.344735    5.139939
     32          7           0        4.212494   -0.827887    1.373014
     33          6           0        4.271797   -1.238973    2.712479
     34          6           0        4.569629   -2.683046    2.708382
     35          6           0        4.680007   -3.010459    1.358396
     36          6           0        4.490750   -1.839572    0.570046
     37          6           0        4.760467   -3.497857    3.859076
     38          6           0        4.938204   -4.072278    0.399369
     39          8           0        5.075730   -5.294130    0.474575
     40          6           0        5.162373   -3.411154   -1.031886
     41          6           0        4.329632   -4.178422   -2.022417
     42          8           0        3.083154   -4.145200   -1.971872
     43          8           0        5.118182   -4.633186   -3.008277
     44          6           0        4.349408   -5.378613   -4.040499
     45          1           0        5.435186    3.221793   -3.068531
     46          1           0        3.393888    4.954560    2.567480
     47          1           0        4.096454   -0.913016    4.692839
     48          1           0        6.130193   -1.655306   -3.452821
     49          1           0        5.621202    0.972508   -4.337679
     50          1           0        7.807475   -0.238511   -2.688579
     51          1           0        7.477893    1.490848   -2.361530
     52          1           0        7.924131    1.027062   -3.979045
     53          1           0        3.573229   -0.257012   -4.264004
     54          1           0        3.451799   -1.954959   -3.651871
     55          1           0        5.451780   -1.864900   -5.671515
     56          1           0        4.286744   -0.697766   -6.169854
     57          1           0        4.527516    5.076245   -3.492799
     58          1           0        4.545994    6.499537   -2.523308
     59          1           0        2.974336    5.916063   -3.128919
     60          1           0        3.236399    7.810323   -1.264901
     61          1           0        1.798839    8.337126   -0.223567
     62          1           0        1.672827    7.060936   -1.463884
     63          1           0        2.796872    3.744363    4.730687
     64          1           0        4.575783    1.548152    5.668834
     65          1           0        4.472381    4.895866    5.716639
     66          1           0        5.541194    4.362055    4.374470
     67          1           0        5.482371    3.463631    5.801477
     68          1           0        2.363647    2.127289    6.736247
     69          1           0        2.620187    0.410212    6.446974
     70          1           0        0.925222    2.390314    5.122975
     71          1           0        0.478417    0.726133    5.630480
     72          1           0        1.427583    1.046040    4.110133
     73          1           0        4.218755   -4.424533    3.669899
     74          1           0        4.396720   -3.003099    4.759358
     75          1           0        5.844859   -3.606917    3.851691
     76          1           0        6.227660   -3.485477   -1.248132
     77          1           0        4.803293   -6.365802   -4.128133
     78          1           0        4.333086   -4.748460   -4.929906
     79          1           0        3.324845   -5.645646   -3.779151
     80         12           0       -4.874090   -0.219023   -0.357599
     81          6           0       -2.043666   -2.323381    0.305291
     82          6           0       -2.673108    2.349860   -0.794806
     83          6           0       -7.356418    1.751973   -0.501383
     84          6           0       -6.850182   -2.614644    1.224087
     85          7           0       -2.667710   -0.123862   -0.234821
     86          6           0       -1.694569   -1.000200   -0.036424
     87          6           0       -0.267558   -0.445768   -0.292938
     88          6           0       -0.570299    1.114126   -0.060698
     89          6           0       -2.055156    1.130764   -0.417923
     90          6           0       -0.422863    1.546523    1.388655
     91          6           0        0.227476   -0.723238   -1.755804
     92          6           0        1.721849   -0.486273   -1.984836
     93          1           0        2.431357   -1.362655   -2.912745
     94          7           0       -5.010130    1.624345   -1.080131
     95          6           0       -4.012482    2.524259   -1.207125
     96          6           0       -4.631341    3.734195   -1.770365
     97          6           0       -6.105086    3.531497   -1.811684
     98          6           0       -6.218535    2.275481   -1.097793
     99          6           0       -3.829546    4.897003   -2.278727
    100          6           0       -7.227828    4.341272   -2.386049
    101          8           0       -8.452150    4.093913   -2.098524
    102          6           0       -6.847306    5.490246   -3.220644
    103          7           0       -6.786841   -0.299074    0.453164
    104          6           0       -7.688863    0.663496    0.192889
    105          6           0       -9.068690    0.256612    0.652170
    106          6           0       -8.948973   -1.285608    1.058124
    107          6           0       -7.433769   -1.488342    0.838043
    108          6           0       -9.639103    1.049328    1.828015
    109          6           0       -9.933909   -2.272186    0.373098
    110          6           0       -9.619716   -2.374095   -1.102128
    111          7           0       -4.573770   -2.206778    0.434039
    112          6           0       -5.530390   -3.022155    1.077559
    113          6           0       -4.826809   -4.235511    1.541413
    114          6           0       -3.494474   -4.029829    1.152758
    115          6           0       -3.372175   -2.767741    0.511126
    116          6           0       -5.413086   -5.311291    2.266058
    117          6           0       -2.161663   -4.588683    1.148807
    118          8           0       -1.671865   -5.669320    1.474442
    119          6           0       -1.138808   -3.453046    0.712356
    120          6           0       -0.223516   -4.029115   -0.333057
    121          8           0       -0.668025   -4.371731   -1.442850
    122          8           0        1.052260   -3.879216    0.067325
    123          6           0        1.998364   -4.425531   -0.941758
    124          1           0       -2.090192    3.268989   -0.729218
    125          1           0       -8.266382    2.344633   -0.620541
    126          1           0       -7.414912   -3.452342    1.638836
    127          1           0        0.485050   -0.786809    0.407812
    128          1           0       -0.004829    1.733445   -0.752102
    129          1           0       -0.253335    0.705679    2.044691
    130          1           0       -1.349638    2.043976    1.642967
    131          1           0        0.360487    2.304616    1.478052
    132          1           0       -0.188642    0.040356   -2.425516
    133          1           0       -0.032101   -1.717428   -2.063734
    134          1           0        2.274400   -0.397290   -1.041587
    135          1           0        1.849426    0.487896   -2.463115
    136          1           0       -2.780506    4.830101   -1.964992
    137          1           0       -4.207840    5.791843   -1.772746
    138          1           0       -3.924564    5.034456   -3.357958
    139          1           0       -6.228143    6.169451   -2.639449
    140          1           0       -7.784657    5.890270   -3.612095
    141          1           0       -6.227426    5.130557   -4.049488
    142          1           0       -9.788073    0.353582   -0.151685
    143          1           0       -9.134068   -1.440002    2.131320
    144          1           0      -10.611221    1.526775    1.601928
    145          1           0       -8.910450    1.792113    2.124438
    146          1           0       -9.775339    0.480133    2.745980
    147          1           0      -10.957820   -1.897675    0.447206
    148          1           0       -9.922210   -3.265965    0.808125
    149          1           0      -10.136298   -1.507215   -1.524919
    150          1           0      -10.007741   -3.303918   -1.513096
    151          1           0       -8.547330   -2.240881   -1.286238
    152          1           0       -5.031560   -6.224934    1.829940
    153          1           0       -6.499631   -5.273373    2.224237
    154          1           0       -5.033307   -5.100509    3.269352
    155          1           0       -0.595484   -3.140832    1.605042
    156          1           0        2.628613   -5.156563   -0.425945
    157          1           0        2.504576   -3.546587   -1.383297
    158          1           0        1.584992   -5.029342   -1.741115
 ---------------------------------------------------------------------

 SCF Done:  E(RCAM-B3LYP) =  -4069.42638537     A.U. after   35 cycles

 Excitation energies and oscillator strengths:

 Excited State   1:      Singlet-A      0.2043 eV 6069.30 nm  f=0.0017  <S**2>=0.000
     312 -> 313       -0.35225
     312 -> 315       -0.41616
     312 -> 316       -0.47216
     312 <- 315        0.10108
     312 <- 316        0.13207
 This state for optimization and/or second-order correction.
 Total Energy, E(TD-HF/TD-DFT) =  -4069.41887819
 Copying the excited state density for this state as the 1-particle RhoCI density.

 Excited State   2:      Singlet-A      0.3235 eV 3833.01 nm  f=0.0072  <S**2>=0.000
     312 -> 313        0.60994
     312 -> 315       -0.21454
     312 -> 316       -0.25932
     312 -> 317       -0.13533

 Excited State   3:      Singlet-A      1.1873 eV 1044.28 nm  f=0.0097  <S**2>=0.000
     312 -> 314        0.70326

 Excited State   4:      Singlet-A      1.6279 eV  761.61 nm  f=0.0312  <S**2>=0.000
     308 -> 315       -0.11225
     310 -> 313        0.58372
     311 -> 314       -0.36022

 Excited State   5:      Singlet-A      1.7018 eV  728.57 nm  f=0.6099  <S**2>=0.000
     309 -> 318        0.14908
     310 -> 313        0.35530
     311 -> 314        0.58056

 The electronic state is 1-A.
 Alpha  occ. eigenvalues --  -46.88622 -46.86421 -19.31092 -19.24161 -19.19646
 Alpha  occ. eigenvalues --  -19.19495 -19.17973 -19.17699 -19.16203 -19.14113
 Alpha  occ. eigenvalues --  -14.43115 -14.42336 -14.41301 -14.40226 -14.40082
 Alpha  occ. eigenvalues --  -14.39531 -14.38127 -14.37301 -10.44654 -10.36272
 Alpha  occ. eigenvalues --  -10.36116 -10.34844 -10.34404 -10.33686 -10.32387
 Alpha  occ. eigenvalues --  -10.32204 -10.32149 -10.31420 -10.31257 -10.31017
 Alpha  occ. eigenvalues --  -10.30670 -10.30314 -10.30308 -10.30154 -10.30144
 Alpha  occ. eigenvalues --  -10.30036 -10.29967 -10.29623 -10.29607 -10.29323
 Alpha  occ. eigenvalues --  -10.29139 -10.29074 -10.29008 -10.28705 -10.28695
 Alpha  occ. eigenvalues --  -10.28664 -10.28625 -10.28457 -10.28350 -10.28307
 Alpha  occ. eigenvalues --  -10.28154 -10.28114 -10.28073 -10.28027 -10.27245
 Alpha  occ. eigenvalues --  -10.27204 -10.27015 -10.26948 -10.26940 -10.26869
 Alpha  occ. eigenvalues --  -10.26709 -10.26604 -10.26598 -10.26573 -10.26520
 Alpha  occ. eigenvalues --  -10.26424 -10.26410 -10.26335 -10.26233 -10.25944
 Alpha  occ. eigenvalues --  -10.25907 -10.25871 -10.25689 -10.25645 -10.25343
 Alpha  occ. eigenvalues --  -10.25152 -10.25143 -10.24990 -10.24823 -10.24805
 Alpha  occ. eigenvalues --  -10.24735 -10.24565 -10.23998 -10.23963 -10.23489
 Alpha  occ. eigenvalues --  -10.23415  -3.17343  -3.15175  -1.92223  -1.91812
 Alpha  occ. eigenvalues --   -1.91656  -1.90058  -1.89645  -1.89481  -1.24550
 Alpha  occ. eigenvalues --   -1.17766  -1.10261  -1.10005  -1.07889  -1.06608
 Alpha  occ. eigenvalues --   -1.05974  -1.05539  -1.04594  -1.04117  -1.03301
 Alpha  occ. eigenvalues --   -1.03213  -1.02417  -1.01809  -1.01516  -1.00831
 Alpha  occ. eigenvalues --   -0.93999  -0.90710  -0.90404  -0.90262  -0.89145
 Alpha  occ. eigenvalues --   -0.88791  -0.88578  -0.88366  -0.88186  -0.87908
 Alpha  occ. eigenvalues --   -0.87816  -0.87077  -0.86584  -0.86393  -0.86147
 Alpha  occ. eigenvalues --   -0.86051  -0.84656  -0.83882  -0.83619  -0.83577
 Alpha  occ. eigenvalues --   -0.83165  -0.82720  -0.81960  -0.81770  -0.81218
 Alpha  occ. eigenvalues --   -0.79588  -0.79507  -0.78780  -0.78270  -0.77507
 Alpha  occ. eigenvalues --   -0.77158  -0.76482  -0.75887  -0.75732  -0.75119
 Alpha  occ. eigenvalues --   -0.73934  -0.73679  -0.72759  -0.71501  -0.70644
 Alpha  occ. eigenvalues --   -0.70525  -0.70371  -0.69172  -0.68934  -0.68466
 Alpha  occ. eigenvalues --   -0.68044  -0.67457  -0.66607  -0.66467  -0.65785
 Alpha  occ. eigenvalues --   -0.65678  -0.65454  -0.65092  -0.64727  -0.63879
 Alpha  occ. eigenvalues --   -0.63550  -0.63309  -0.63076  -0.61933  -0.61214
 Alpha  occ. eigenvalues --   -0.61055  -0.60616  -0.59760  -0.59238  -0.58985
 Alpha  occ. eigenvalues --   -0.58527  -0.58145  -0.58123  -0.57543  -0.57098
 Alpha  occ. eigenvalues --   -0.56861  -0.56490  -0.56250  -0.56125  -0.55501
 Alpha  occ. eigenvalues --   -0.55342  -0.55048  -0.54571  -0.54461  -0.54334
 Alpha  occ. eigenvalues --   -0.54208  -0.53967  -0.53719  -0.53537  -0.53226
 Alpha  occ. eigenvalues --   -0.53091  -0.52898  -0.52700  -0.52485  -0.52426
 Alpha  occ. eigenvalues --   -0.52247  -0.51926  -0.51822  -0.51587  -0.51501
 Alpha  occ. eigenvalues --   -0.51234  -0.51158  -0.50622  -0.50607  -0.50558
 Alpha  occ. eigenvalues --   -0.50417  -0.50114  -0.50007  -0.49870  -0.49567
 Alpha  occ. eigenvalues --   -0.49507  -0.49243  -0.49086  -0.48967  -0.48896
 Alpha  occ. eigenvalues --   -0.48594  -0.48452  -0.48324  -0.48023  -0.47982
 Alpha  occ. eigenvalues --   -0.47870  -0.47591  -0.47462  -0.47389  -0.47357
 Alpha  occ. eigenvalues --   -0.47238  -0.47040  -0.46970  -0.46546  -0.46333
 Alpha  occ. eigenvalues --   -0.46175  -0.45936  -0.45754  -0.45691  -0.45476
 Alpha  occ. eigenvalues --   -0.45377  -0.45275  -0.45230  -0.45047  -0.44915
 Alpha  occ. eigenvalues --   -0.44757  -0.44497  -0.44473  -0.44272  -0.44122
 Alpha  occ. eigenvalues --   -0.43558  -0.43537  -0.43385  -0.43232  -0.43174
 Alpha  occ. eigenvalues --   -0.43109  -0.42971  -0.42692  -0.42493  -0.42441
 Alpha  occ. eigenvalues --   -0.42378  -0.42210  -0.42162  -0.41958  -0.41874
 Alpha  occ. eigenvalues --   -0.41646  -0.41498  -0.41335  -0.41210  -0.40715
 Alpha  occ. eigenvalues --   -0.40400  -0.40291  -0.40031  -0.39934  -0.39726
 Alpha  occ. eigenvalues --   -0.39638  -0.39410  -0.39268  -0.38820  -0.38677
 Alpha  occ. eigenvalues --   -0.38483  -0.38386  -0.38217  -0.37944  -0.37232
 Alpha  occ. eigenvalues --   -0.37176  -0.36134  -0.36057  -0.35515  -0.35237
 Alpha  occ. eigenvalues --   -0.35159  -0.34427  -0.34043  -0.32952  -0.32150
 Alpha  occ. eigenvalues --   -0.32040  -0.31966  -0.31819  -0.31633  -0.30327
 Alpha  occ. eigenvalues --   -0.30287  -0.30147  -0.30040  -0.28795  -0.28175
 Alpha  occ. eigenvalues --   -0.27988  -0.27785  -0.25161  -0.22665  -0.22005
 Alpha  occ. eigenvalues --   -0.19913  -0.16526
 Alpha virt. eigenvalues --   -0.09746  -0.07507  -0.02801  -0.02355  -0.00974
 Alpha virt. eigenvalues --   -0.00491   0.00905   0.01103   0.03215   0.03602
 Alpha virt. eigenvalues --    0.03701   0.04384   0.04813   0.05687   0.06101

 Mulliken charges:
               1
     1  Mg   0.775986
     2  C   -0.015043
     3  C   -0.096555
     4  C   -0.046852
     5  C   -0.059696
     6  N   -0.252061
     7  C   -0.067152
     8  C   -0.012919
     9  C   -0.083207
    10  C    0.052773
    11  C    0.105070
    12  C    0.016865
    13  C   -0.061661
    14  H    0.044372
    15  N   -0.430316
    16  C    0.170323
    17  C   -0.179298
    18  C   -0.003538
    19  C    0.146440
    20  C    0.110493
    21  C    0.011543
    22  O   -0.247581
    23  C    0.062670
    24  N   -0.329864
    25  C    0.040624
    26  C   -0.027049
    27  C   -0.024862
    28  C    0.074407
    29  C    0.075483
    30  C    0.035367
    31  C   -0.010826
    32  N   -0.311431
    33  C    0.082131
    34  C   -0.168195
    35  C    0.041383
    36  C    0.100948
    37  C    0.124124
    38  C    0.026408
    39  O   -0.186478
    40  C   -0.028756
    41  C    0.252271
    42  O   -0.016172
    43  O   -0.254339
    44  C    0.143249
    45  H   -0.017839
    46  H   -0.015096
    47  H   -0.037656
    48  H   -0.005994
    49  H   -0.002412
    50  H    0.024769
    51  H    0.020840
    52  H    0.019207
    53  H    0.031933
    54  H    0.065150
    55  H    0.018213
    56  H    0.025300
    57  H    0.006167
    58  H    0.028223
    59  H    0.039923
    60  H    0.038692
    61  H    0.037689
    62  H    0.030296
    63  H    0.018365
    64  H    0.010896
    65  H    0.025073
    66  H    0.012785
    67  H    0.006192
    68  H    0.008167
    69  H    0.006703
    70  H    0.009596
    71  H    0.022541
    72  H    0.031331
    73  H    0.056318
    74  H    0.012326
    75  H    0.045802
    76  H    0.046684
    77  H    0.061197
    78  H    0.063288
    79  H    0.066805
    80  Mg   0.832375
    81  C   -0.009642
    82  C   -0.089177
    83  C   -0.048754
    84  C   -0.070121
    85  N   -0.252201
    86  C   -0.052840
    87  C   -0.019471
    88  C   -0.101620
    89  C    0.043773
    90  C    0.094177
    91  C    0.112853
    92  C   -0.146938
    93  H    0.038498
    94  N   -0.422955
    95  C    0.160154
    96  C   -0.176861
    97  C   -0.011122
    98  C    0.151380
    99  C    0.100900
   100  C    0.013281
   101  O   -0.256588
   102  C    0.062220
   103  N   -0.351561
   104  C    0.036685
   105  C   -0.018707
   106  C   -0.034706
   107  C    0.090908
   108  C    0.074884
   109  C    0.035560
   110  C   -0.007137
   111  N   -0.323971
   112  C    0.080212
   113  C   -0.167037
   114  C    0.005086
   115  C    0.091990
   116  C    0.132049
   117  C    0.035974
   118  O   -0.186976
   119  C    0.017723
   120  C    0.211752
   121  O   -0.294734
   122  O   -0.284348
   123  C    0.032599
   124  H   -0.022488
   125  H   -0.019391
   126  H   -0.043935
   127  H    0.006086
   128  H   -0.000849
   129  H    0.031309
   130  H    0.013315
   131  H    0.027590
   132  H   -0.002674
   133  H    0.033893
   134  H    0.068379
   135  H    0.017144
   136  H    0.004433
   137  H    0.023057
   138  H    0.034575
   139  H    0.036551
   140  H    0.033088
   141  H    0.031589
   142  H    0.012085
   143  H    0.010277
   144  H    0.022414
   145  H    0.011053
   146  H    0.003209
   147  H    0.003785
   148  H    0.002281
   149  H    0.009738
   150  H    0.015582
   151  H    0.031774
   152  H    0.045111
   153  H    0.005546
   154  H    0.044428
   155  H    0.021798
   156  H   -0.000993
   157  H   -0.027682
   158  H   -0.000196
 Sum of Mulliken charges =  -0.00000

 Dipole moment (field-independent basis, Debye):
    X=              9.6374    Y=              5.5028    Z=             -3.9228  Tot=             11.7707
 Quadrupole moment (field-independent basis, Debye-Ang):
   XX=           -489.9898   YY=           -547.0171   ZZ=           -461.1088
   XY=             16.7830   XZ=            -39.6000   YZ=             -1.5495

 Normal termination of Gaussian 16 at Fri Sep 10 00:38:41 2021.
