 Gaussian 16, Revision A.03,
 Gaussian 16:  ES64L-G16RevA.03 25-Dec-2016

 -----------------------------------
 #p cam-b3lyp/Def2SVP td=(nstates=5)
 -----------------------------------

 --------------------------------
 TDDFT excited states in gaussian
 --------------------------------
 Symbolic Z-matrix:
 Charge =  0 Multiplicity = 1

                         Standard orientation:
 ---------------------------------------------------------------------
 Center     Atomic      Atomic             Coordinates (Angstroms)
 Number     Number       Type             X           Y           Z
 ---------------------------------------------------------------------
      1         12           0        5.484062   -0.351362    0.074559
      2          6           0        5.460989    2.849810   -1.526746
      3          6           0        6.278936    1.268792    2.970476
      4          6           0        5.955720   -3.190639    1.405974
      5          6           0        5.812304   -1.768725   -3.092301
      6          7           0        5.800314    1.790381    0.536691
      7          6           0        5.702945    2.922560   -0.153135
      8          6           0        5.807207    4.198215    0.735239
      9          6           0        6.613218    3.582950    1.965602
     10          6           0        6.178532    2.133379    1.840237
     11          6           0        8.127685    3.657639    1.800341
     12          6           0        4.402944    4.730204    1.178820
     13          6           0        4.396144    6.143417    1.768850
     14          1           0        3.258356    7.009450    1.499084
     15          7           0        5.555380   -0.878267    1.977224
     16          6           0        5.882049   -0.084838    3.025577
     17          6           0        5.789179   -0.939979    4.228402
     18          6           0        5.566960   -2.340974    3.774611
     19          6           0        5.711828   -2.194772    2.348773
     20          6           0        5.860536   -0.405101    5.625744
     21          6           0        5.281395   -3.612001    4.510189
     22          8           0        5.352907   -4.756181    3.944228
     23          6           0        4.998424   -3.487506    5.951533
     24          7           0        6.054399   -2.204905   -0.697924
     25          6           0        6.127449   -3.286238    0.085892
     26          6           0        6.275175   -4.539442   -0.725031
     27          6           0        6.043169   -4.111782   -2.245896
     28          6           0        5.873748   -2.586424   -2.038896
     29          6           0        7.622612   -5.263589   -0.598396
     30          6           0        4.948084   -4.875575   -3.031916
     31          6           0        3.585501   -4.547973   -2.463459
     32          7           0        5.438809    0.363953   -1.974178
     33          6           0        5.620154   -0.397991   -3.137462
     34          6           0        5.612429    0.540852   -4.274380
     35          6           0        5.442614    1.793668   -3.688326
     36          6           0        5.376431    1.649449   -2.273012
     37          6           0        5.809132    0.196540   -5.640832
     38          6           0        5.326375    3.223158   -3.926873
     39          8           0        5.221412    3.929036   -4.930970
     40          6           0        5.455830    3.976433   -2.529860
     41          6           0        4.340442    4.982922   -2.451121
     42          8           0        3.150324    4.614572   -2.378299
     43          8           0        4.856627    6.202549   -2.235238
     44          6           0        3.801053    7.243721   -2.117430
     45          1           0        6.758038    1.640415    3.878385
     46          1           0        6.014143   -4.201249    1.815476
     47          1           0        5.824765   -2.147053   -4.116101
     48          1           0        6.373963    5.016531    0.290749
     49          1           0        6.281341    3.997111    2.917468
     50          1           0        8.403149    4.005145    0.804710
     51          1           0        8.488604    2.641777    1.962376
     52          1           0        8.574009    4.263602    2.589252
     53          1           0        4.062234    4.165262    2.046472
     54          1           0        3.693116    4.681161    0.352342
     55          1           0        5.330935    6.665700    1.563190
     56          1           0        4.365903    6.059801    2.855263
     57          1           0        6.193644    0.631889    5.641109
     58          1           0        6.652751   -0.952470    6.136128
     59          1           0        4.920491   -0.533079    6.162651
     60          1           0        5.850126   -3.020385    6.446458
     61          1           0        4.729985   -4.486711    6.292677
     62          1           0        4.154934   -2.810233    6.088553
     63          1           0        5.525830   -5.278079   -0.443386
     64          1           0        6.942292   -4.241056   -2.848839
     65          1           0        7.533543   -6.300769   -0.274316
     66          1           0        8.249137   -4.692429    0.086099
     67          1           0        8.230365   -5.259753   -1.502852
     68          1           0        5.088242   -5.951121   -2.929429
     69          1           0        4.940565   -4.642067   -4.096655
     70          1           0        3.501184   -5.234870   -1.622094
     71          1           0        2.808233   -4.740202   -3.203807
     72          1           0        3.554888   -3.535069   -2.061498
     73          1           0        5.066905    0.759103   -6.207040
     74          1           0        5.698411   -0.876019   -5.798820
     75          1           0        6.833803    0.536906   -5.789351
     76          1           0        6.436698    4.450676   -2.519154
     77          1           0        4.024504    8.012491   -2.857225
     78          1           0        3.775879    7.542257   -1.069266
     79          1           0        2.796828    6.948875   -2.423920
     80         12           0       -5.074778   -1.046963    0.175721
     81          6           0       -7.555281    1.544295    0.068438
     82          6           0       -2.757074    1.399560    0.702368
     83          6           0       -2.816963   -3.248916   -0.172271
     84          6           0       -7.356857   -3.107785   -1.464657
     85          7           0       -5.255703    1.150978    0.344650
     86          6           0       -6.256773    2.018263    0.348934
     87          6           0       -5.854745    3.462601    0.751202
     88          6           0       -4.299044    3.397462    0.358220
     89          6           0       -4.071461    1.894794    0.509427
     90          6           0       -4.027052    3.778649   -1.087475
     91          6           0       -6.049019    3.731954    2.284733
     92          6           0       -5.971392    5.204468    2.693930
     93          1           0       -6.834002    5.672824    3.775139
     94          7           0       -3.168087   -1.029423    0.725985
     95          6           0       -2.385694    0.053782    0.915202
     96          6           0       -1.062544   -0.466639    1.292824
     97          6           0       -1.083075   -1.947886    1.150758
     98          6           0       -2.378691   -2.135148    0.529153
     99          6           0        0.039278    0.411002    1.811634
    100          6           0       -0.094204   -3.017632    1.502868
    101          8           0       -0.219886   -4.218624    1.073151
    102          6           0        1.075233   -2.596610    2.288154
    103          7           0       -5.002673   -2.838400   -0.876856
    104          6           0       -3.919001   -3.632135   -0.817222
    105          6           0       -4.200103   -4.985632   -1.425005
    106          6           0       -5.777148   -5.019120   -1.688479
    107          6           0       -6.137409   -3.582475   -1.250716
    108          6           0       -3.460341   -5.297375   -2.725764
    109          6           0       -6.569523   -6.201792   -1.067109
    110          6           0       -6.567540   -6.088911    0.440417
    111          7           0       -7.150341   -0.913229   -0.409262
    112          6           0       -7.903173   -1.880998   -1.109802
    113          6           0       -9.230376   -1.290013   -1.377560
    114          6           0       -9.149147   -0.000753   -0.830095
    115          6           0       -7.855454    0.204961   -0.279154
    116          6           0      -10.292462   -1.917480   -2.087748
    117          6           0       -9.860140    1.236719   -0.602402
    118          8           0      -11.017527    1.617642   -0.772922
    119          6           0       -8.818386    2.337178   -0.122662
    120          6           0       -9.397597    3.032629    1.078742
    121          8           0       -9.577680    2.413051    2.141896
    122          8           0       -9.439748    4.356754    0.843600
    123          6           0       -9.996672    5.090911    2.010939
    124          1           0       -1.924497    2.101196    0.643922
    125          1           0       -2.111321   -4.081319   -0.223974
    126          1           0       -8.156774   -3.721354   -1.884597
    127          1           0       -6.348198    4.245178    0.187434
    128          1           0       -3.688754    3.948931    1.068706
    129          1           0       -4.940627    3.916825   -1.646424
    130          1           0       -3.448983    2.963571   -1.502845
    131          1           0       -3.379803    4.659347   -1.129739
    132          1           0       -5.181064    3.339421    2.829995
    133          1           0       -6.971336    3.308522    2.632100
    134          1           0       -6.039028    5.876523    1.829810
    135          1           0       -4.978403    5.397996    3.106897
    136          1           0       -0.181834    1.473035    1.648541
    137          1           0        0.920708    0.218560    1.190411
    138          1           0        0.289032    0.201732    2.853979
    139          1           0        1.617363   -1.826775    1.744183
    140          1           0        1.619626   -3.514874    2.516857
    141          1           0        0.724542   -2.136619    3.218760
    142          1           0       -3.942035   -5.780220   -0.735706
    143          1           0       -6.009630   -5.088340   -2.761322
    144          1           0       -2.850990   -6.219209   -2.671175
    145          1           0       -2.841382   -4.446820   -2.978688
    146          1           0       -4.093857   -5.391997   -3.606053
    147          1           0       -6.084249   -7.150830   -1.307927
    148          1           0       -7.594411   -6.266245   -1.417027
    149          1           0       -5.608984   -6.536160    0.720112
    150          1           0       -7.401123   -6.643048    0.867155
    151          1           0       -6.546368   -5.039474    0.756469
    152          1           0      -11.199487   -1.715654   -1.533622
    153          1           0      -10.121340   -2.986475   -2.196032
    154          1           0      -10.224813   -1.392002   -3.044085
    155          1           0       -8.659495    3.023073   -0.955657
    156          1           0      -10.843379    5.679251    1.644008
    157          1           0       -9.146458    5.648979    2.446195
    158          1           0      -10.468116    4.506296    2.792232
 ---------------------------------------------------------------------

 SCF Done:  E(RCAM-B3LYP) =  -4069.81219329     A.U. after   19 cycles

 Excitation energies and oscillator strengths:

 Excited State   1:      Singlet-A      1.6614 eV  746.28 nm  f=0.2995  <S**2>=0.000
     309 -> 315       -0.11470
     310 -> 316        0.12586
     311 -> 313       -0.46111
     312 -> 314        0.50907
 This state for optimization and/or second-order correction.
 Total Energy, E(TD-HF/TD-DFT) =  -4069.75113939
 Copying the excited state density for this state as the 1-particle RhoCI density.

 Excited State   2:      Singlet-A      1.6857 eV  735.49 nm  f=0.4827  <S**2>=0.000
     309 -> 315        0.13247
     310 -> 316        0.11795
     311 -> 313        0.50776
     312 -> 314        0.46002

 Excited State   3:      Singlet-A      2.1827 eV  568.02 nm  f=0.0210  <S**2>=0.000
     309 -> 313        0.28267
     310 -> 314        0.57893
     311 -> 315       -0.11747
     312 -> 316       -0.24310

 Excited State   4:      Singlet-A      2.1965 eV  564.47 nm  f=0.1579  <S**2>=0.000
     309 -> 313        0.57504
     310 -> 314       -0.27932
     311 -> 315       -0.25306
     312 -> 316        0.12201

 Excited State   5:      Singlet-A      2.3944 eV  517.80 nm  f=0.0000  <S**2>=0.000
     312 -> 313        0.70653

 The electronic state is 1-A.
 Alpha  occ. eigenvalues --  -46.88103 -46.87476 -19.26639 -19.26228 -19.19394
 Alpha  occ. eigenvalues --  -19.19033 -19.19026 -19.18514 -19.18440 -19.17888
 Alpha  occ. eigenvalues --  -14.42739 -14.42303 -14.41687 -14.41179 -14.39704
 Alpha  occ. eigenvalues --  -14.39164 -14.38866 -14.38420 -10.39442 -10.38959
 Alpha  occ. eigenvalues --  -10.35654 -10.35182 -10.34664 -10.34066 -10.32040
 Alpha  occ. eigenvalues --  -10.31686 -10.31656 -10.31210 -10.31104 -10.30843
 Alpha  occ. eigenvalues --  -10.30827 -10.30767 -10.30414 -10.30221 -10.30174
 Alpha  occ. eigenvalues --  -10.30121 -10.29960 -10.29877 -10.29729 -10.29514
 Alpha  occ. eigenvalues --  -10.29246 -10.29226 -10.29089 -10.28955 -10.28649
 Alpha  occ. eigenvalues --  -10.28546 -10.28522 -10.28421 -10.28218 -10.28055
 Alpha  occ. eigenvalues --  -10.27996 -10.27898 -10.27846 -10.27817 -10.27742
 Alpha  occ. eigenvalues --  -10.27681 -10.27565 -10.27510 -10.27455 -10.27443
 Alpha  occ. eigenvalues --  -10.27375 -10.27302 -10.27291 -10.27282 -10.27238
 Alpha  occ. eigenvalues --  -10.27142 -10.26889 -10.26609 -10.26550 -10.26493
 Alpha  occ. eigenvalues --  -10.26237 -10.26175 -10.26110 -10.26044 -10.26017
 Alpha  occ. eigenvalues --  -10.25759 -10.25700 -10.25678 -10.25498 -10.25278
 Alpha  occ. eigenvalues --  -10.25099 -10.25017 -10.24693 -10.24616 -10.24513
 Alpha  occ. eigenvalues --  -10.24455  -3.16843  -3.16226  -1.91726  -1.91309
 Alpha  occ. eigenvalues --   -1.91152  -1.91108  -1.90697  -1.90533  -1.16990
 Alpha  occ. eigenvalues --   -1.16520  -1.08902  -1.08500  -1.07418  -1.07010
 Alpha  occ. eigenvalues --   -1.06817  -1.06760  -1.04869  -1.04301  -1.04009
 Alpha  occ. eigenvalues --   -1.03496  -1.03478  -1.02859  -1.02666  -1.01930
 Alpha  occ. eigenvalues --   -0.92247  -0.91809  -0.89670  -0.89499  -0.89333
 Alpha  occ. eigenvalues --   -0.88938  -0.88407  -0.88116  -0.88067  -0.87940
 Alpha  occ. eigenvalues --   -0.87623  -0.87525  -0.87494  -0.86930  -0.85282
 Alpha  occ. eigenvalues --   -0.84809  -0.84033  -0.83733  -0.83146  -0.82908
 Alpha  occ. eigenvalues --   -0.82737  -0.82455  -0.81872  -0.81443  -0.80862
 Alpha  occ. eigenvalues --   -0.80270  -0.79047  -0.78448  -0.77455  -0.77176
 Alpha  occ. eigenvalues --   -0.76966  -0.76733  -0.76197  -0.75645  -0.75041
 Alpha  occ. eigenvalues --   -0.74650  -0.73009  -0.72519  -0.71907  -0.71393
 Alpha  occ. eigenvalues --   -0.69932  -0.69615  -0.69151  -0.68639  -0.67895
 Alpha  occ. eigenvalues --   -0.67538  -0.67425  -0.67024  -0.65589  -0.65113
 Alpha  occ. eigenvalues --   -0.65088  -0.64864  -0.64595  -0.64480  -0.64401
 Alpha  occ. eigenvalues --   -0.64045  -0.62578  -0.62129  -0.60665  -0.60156
 Alpha  occ. eigenvalues --   -0.60103  -0.59595  -0.59226  -0.58815  -0.58745
 Alpha  occ. eigenvalues --   -0.58253  -0.57880  -0.57503  -0.57398  -0.57070
 Alpha  occ. eigenvalues --   -0.56563  -0.56292  -0.56024  -0.55768  -0.55734
 Alpha  occ. eigenvalues --   -0.55514  -0.55269  -0.55100  -0.54709  -0.54346
 Alpha  occ. eigenvalues --   -0.54214  -0.53711  -0.53528  -0.53502  -0.53184
 Alpha  occ. eigenvalues --   -0.53052  -0.53018  -0.52960  -0.52733  -0.52473
 Alpha  occ. eigenvalues --   -0.52434  -0.52264  -0.52137  -0.51922  -0.51725
 Alpha  occ. eigenvalues --   -0.51472  -0.51420  -0.51034  -0.50799  -0.50282
 Alpha  occ. eigenvalues --   -0.50215  -0.50074  -0.49789  -0.49780  -0.49693
 Alpha  occ. eigenvalues --   -0.49481  -0.49365  -0.49278  -0.49010  -0.48906
 Alpha  occ. eigenvalues --   -0.48870  -0.48684  -0.48610  -0.48376  -0.48226
 Alpha  occ. eigenvalues --   -0.48141  -0.47926  -0.47527  -0.47408  -0.47016
 Alpha  occ. eigenvalues --   -0.46942  -0.46855  -0.46591  -0.46534  -0.46371
 Alpha  occ. eigenvalues --   -0.46359  -0.46102  -0.46086  -0.45931  -0.45665
 Alpha  occ. eigenvalues --   -0.45337  -0.45055  -0.44838  -0.44731  -0.44381
 Alpha  occ. eigenvalues --   -0.44352  -0.44309  -0.44271  -0.44239  -0.43930
 Alpha  occ. eigenvalues --   -0.43915  -0.43761  -0.43732  -0.43623  -0.43406
 Alpha  occ. eigenvalues --   -0.43263  -0.43208  -0.43011  -0.42787  -0.42747
 Alpha  occ. eigenvalues --   -0.42734  -0.42393  -0.42150  -0.41948  -0.41810
 Alpha  occ. eigenvalues --   -0.41789  -0.41495  -0.41387  -0.41285  -0.41126
 Alpha  occ. eigenvalues --   -0.41061  -0.40791  -0.40676  -0.40587  -0.40542
 Alpha  occ. eigenvalues --   -0.40514  -0.40331  -0.40062  -0.39430  -0.39287
 Alpha  occ. eigenvalues --   -0.38620  -0.38196  -0.38089  -0.37579  -0.37495
 Alpha  occ. eigenvalues --   -0.37481  -0.37100  -0.37014  -0.37012  -0.36639
 Alpha  occ. eigenvalues --   -0.36419  -0.36059  -0.34549  -0.34127  -0.34074
 Alpha  occ. eigenvalues --   -0.33723  -0.33446  -0.32991  -0.31546  -0.31285
 Alpha  occ. eigenvalues --   -0.31065  -0.30786  -0.30302  -0.29794  -0.29721
 Alpha  occ. eigenvalues --   -0.29590  -0.29145  -0.29034  -0.24348  -0.23849
 Alpha  occ. eigenvalues --   -0.21380  -0.20932
 Alpha virt. eigenvalues --   -0.09034  -0.08607  -0.02004  -0.01502  -0.00318
 Alpha virt. eigenvalues --    0.00159   0.01898   0.02024   0.02413   0.03381
 Alpha virt. eigenvalues --    0.04424   0.04746   0.04916   0.05302   0.05765

 Mulliken charges:
               1
     1  Mg   0.829035
     2  C   -0.003554
     3  C   -0.094570
     4  C   -0.043857
     5  C   -0.062554
     6  N   -0.256520
     7  C   -0.053867
     8  C   -0.013344
     9  C   -0.086723
    10  C    0.045006
    11  C    0.104670
    12  C    0.053438
    13  C   -0.071555
    14  H    0.034548
    15  N   -0.434918
    16  C    0.166943
    17  C   -0.178916
    18  C   -0.004368
    19  C    0.146583
    20  C    0.110422
    21  C    0.011976
    22  O   -0.247424
    23  C    0.062816
    24  N   -0.340593
    25  C    0.041503
    26  C   -0.028495
    27  C   -0.024337
    28  C    0.075608
    29  C    0.075872
    30  C    0.034482
    31  C   -0.003777
    32  N   -0.310809
    33  C    0.080705
    34  C   -0.169043
    35  C    0.008576
    36  C    0.082242
    37  C    0.127240
    38  C    0.046141
    39  O   -0.187936
    40  C   -0.005584
    41  C    0.213382
    42  O   -0.259308
    43  O   -0.304170
    44  C    0.157708
    45  H   -0.017466
    46  H   -0.015159
    47  H   -0.040250
    48  H    0.001522
    49  H   -0.004348
    50  H    0.025790
    51  H    0.017119
    52  H    0.017137
    53  H    0.009303
    54  H    0.041862
    55  H    0.019349
    56  H    0.018267
    57  H    0.005854
    58  H    0.027803
    59  H    0.038317
    60  H    0.037776
    61  H    0.037444
    62  H    0.029504
    63  H    0.019772
    64  H    0.009446
    65  H    0.024306
    66  H    0.012065
    67  H    0.004913
    68  H    0.007027
    69  H    0.003755
    70  H    0.015156
    71  H    0.019198
    72  H    0.026832
    73  H    0.047830
    74  H    0.010094
    75  H    0.046468
    76  H    0.035763
    77  H    0.044005
    78  H    0.046199
    79  H    0.052502
    80  Mg   0.837799
    81  C   -0.016908
    82  C   -0.087893
    83  C   -0.045477
    84  C   -0.064975
    85  N   -0.254575
    86  C   -0.049719
    87  C   -0.015150
    88  C   -0.090210
    89  C    0.045043
    90  C    0.113946
    91  C    0.062685
    92  C   -0.077322
    93  H    0.033703
    94  N   -0.423725
    95  C    0.162756
    96  C   -0.175419
    97  C   -0.007984
    98  C    0.152709
    99  C    0.101652
   100  C    0.013884
   101  O   -0.252731
   102  C    0.056380
   103  N   -0.349974
   104  C    0.037709
   105  C   -0.019846
   106  C   -0.034727
   107  C    0.088789
   108  C    0.073703
   109  C    0.034863
   110  C   -0.007591
   111  N   -0.323985
   112  C    0.078205
   113  C   -0.163464
   114  C    0.002148
   115  C    0.096016
   116  C    0.131551
   117  C    0.042108
   118  O   -0.188529
   119  C    0.000974
   120  C    0.211188
   121  O   -0.251383
   122  O   -0.305486
   123  C    0.152224
   124  H   -0.015318
   125  H   -0.015913
   126  H   -0.040954
   127  H   -0.000749
   128  H   -0.004847
   129  H    0.021688
   130  H    0.017342
   131  H    0.018155
   132  H    0.013339
   133  H    0.037257
   134  H    0.021006
   135  H    0.019016
   136  H    0.011216
   137  H    0.026528
   138  H    0.037740
   139  H    0.040680
   140  H    0.044476
   141  H    0.030639
   142  H    0.014152
   143  H    0.012203
   144  H    0.024213
   145  H    0.012085
   146  H    0.005478
   147  H    0.005801
   148  H    0.003419
   149  H    0.010837
   150  H    0.017517
   151  H    0.030268
   152  H    0.045530
   153  H    0.008141
   154  H    0.046845
   155  H    0.035212
   156  H    0.043646
   157  H    0.049325
   158  H    0.053235
 Sum of Mulliken charges =  -0.00000

 Dipole moment (field-independent basis, Debye):
    X=              6.3429    Y=              2.2061    Z=              3.5619  Tot=              7.6017
 Quadrupole moment (field-independent basis, Debye-Ang):
   XX=           -554.7840   YY=           -482.6919   ZZ=           -503.0015
   XY=             17.3263   XZ=             27.1928   YZ=             50.9245

 Normal termination of Gaussian 16 at Sat Sep 11 01:23:31 2021.
