 Gaussian 16, Revision A.03,
 Gaussian 16:  ES64L-G16RevA.03 25-Dec-2016

 -----------------------------------
 #p cam-b3lyp/Def2SVP td=(nstates=5)
 -----------------------------------

 --------------------------------
 TDDFT excited states in gaussian
 --------------------------------
 Symbolic Z-matrix:
 Charge =  0 Multiplicity = 1

                         Standard orientation:
 ---------------------------------------------------------------------
 Center     Atomic      Atomic             Coordinates (Angstroms)
 Number     Number       Type             X           Y           Z
 ---------------------------------------------------------------------
      1         12           0        7.800284   -0.950184    0.113627
      2          6           0        8.387497    2.388588   -1.035285
      3          6           0        8.844208    0.084818    3.192922
      4          6           0        7.723985   -3.982511    1.038717
      5          6           0        7.900883   -1.957756   -3.221090
      6          7           0        8.500131    1.013075    0.859599
      7          6           0        8.621672    2.227223    0.332110
      8          6           0        8.948256    3.328335    1.384853
      9          6           0        9.611738    2.412919    2.509044
     10          6           0        8.918902    1.099213    2.192693
     11          6           0       11.115954    2.229115    2.335689
     12          6           0        7.660721    4.044327    1.915267
     13          6           0        7.907208    5.340540    2.692718
     14          1           0        6.951974    6.429988    2.558628
     15          7           0        7.749672   -1.736026    1.925460
     16          6           0        8.203968   -1.167116    3.067932
     17          6           0        7.940168   -2.146614    4.143884
     18          6           0        7.469167   -3.407339    3.506055
     19          6           0        7.656163   -3.097005    2.111744
     20          6           0        8.091564   -1.829976    5.600101
     21          6           0        6.945123   -4.692317    4.064930
     22          8           0        6.811524   -5.741880    3.347196
     23          6           0        6.672104   -4.715839    5.513360
     24          7           0        8.028735   -2.753914   -0.912045
     25          6           0        7.891501   -3.926925   -0.284194
     26          6           0        7.815746   -5.063196   -1.260456
     27          6           0        7.685411   -4.396483   -2.705538
     28          6           0        7.797494   -2.908839   -2.290059
     29          6           0        9.004946   -6.033626   -1.251526
     30          6           0        6.478135   -4.830778   -3.574037
     31          6           0        5.192342   -4.338458   -2.948373
     32          7           0        7.913053    0.034193   -1.817521
     33          6           0        7.965254   -0.581988   -3.076199
     34          6           0        8.144802    0.488516   -4.074122
     35          6           0        8.201564    1.659190   -3.320368
     36          6           0        8.092394    1.337724   -1.937243
     37          6           0        8.291594    0.303750   -5.477243
     38          6           0        8.353767    3.104569   -3.360010
     39          8           0        8.393164    3.948098   -4.256893
     40          6           0        8.602521    3.623121   -1.875069
     41          6           0        7.690871    4.797558   -1.645067
     42          8           0        6.452440    4.648387   -1.607614
     43          8           0        8.420297    5.860071   -1.271508
     44          6           0        7.573340    7.051910   -0.998857
     45          1           0        9.372308    0.234259    4.136701
     46          1           0        7.590051   -5.032870    1.305636
     47          1           0        7.856087   -2.188476   -4.287024
     48          1           0        9.661599    4.081102    1.048835
     49          1           0        9.350112    2.747201    3.512802
     50          1           0       11.463069    2.652568    1.393288
     51          1           0       11.281408    1.151699    2.352797
     52          1           0       11.656508    2.628939    3.194012
     53          1           0        7.210991    3.438736    2.702073
     54          1           0        6.964316    4.240262    1.099206
     55          1           0        8.924726    5.704732    2.548041
     56          1           0        7.848609    5.116357    3.757851
     57          1           0        8.609886   -0.884111    5.752506
     58          1           0        8.762926   -2.578436    6.020564
     59          1           0        7.137455   -1.854643    6.126789
     60          1           0        7.589111   -4.485705    6.056209
     61          1           0        6.219883   -5.685530    5.718408
     62          1           0        5.966269   -3.919902    5.752591
     63          1           0        6.939662   -5.682523   -1.072475
     64          1           0        8.552704   -4.605651   -3.332216
     65          1           0        8.722220   -7.071003   -1.070917
     66          1           0        9.717479   -5.686622   -0.503745
     67          1           0        9.614156   -6.018363   -2.154880
     68          1           0        6.416366   -5.917475   -3.621169
     69          1           0        6.526984   -4.456701   -4.596745
     70          1           0        4.972438   -5.106410   -2.207613
     71          1           0        4.402197   -4.281227   -3.697778
     72          1           0        5.343972   -3.401810   -2.411545
     73          1           0        7.672852    1.065411   -5.951583
     74          1           0        7.987042   -0.698238   -5.778692
     75          1           0        9.363205    0.466508   -5.591328
     76          1           0        9.653786    3.902514   -1.812586
     77          1           0        7.943815    7.860042   -1.629653
     78          1           0        7.590633    7.203981    0.080486
     79          1           0        6.535852    6.991830   -1.329536
     80         12           0       -7.969607    0.928177    0.306330
     81          6           0       -8.188755   -2.572084   -0.454737
     82          6           0       -7.068195    1.426203   -2.945441
     83          6           0       -7.331500    3.946184    1.049222
     84          6           0       -7.763289    0.041918    3.670501
     85          7           0       -7.698778   -0.471223   -1.384995
     86          6           0       -7.870048   -1.771342   -1.571291
     87          6           0       -7.768472   -2.227891   -3.051426
     88          6           0       -6.866918   -1.023545   -3.613221
     89          6           0       -7.256314    0.061301   -2.611155
     90          6           0       -5.374319   -1.278616   -3.485046
     91          6           0       -9.167935   -2.276433   -3.759352
     92          6           0       -9.183131   -3.005519   -5.104695
     93          1           0      -10.369065   -3.777943   -5.464405
     94          7           0       -7.777948    2.524288   -0.857401
     95          6           0       -7.426768    2.543940   -2.160311
     96          6           0       -7.408418    3.962178   -2.550700
     97          6           0       -7.616655    4.787470   -1.329935
     98          6           0       -7.561465    3.762915   -0.306542
     99          6           0       -7.286619    4.411836   -3.977727
    100          6           0       -7.817737    6.257387   -1.117558
    101          8           0       -7.740835    6.786120    0.047502
    102          6           0       -8.014623    7.073284   -2.324638
    103          7           0       -7.388534    1.852098    2.075808
    104          6           0       -7.229088    3.185687    2.139384
    105          6           0       -7.080719    3.649787    3.568721
    106          6           0       -7.417119    2.373599    4.471913
    107          6           0       -7.623801    1.323124    3.358725
    108          6           0       -5.705249    4.195584    3.951553
    109          6           0       -8.528462    2.543179    5.543751
    110          6           0       -9.868534    2.737287    4.871500
    111          7           0       -8.156941   -0.896241    1.448451
    112          6           0       -8.008518   -1.047618    2.844574
    113          6           0       -8.112165   -2.491485    3.139393
    114          6           0       -8.292120   -3.086886    1.881771
    115          6           0       -8.279861   -2.086763    0.872255
    116          6           0       -7.990598   -3.088702    4.425735
    117          6           0       -8.479024   -4.335063    1.177637
    118          8           0       -8.656384   -5.504803    1.515275
    119          6           0       -8.293867   -4.070007   -0.378597
    120          6           0       -9.436163   -4.729843   -1.101285
    121          8           0      -10.602115   -4.328118   -0.940658
    122          8           0       -8.943692   -5.577663   -2.022716
    123          6           0      -10.038482   -6.248301   -2.773386
    124          1           0       -6.559442    1.666239   -3.879485
    125          1           0       -7.215852    4.983500    1.371841
    126          1           0       -7.807253   -0.305738    4.704847
    127          1           0       -7.261171   -3.173379   -3.201366
    128          1           0       -7.168273   -0.740131   -4.618320
    129          1           0       -5.165988   -2.179711   -2.927579
    130          1           0       -4.971237   -0.414965   -2.972531
    131          1           0       -4.907109   -1.287450   -4.473963
    132          1           0       -9.436872   -1.265167   -4.090643
    133          1           0       -9.908867   -2.700718   -3.110025
    134          1           0       -8.275005   -3.600222   -5.261514
    135          1           0       -9.156804   -2.260393   -5.903511
    136          1           0       -6.982157    3.587665   -4.634574
    137          1           0       -6.449293    5.116773   -4.020496
    138          1           0       -8.187698    4.910986   -4.340441
    139          1           0       -7.155338    6.959864   -2.981310
    140          1           0       -8.230187    8.081023   -1.964245
    141          1           0       -8.881695    6.685872   -2.871176
    142          1           0       -7.789151    4.437158    3.795171
    143          1           0       -6.544150    2.045716    5.055231
    144          1           0       -5.740458    5.227058    4.350169
    145          1           0       -5.064038    4.145824    3.081536
    146          1           0       -5.156750    3.597563    4.677299
    147          1           0       -8.346744    3.441501    6.138858
    148          1           0       -8.594673    1.708112    6.233157
    149          1           0       -9.876410    3.806840    4.641108
    150          1           0      -10.678519    2.473385    5.548494
    151          1           0       -9.913791    2.194792    3.920027
    152          1           0       -8.774259   -3.830931    4.499716
    153          1           0       -8.068741   -2.346645    5.217585
    154          1           0       -6.982850   -3.506249    4.352463
    155          1           0       -7.329342   -4.487822   -0.669594
    156          1           0       -9.879909   -7.326594   -2.674302
    157          1           0      -10.002648   -5.825676   -3.795084
    158          1           0      -11.046148   -6.146405   -2.387787
 ---------------------------------------------------------------------

 SCF Done:  E(RCAM-B3LYP) =  -4069.81183438     A.U. after   19 cycles

 Excitation energies and oscillator strengths:

 Excited State   1:      Singlet-A      1.6709 eV  742.01 nm  f=0.0767  <S**2>=0.000
     309 -> 315        0.10117
     310 -> 316        0.13997
     311 -> 313        0.40042
     312 -> 314        0.55736
 This state for optimization and/or second-order correction.
 Total Energy, E(TD-HF/TD-DFT) =  -4069.75042888
 Copying the excited state density for this state as the 1-particle RhoCI density.

 Excited State   2:      Singlet-A      1.6845 eV  736.03 nm  f=0.6772  <S**2>=0.000
     309 -> 315        0.14353
     310 -> 316       -0.10264
     311 -> 313        0.55664
     312 -> 314       -0.39999

 Excited State   3:      Singlet-A      2.1860 eV  567.16 nm  f=0.0697  <S**2>=0.000
     309 -> 313        0.11893
     310 -> 314        0.63155
     312 -> 316       -0.26816

 Excited State   4:      Singlet-A      2.1930 eV  565.35 nm  f=0.1254  <S**2>=0.000
     309 -> 313        0.62970
     310 -> 314       -0.11802
     311 -> 315       -0.27364

 Excited State   5:      Singlet-A      2.7647 eV  448.46 nm  f=0.0000  <S**2>=0.000
     312 -> 313        0.70710

 The electronic state is 1-A.
 Alpha  occ. eigenvalues --  -46.87837 -46.87589 -19.26328 -19.26293 -19.19103
 Alpha  occ. eigenvalues --  -19.19068 -19.18838 -19.18638 -19.18216 -19.17985
 Alpha  occ. eigenvalues --  -14.42488 -14.42423 -14.41489 -14.41290 -14.39441
 Alpha  occ. eigenvalues --  -14.39278 -14.38629 -14.38530 -10.39126 -10.39032
 Alpha  occ. eigenvalues --  -10.35470 -10.35315 -10.34436 -10.34163 -10.31721
 Alpha  occ. eigenvalues --  -10.31706 -10.31446 -10.31235 -10.30945 -10.30944
 Alpha  occ. eigenvalues --  -10.30612 -10.30548 -10.30330 -10.30290 -10.30244
 Alpha  occ. eigenvalues --  -10.30072 -10.29963 -10.29831 -10.29670 -10.29362
 Alpha  occ. eigenvalues --  -10.29330 -10.29292 -10.28783 -10.28641 -10.28589
 Alpha  occ. eigenvalues --  -10.28566 -10.28403 -10.28330 -10.28150 -10.28054
 Alpha  occ. eigenvalues --  -10.27929 -10.27834 -10.27765 -10.27621 -10.27590
 Alpha  occ. eigenvalues --  -10.27544 -10.27508 -10.27488 -10.27469 -10.27443
 Alpha  occ. eigenvalues --  -10.27412 -10.27392 -10.27368 -10.27324 -10.27201
 Alpha  occ. eigenvalues --  -10.26984 -10.26737 -10.26623 -10.26421 -10.26330
 Alpha  occ. eigenvalues --  -10.26265 -10.26237 -10.26102 -10.26062 -10.25920
 Alpha  occ. eigenvalues --  -10.25902 -10.25869 -10.25800 -10.25467 -10.25346
 Alpha  occ. eigenvalues --  -10.24875 -10.24826 -10.24802 -10.24749 -10.24695
 Alpha  occ. eigenvalues --  -10.24621  -3.16580  -3.16338  -1.91461  -1.91221
 Alpha  occ. eigenvalues --   -1.91048  -1.90890  -1.90809  -1.90646  -1.16677
 Alpha  occ. eigenvalues --   -1.16587  -1.08675  -1.08594  -1.07238  -1.06890
 Alpha  occ. eigenvalues --   -1.06887  -1.06689  -1.04619  -1.04421  -1.03800
 Alpha  occ. eigenvalues --   -1.03592  -1.03274  -1.02969  -1.02451  -1.02041
 Alpha  occ. eigenvalues --   -0.92013  -0.91917  -0.89563  -0.89434  -0.89223
 Alpha  occ. eigenvalues --   -0.89072  -0.88328  -0.88163  -0.87917  -0.87729
 Alpha  occ. eigenvalues --   -0.87711  -0.87612  -0.87305  -0.87040  -0.85017
 Alpha  occ. eigenvalues --   -0.84925  -0.83980  -0.83823  -0.82995  -0.82857
 Alpha  occ. eigenvalues --   -0.82683  -0.82578  -0.81627  -0.81534  -0.80635
 Alpha  occ. eigenvalues --   -0.80375  -0.78833  -0.78560  -0.77258  -0.77073
 Alpha  occ. eigenvalues --   -0.76972  -0.76833  -0.75961  -0.75764  -0.74937
 Alpha  occ. eigenvalues --   -0.74743  -0.72816  -0.72630  -0.71710  -0.71510
 Alpha  occ. eigenvalues --   -0.69954  -0.69707  -0.68908  -0.68754  -0.67679
 Alpha  occ. eigenvalues --   -0.67533  -0.67251  -0.67127  -0.65324  -0.65199
 Alpha  occ. eigenvalues --   -0.64894  -0.64703  -0.64660  -0.64586  -0.64312
 Alpha  occ. eigenvalues --   -0.64145  -0.62340  -0.62217  -0.60476  -0.60266
 Alpha  occ. eigenvalues --   -0.59841  -0.59720  -0.59028  -0.58925  -0.58544
 Alpha  occ. eigenvalues --   -0.58358  -0.57628  -0.57490  -0.57348  -0.57172
 Alpha  occ. eigenvalues --   -0.56350  -0.56134  -0.56019  -0.55822  -0.55554
 Alpha  occ. eigenvalues --   -0.55383  -0.55380  -0.55191  -0.54567  -0.54432
 Alpha  occ. eigenvalues --   -0.53930  -0.53835  -0.53336  -0.53255  -0.53160
 Alpha  occ. eigenvalues --   -0.53070  -0.52955  -0.52834  -0.52785  -0.52585
 Alpha  occ. eigenvalues --   -0.52488  -0.52355  -0.51966  -0.51827  -0.51650
 Alpha  occ. eigenvalues --   -0.51583  -0.51239  -0.51137  -0.50598  -0.50393
 Alpha  occ. eigenvalues --   -0.50072  -0.49949  -0.49903  -0.49804  -0.49547
 Alpha  occ. eigenvalues --   -0.49412  -0.49253  -0.49133  -0.49128  -0.49031
 Alpha  occ. eigenvalues --   -0.48633  -0.48499  -0.48488  -0.48477  -0.48318
 Alpha  occ. eigenvalues --   -0.48263  -0.47731  -0.47522  -0.47332  -0.47045
 Alpha  occ. eigenvalues --   -0.46838  -0.46643  -0.46589  -0.46479  -0.46400
 Alpha  occ. eigenvalues --   -0.46205  -0.46202  -0.46024  -0.45867  -0.45761
 Alpha  occ. eigenvalues --   -0.45240  -0.45147  -0.44621  -0.44540  -0.44449
 Alpha  occ. eigenvalues --   -0.44403  -0.44185  -0.44123  -0.44056  -0.44055
 Alpha  occ. eigenvalues --   -0.44014  -0.43865  -0.43538  -0.43493  -0.43422
 Alpha  occ. eigenvalues --   -0.43316  -0.43067  -0.42868  -0.42837  -0.42741
 Alpha  occ. eigenvalues --   -0.42701  -0.42493  -0.42053  -0.41905  -0.41744
 Alpha  occ. eigenvalues --   -0.41602  -0.41569  -0.41390  -0.41178  -0.40916
 Alpha  occ. eigenvalues --   -0.40906  -0.40849  -0.40650  -0.40626  -0.40613
 Alpha  occ. eigenvalues --   -0.40434  -0.40265  -0.40154  -0.39489  -0.39377
 Alpha  occ. eigenvalues --   -0.38509  -0.38291  -0.37782  -0.37584  -0.37361
 Alpha  occ. eigenvalues --   -0.37300  -0.37203  -0.37126  -0.36757  -0.36714
 Alpha  occ. eigenvalues --   -0.36234  -0.36155  -0.34327  -0.34184  -0.33817
 Alpha  occ. eigenvalues --   -0.33802  -0.33227  -0.33105  -0.31368  -0.31198
 Alpha  occ. eigenvalues --   -0.31074  -0.30902  -0.30076  -0.29891  -0.29486
 Alpha  occ. eigenvalues --   -0.29364  -0.29252  -0.29142  -0.24120  -0.23965
 Alpha  occ. eigenvalues --   -0.21167  -0.21045
 Alpha virt. eigenvalues --   -0.08813  -0.08719  -0.01788  -0.01613  -0.00091
 Alpha virt. eigenvalues --    0.00048   0.02157   0.02273   0.03074   0.03291
 Alpha virt. eigenvalues --    0.04682   0.04803   0.05052   0.05225   0.06146

 Mulliken charges:
               1
     1  Mg   0.838648
     2  C   -0.002987
     3  C   -0.094075
     4  C   -0.045845
     5  C   -0.064032
     6  N   -0.256803
     7  C   -0.052479
     8  C   -0.014031
     9  C   -0.087007
    10  C    0.046359
    11  C    0.104785
    12  C    0.053459
    13  C   -0.071896
    14  H    0.036255
    15  N   -0.433207
    16  C    0.168489
    17  C   -0.177057
    18  C   -0.003881
    19  C    0.148750
    20  C    0.110151
    21  C    0.012400
    22  O   -0.249383
    23  C    0.062422
    24  N   -0.341126
    25  C    0.041306
    26  C   -0.028269
    27  C   -0.023910
    28  C    0.074732
    29  C    0.076121
    30  C    0.035163
    31  C   -0.004472
    32  N   -0.310390
    33  C    0.080253
    34  C   -0.170017
    35  C    0.008280
    36  C    0.082832
    37  C    0.127395
    38  C    0.045937
    39  O   -0.188690
    40  C   -0.005245
    41  C    0.212854
    42  O   -0.257300
    43  O   -0.304745
    44  C    0.157711
    45  H   -0.017460
    46  H   -0.016656
    47  H   -0.041701
    48  H    0.000958
    49  H   -0.003938
    50  H    0.025484
    51  H    0.016473
    52  H    0.016777
    53  H    0.011212
    54  H    0.044031
    55  H    0.017909
    56  H    0.018033
    57  H    0.005929
    58  H    0.026999
    59  H    0.039693
    60  H    0.037375
    61  H    0.036000
    62  H    0.031528
    63  H    0.016678
    64  H    0.009469
    65  H    0.023398
    66  H    0.012629
    67  H    0.004760
    68  H    0.006491
    69  H    0.004468
    70  H    0.009090
    71  H    0.017557
    72  H    0.028934
    73  H    0.047172
    74  H    0.008905
    75  H    0.046072
    76  H    0.035210
    77  H    0.042938
    78  H    0.046560
    79  H    0.053568
    80  Mg   0.837929
    81  C   -0.016845
    82  C   -0.087544
    83  C   -0.045388
    84  C   -0.064956
    85  N   -0.254574
    86  C   -0.049797
    87  C   -0.015116
    88  C   -0.090509
    89  C    0.045713
    90  C    0.114233
    91  C    0.062529
    92  C   -0.077835
    93  H    0.034645
    94  N   -0.423590
    95  C    0.162939
    96  C   -0.174152
    97  C   -0.007714
    98  C    0.152255
    99  C    0.099145
   100  C    0.015707
   101  O   -0.253297
   102  C    0.061164
   103  N   -0.350038
   104  C    0.037644
   105  C   -0.019857
   106  C   -0.034690
   107  C    0.088847
   108  C    0.073656
   109  C    0.034797
   110  C   -0.007616
   111  N   -0.324045
   112  C    0.078363
   113  C   -0.163319
   114  C    0.002221
   115  C    0.096120
   116  C    0.131501
   117  C    0.042280
   118  O   -0.188135
   119  C    0.000963
   120  C    0.211227
   121  O   -0.251116
   122  O   -0.305589
   123  C    0.152076
   124  H   -0.019062
   125  H   -0.015604
   126  H   -0.040813
   127  H   -0.000689
   128  H   -0.004284
   129  H    0.022400
   130  H    0.015024
   131  H    0.016593
   132  H    0.013903
   133  H    0.037547
   134  H    0.020801
   135  H    0.019667
   136  H    0.009040
   137  H    0.026899
   138  H    0.039700
   139  H    0.038723
   140  H    0.036286
   141  H    0.033764
   142  H    0.014253
   143  H    0.012131
   144  H    0.024895
   145  H    0.012211
   146  H    0.005333
   147  H    0.005976
   148  H    0.003419
   149  H    0.010889
   150  H    0.017725
   151  H    0.030262
   152  H    0.045815
   153  H    0.008232
   154  H    0.046848
   155  H    0.035101
   156  H    0.043792
   157  H    0.049519
   158  H    0.053478
 Sum of Mulliken charges =  -0.00000

 Dipole moment (field-independent basis, Debye):
    X=              4.2615    Y=              1.4626    Z=              0.7028  Tot=              4.5600
 Quadrupole moment (field-independent basis, Debye-Ang):
   XX=           -520.7881   YY=           -543.3132   ZZ=           -454.7467
   XY=            -22.0608   XZ=             65.3844   YZ=             39.4610

 Normal termination of Gaussian 16 at Sat Sep 11 20:51:04 2021.
