 Gaussian 16, Revision A.03,
 Gaussian 16:  ES64L-G16RevA.03 25-Dec-2016

 -----------------------------------
 #p cam-b3lyp/Def2SVP td=(nstates=5)
 -----------------------------------

 --------------------------------
 TDDFT excited states in gaussian
 --------------------------------
 Symbolic Z-matrix:
 Charge =  0 Multiplicity = 1

                         Standard orientation:
 ---------------------------------------------------------------------
 Center     Atomic      Atomic             Coordinates (Angstroms)
 Number     Number       Type             X           Y           Z
 ---------------------------------------------------------------------
      1         12           0        6.449488    1.027197    0.212646
      2          6           0        7.220750   -2.444237   -0.195414
      3          6           0        7.309502    1.450311   -3.062169
      4          6           0        6.212914    4.156670    0.667681
      5          6           0        6.749256    0.538111    3.650174
      6          7           0        7.157857   -0.393821   -1.329938
      7          6           0        7.354209   -1.707830   -1.374625
      8          6           0        7.641736   -2.241081   -2.810015
      9          6           0        8.196185   -0.900006   -3.470394
     10          6           0        7.485613    0.114912   -2.592354
     11          6           0        9.702209   -0.719306   -3.309951
     12          6           0        6.343876   -2.740097   -3.529929
     13          6           0        6.576842   -3.570658   -4.795333
     14          1           0        5.668296   -4.668543   -5.089512
     15          7           0        6.248313    2.499541   -1.089116
     16          6           0        6.640051    2.493113   -2.385952
     17          6           0        6.271238    3.817877   -2.929697
     18          6           0        5.805849    4.662160   -1.794490
     19          6           0        6.098931    3.804113   -0.675009
     20          6           0        6.331173    4.154428   -4.388083
     21          6           0        5.203741    6.030080   -1.728214
     22          8           0        5.087021    6.669225   -0.627104
     23          6           0        4.830238    6.646437   -3.014154
     24          7           0        6.691187    2.239899    1.894482
     25          6           0        6.473527    3.558107    1.831747
     26          6           0        6.429673    4.170023    3.200533
     27          6           0        6.421190    2.949642    4.230266
     28          6           0        6.551346    1.785368    3.217450
     29          6           0        7.583970    5.121036    3.545763
     30          6           0        5.263926    2.906023    5.259469
     31          6           0        3.954091    2.649669    4.548335
     32          7           0        6.727222   -0.671495    1.534900
     33          6           0        6.847068   -0.641846    2.931836
     34          6           0        7.129349   -2.020942    3.370561
     35          6           0        7.170802   -2.758946    2.189258
     36          6           0        6.955742   -1.891018    1.080772
     37          6           0        7.367234   -2.437068    4.710219
     38          6           0        7.371208   -4.074616    1.603847
     39          8           0        7.499527   -5.213876    2.054531
     40          6           0        7.532635   -3.902981    0.028947
     41          6           0        6.644974   -4.921654   -0.632620
     42          8           0        5.402819   -4.842932   -0.541950
     43          8           0        7.380082   -5.683027   -1.457525
     44          6           0        6.554517   -6.695691   -2.168234
     45          1           0        7.775300    1.743912   -4.004916
     46          1           0        6.027491    5.211849    0.878995
     47          1           0        6.771249    0.294647    4.713985
     48          1           0        8.400223   -3.022431   -2.861127
     49          1           0        7.876269   -0.794298   -4.506831
     50          1           0       10.127169   -1.479771   -2.654952
     51          1           0        9.831781    0.272400   -2.876105
     52          1           0       10.194307   -0.687579   -4.282376
     53          1           0        5.821618   -1.886431   -3.961858
     54          1           0        5.712366   -3.302118   -2.840978
     55          1           0        7.612998   -3.902014   -4.869456
     56          1           0        6.437366   -2.921942   -5.660153
     57          1           0        6.867440    3.393034   -4.953098
     58          1           0        6.947627    5.048061   -4.483555
     59          1           0        5.342508    4.343400   -4.806607
     60          1           0        5.714199    6.720535   -3.647929
     61          1           0        4.334312    7.584011   -2.765434
     62          1           0        4.135131    5.986105   -3.533517
     63          1           0        5.523432    4.758724    3.336854
     64          1           0        7.322808    2.925021    4.842764
     65          1           0        7.256592    6.119407    3.836941
     66          1           0        8.253540    5.163935    2.687202
     67          1           0        8.254588    4.761629    4.325836
     68          1           0        5.171103    3.865811    5.766556
     69          1           0        5.395496    2.139008    6.022770
     70          1           0        3.659029    3.644188    4.215618
     71          1           0        3.220084    2.235812    5.240554
     72          1           0        4.097761    2.037432    3.657823
     73          1           0        6.807406   -3.362310    4.846193
     74          1           0        7.052677   -1.675324    5.423243
     75          1           0        8.448806   -2.570113    4.691300
     76          1           0        8.585368   -4.068264   -0.198114
     77          1           0        6.993355   -7.671424   -1.959427
     78          1           0        6.501673   -6.377007   -3.209413
     79          1           0        5.541100   -6.841172   -1.792521
     80         12           0       -6.617384   -1.080022    0.052610
     81          6           0       -6.959575    2.395511   -0.773621
     82          6           0       -5.927996   -0.099337    3.245981
     83          6           0       -5.868437   -4.092317    0.710333
     84          6           0       -6.202198   -1.705320   -3.350672
     85          7           0       -6.490497    0.918429    0.991955
     86          6           0       -6.700727    2.163947    0.593428
     87          6           0       -6.708955    3.212705    1.737812
     88          6           0       -5.822867    2.407648    2.808142
     89          6           0       -6.121144    0.981758    2.349301
     90          6           0       -4.330594    2.654359    2.661250
     91          6           0       -8.153821    3.492008    2.282220
     92          6           0       -8.275032    4.723821    3.182051
     93          1           0       -9.498246    5.518465    3.113138
     94          7           0       -6.472064   -2.015824    1.796663
     95          6           0       -6.209525   -1.460891    2.998501
     96          6           0       -6.188428   -2.574300    3.959763
     97          6           0       -6.296535   -3.850468    3.201849
     98          6           0       -6.193344   -3.359228    1.842395
     99          6           0       -6.154229   -2.365670    5.445940
    100          6           0       -6.452458   -5.278190    3.630192
    101          8           0       -6.286026   -6.249190    2.810258
    102          6           0       -6.713728   -5.509361    5.058400
    103          7           0       -5.898996   -2.641846   -1.116563
    104          6           0       -5.708177   -3.865796   -0.593634
    105          6           0       -5.453910   -4.887787   -1.675883
    106          6           0       -5.754624   -4.136633   -3.055342
    107          6           0       -6.057760   -2.722745   -2.512730
    108          6           0       -4.044729   -5.478612   -1.715101
    109          6           0       -6.787170   -4.800047   -4.007408
    110          6           0       -8.165376   -4.752284   -3.388004
    111          7           0       -6.764539    0.071403   -1.769647
    112          6           0       -6.525141   -0.380558   -3.085895
    113          6           0       -6.638320    0.792711   -3.976429
    114          6           0       -6.915182    1.858514   -3.106992
    115          6           0       -6.950661    1.386623   -1.767007
    116          6           0       -6.442315    0.788966   -5.386281
    117          6           0       -7.174980    3.277354   -3.017045
    118          8           0       -7.353140    4.181272   -3.832480
    119          6           0       -7.090133    3.710840   -1.490194
    120          6           0       -8.292059    4.560777   -1.181175
    121          8           0       -9.435938    4.073933   -1.214768
    122          8           0       -7.880638    5.743098   -0.688011
    123          6           0       -9.037293    6.616981   -0.355914
    124          1           0       -5.478778    0.106659    4.217906
    125          1           0       -5.709880   -5.161306    0.870285
    126          1           0       -6.183218   -1.834805   -4.434899
    127          1           0       -6.232558    4.154734    1.494097
    128          1           0       -6.185653    2.566224    3.820368
    129          1           0       -4.103633    3.240213    1.782948
    130          1           0       -3.876054    1.674855    2.590522
    131          1           0       -3.931648    3.106555    3.573766
    132          1           0       -8.423675    2.707263    3.000611
    133          1           0       -8.857700    3.562849    1.475894
    134          1           0       -7.392044    5.371062    3.115944
    135          1           0       -8.287478    4.392991    4.223399
    136          1           0       -5.911952   -1.326559    5.700796
    137          1           0       -5.307382   -2.944224    5.830641
    138          1           0       -7.067316   -2.704587    5.939980
    139          1           0       -5.903371   -5.085815    5.646950
    140          1           0       -6.883608   -6.583522    5.154290
    141          1           0       -7.623602   -4.967533    5.339790
    142          1           0       -6.129013   -5.729239   -1.579496
    143          1           0       -4.851125   -4.047870   -3.676340
    144          1           0       -4.031626   -6.581938   -1.634080
    145          1           0       -3.465028   -5.031903   -0.918269
    146          1           0       -3.460812   -5.222098   -2.597393
    147          1           0       -6.547132   -5.856643   -4.149335
    148          1           0       -6.823770   -4.343199   -4.990738
    149          1           0       -8.166793   -5.620300   -2.721941
    150          1           0       -8.932964   -4.841371   -4.154104
    151          1           0       -8.286076   -3.858485   -2.764943
    152          1           0       -7.234298    1.390436   -5.812321
    153          1           0       -6.451389   -0.222816   -5.786254
    154          1           0       -5.450648    1.245295   -5.446544
    155          1           0       -6.156316    4.258270   -1.356471
    156          1           0       -8.894620    7.556091   -0.899419
    157          1           0       -9.061978    6.672979    0.748628
    158          1           0      -10.014240    6.312457   -0.712696
 ---------------------------------------------------------------------

 SCF Done:  E(RCAM-B3LYP) =  -4069.81178185     A.U. after   19 cycles

 Excitation energies and oscillator strengths:

 Excited State   1:      Singlet-A      1.6663 eV  744.08 nm  f=0.0281  <S**2>=0.000
     309 -> 315        0.10758
     310 -> 316        0.13382
     311 -> 313        0.42942
     312 -> 314        0.53574
 This state for optimization and/or second-order correction.
 Total Energy, E(TD-HF/TD-DFT) =  -4069.75054776
 Copying the excited state density for this state as the 1-particle RhoCI density.

 Excited State   2:      Singlet-A      1.6889 eV  734.13 nm  f=0.7147  <S**2>=0.000
     309 -> 315        0.13876
     310 -> 316       -0.11074
     311 -> 313        0.53458
     312 -> 314       -0.42854

 Excited State   3:      Singlet-A      2.1851 eV  567.39 nm  f=0.0440  <S**2>=0.000
     309 -> 313        0.19834
     310 -> 314        0.61182
     312 -> 316       -0.25885

 Excited State   4:      Singlet-A      2.1939 eV  565.13 nm  f=0.1453  <S**2>=0.000
     309 -> 313        0.60925
     310 -> 314       -0.19666
     311 -> 315       -0.26561

 Excited State   5:      Singlet-A      2.6513 eV  467.63 nm  f=0.0000  <S**2>=0.000
     312 -> 313        0.70710

 The electronic state is 1-A.
 Alpha  occ. eigenvalues --  -46.87853 -46.87553 -19.26321 -19.26283 -19.19091
 Alpha  occ. eigenvalues --  -19.19059 -19.18852 -19.18592 -19.18214 -19.17970
 Alpha  occ. eigenvalues --  -14.42503 -14.42391 -14.41510 -14.41249 -14.39456
 Alpha  occ. eigenvalues --  -14.39244 -14.38642 -14.38498 -10.39119 -10.39019
 Alpha  occ. eigenvalues --  -10.35483 -10.35268 -10.34435 -10.34148 -10.31711
 Alpha  occ. eigenvalues --  -10.31699 -10.31457 -10.31212 -10.30955 -10.30915
 Alpha  occ. eigenvalues --  -10.30624 -10.30565 -10.30294 -10.30269 -10.30266
 Alpha  occ. eigenvalues --  -10.30025 -10.29987 -10.29785 -10.29682 -10.29326
 Alpha  occ. eigenvalues --  -10.29306 -10.29302 -10.28791 -10.28623 -10.28580
 Alpha  occ. eigenvalues --  -10.28576 -10.28413 -10.28300 -10.28158 -10.28040
 Alpha  occ. eigenvalues --  -10.27902 -10.27843 -10.27778 -10.27632 -10.27592
 Alpha  occ. eigenvalues --  -10.27564 -10.27535 -10.27504 -10.27455 -10.27403
 Alpha  occ. eigenvalues --  -10.27380 -10.27362 -10.27355 -10.27242 -10.27202
 Alpha  occ. eigenvalues --  -10.26966 -10.26746 -10.26609 -10.26417 -10.26311
 Alpha  occ. eigenvalues --  -10.26288 -10.26271 -10.26083 -10.26046 -10.25910
 Alpha  occ. eigenvalues --  -10.25907 -10.25832 -10.25796 -10.25512 -10.25212
 Alpha  occ. eigenvalues --  -10.24883 -10.24847 -10.24844 -10.24776 -10.24646
 Alpha  occ. eigenvalues --  -10.24576  -3.16596  -3.16303  -1.91477  -1.91185
 Alpha  occ. eigenvalues --   -1.91064  -1.90906  -1.90774  -1.90611  -1.16670
 Alpha  occ. eigenvalues --   -1.16577  -1.08672  -1.08581  -1.07253  -1.06876
 Alpha  occ. eigenvalues --   -1.06842  -1.06681  -1.04633  -1.04391  -1.03819
 Alpha  occ. eigenvalues --   -1.03556  -1.03289  -1.02931  -1.02467  -1.02005
 Alpha  occ. eigenvalues --   -0.92023  -0.91890  -0.89599  -0.89390  -0.89232
 Alpha  occ. eigenvalues --   -0.89053  -0.88365  -0.88105  -0.87925  -0.87726
 Alpha  occ. eigenvalues --   -0.87709  -0.87580  -0.87312  -0.87010  -0.85029
 Alpha  occ. eigenvalues --   -0.84900  -0.84023  -0.83763  -0.83010  -0.82815
 Alpha  occ. eigenvalues --   -0.82693  -0.82550  -0.81633  -0.81512  -0.80645
 Alpha  occ. eigenvalues --   -0.80347  -0.78841  -0.78533  -0.77279  -0.77046
 Alpha  occ. eigenvalues --   -0.76988  -0.76801  -0.75970  -0.75744  -0.74968
 Alpha  occ. eigenvalues --   -0.74680  -0.72832  -0.72600  -0.71727  -0.71469
 Alpha  occ. eigenvalues --   -0.70007  -0.69651  -0.68920  -0.68729  -0.67691
 Alpha  occ. eigenvalues --   -0.67499  -0.67260  -0.67102  -0.65336  -0.65177
 Alpha  occ. eigenvalues --   -0.64909  -0.64678  -0.64672  -0.64558  -0.64343
 Alpha  occ. eigenvalues --   -0.64097  -0.62347  -0.62194  -0.60491  -0.60228
 Alpha  occ. eigenvalues --   -0.59851  -0.59698  -0.59045  -0.58889  -0.58559
 Alpha  occ. eigenvalues --   -0.58326  -0.57632  -0.57472  -0.57368  -0.57131
 Alpha  occ. eigenvalues --   -0.56358  -0.56110  -0.56021  -0.55802  -0.55564
 Alpha  occ. eigenvalues --   -0.55411  -0.55354  -0.55146  -0.54589  -0.54390
 Alpha  occ. eigenvalues --   -0.53939  -0.53815  -0.53352  -0.53262  -0.53127
 Alpha  occ. eigenvalues --   -0.53043  -0.52968  -0.52809  -0.52792  -0.52556
 Alpha  occ. eigenvalues --   -0.52541  -0.52306  -0.51973  -0.51814  -0.51656
 Alpha  occ. eigenvalues --   -0.51561  -0.51255  -0.51111  -0.50603  -0.50360
 Alpha  occ. eigenvalues --   -0.50110  -0.49959  -0.49872  -0.49748  -0.49556
 Alpha  occ. eigenvalues --   -0.49383  -0.49260  -0.49141  -0.49106  -0.49010
 Alpha  occ. eigenvalues --   -0.48643  -0.48525  -0.48485  -0.48466  -0.48263
 Alpha  occ. eigenvalues --   -0.48226  -0.47745  -0.47492  -0.47345  -0.47007
 Alpha  occ. eigenvalues --   -0.46860  -0.46609  -0.46599  -0.46454  -0.46417
 Alpha  occ. eigenvalues --   -0.46222  -0.46168  -0.45984  -0.45874  -0.45739
 Alpha  occ. eigenvalues --   -0.45274  -0.45079  -0.44630  -0.44556  -0.44424
 Alpha  occ. eigenvalues --   -0.44377  -0.44211  -0.44134  -0.44061  -0.44029
 Alpha  occ. eigenvalues --   -0.43975  -0.43838  -0.43545  -0.43469  -0.43441
 Alpha  occ. eigenvalues --   -0.43284  -0.43083  -0.42848  -0.42805  -0.42769
 Alpha  occ. eigenvalues --   -0.42719  -0.42444  -0.42085  -0.41867  -0.41758
 Alpha  occ. eigenvalues --   -0.41583  -0.41572  -0.41361  -0.41194  -0.40930
 Alpha  occ. eigenvalues --   -0.40880  -0.40861  -0.40646  -0.40618  -0.40591
 Alpha  occ. eigenvalues --   -0.40383  -0.40275  -0.40131  -0.39549  -0.39322
 Alpha  occ. eigenvalues --   -0.38545  -0.38234  -0.37795  -0.37562  -0.37391
 Alpha  occ. eigenvalues --   -0.37310  -0.37160  -0.37101  -0.36765  -0.36691
 Alpha  occ. eigenvalues --   -0.36251  -0.36114  -0.34342  -0.34151  -0.33813
 Alpha  occ. eigenvalues --   -0.33785  -0.33241  -0.33072  -0.31383  -0.31151
 Alpha  occ. eigenvalues --   -0.31089  -0.30866  -0.30074  -0.29876  -0.29497
 Alpha  occ. eigenvalues --   -0.29373  -0.29221  -0.29115  -0.24136  -0.23931
 Alpha  occ. eigenvalues --   -0.21183  -0.21012
 Alpha virt. eigenvalues --   -0.08825  -0.08688  -0.01806  -0.01574  -0.00100
 Alpha virt. eigenvalues --    0.00081   0.02148   0.02300   0.03054   0.03324
 Alpha virt. eigenvalues --    0.04666   0.04833   0.05058   0.05239   0.06134

 Mulliken charges:
               1
     1  Mg   0.838612
     2  C   -0.002880
     3  C   -0.093877
     4  C   -0.046019
     5  C   -0.064157
     6  N   -0.256762
     7  C   -0.052497
     8  C   -0.014017
     9  C   -0.087024
    10  C    0.046297
    11  C    0.104770
    12  C    0.053441
    13  C   -0.071821
    14  H    0.036002
    15  N   -0.433198
    16  C    0.168417
    17  C   -0.176893
    18  C   -0.003893
    19  C    0.148715
    20  C    0.110085
    21  C    0.012327
    22  O   -0.249810
    23  C    0.062404
    24  N   -0.341079
    25  C    0.041223
    26  C   -0.028211
    27  C   -0.023827
    28  C    0.074611
    29  C    0.076150
    30  C    0.035250
    31  C   -0.004371
    32  N   -0.310444
    33  C    0.080235
    34  C   -0.169934
    35  C    0.008430
    36  C    0.082854
    37  C    0.127358
    38  C    0.046106
    39  O   -0.188333
    40  C   -0.005321
    41  C    0.212926
    42  O   -0.257122
    43  O   -0.304777
    44  C    0.157644
    45  H   -0.017336
    46  H   -0.016918
    47  H   -0.041828
    48  H    0.001031
    49  H   -0.003858
    50  H    0.025512
    51  H    0.016455
    52  H    0.016848
    53  H    0.011231
    54  H    0.044046
    55  H    0.017990
    56  H    0.018076
    57  H    0.005994
    58  H    0.027037
    59  H    0.040103
    60  H    0.037464
    61  H    0.035973
    62  H    0.031972
    63  H    0.016185
    64  H    0.009530
    65  H    0.023134
    66  H    0.012830
    67  H    0.004772
    68  H    0.006107
    69  H    0.004574
    70  H    0.008497
    71  H    0.016840
    72  H    0.029381
    73  H    0.047493
    74  H    0.008718
    75  H    0.046101
    76  H    0.035251
    77  H    0.043089
    78  H    0.046380
    79  H    0.053736
    80  Mg   0.838069
    81  C   -0.016948
    82  C   -0.087697
    83  C   -0.044969
    84  C   -0.064859
    85  N   -0.254592
    86  C   -0.049902
    87  C   -0.015115
    88  C   -0.090548
    89  C    0.045903
    90  C    0.114326
    91  C    0.062558
    92  C   -0.077779
    93  H    0.034541
    94  N   -0.423668
    95  C    0.163169
    96  C   -0.174207
    97  C   -0.007359
    98  C    0.152258
    99  C    0.099195
   100  C    0.015889
   101  O   -0.252726
   102  C    0.061159
   103  N   -0.350020
   104  C    0.037888
   105  C   -0.020085
   106  C   -0.034552
   107  C    0.088874
   108  C    0.073254
   109  C    0.034769
   110  C   -0.007612
   111  N   -0.323991
   112  C    0.078329
   113  C   -0.163495
   114  C    0.002003
   115  C    0.096127
   116  C    0.131553
   117  C    0.042034
   118  O   -0.188611
   119  C    0.001022
   120  C    0.211152
   121  O   -0.251139
   122  O   -0.305582
   123  C    0.152135
   124  H   -0.019565
   125  H   -0.015032
   126  H   -0.040950
   127  H   -0.000671
   128  H   -0.004533
   129  H    0.022624
   130  H    0.014982
   131  H    0.016168
   132  H    0.013843
   133  H    0.037532
   134  H    0.020849
   135  H    0.019505
   136  H    0.008623
   137  H    0.026784
   138  H    0.039640
   139  H    0.038645
   140  H    0.036502
   141  H    0.033528
   142  H    0.014208
   143  H    0.012278
   144  H    0.025280
   145  H    0.013447
   146  H    0.005861
   147  H    0.006187
   148  H    0.003147
   149  H    0.011005
   150  H    0.017531
   151  H    0.030106
   152  H    0.045634
   153  H    0.008250
   154  H    0.046274
   155  H    0.034936
   156  H    0.043686
   157  H    0.049534
   158  H    0.053410
 Sum of Mulliken charges =  -0.00000

 Dipole moment (field-independent basis, Debye):
    X=              3.8060    Y=              1.9981    Z=              0.3916  Tot=              4.3164
 Quadrupole moment (field-independent basis, Debye-Ang):
   XX=           -522.3250   YY=           -546.3594   ZZ=           -450.6891
   XY=             21.0207   XZ=            -61.3442   YZ=             42.1578

 Normal termination of Gaussian 16 at Sat Sep 11 07:55:33 2021.
