 Gaussian 16, Revision A.03,
 Gaussian 16:  ES64L-G16RevA.03 25-Dec-2016

 -----------------------------------
 #p cam-b3lyp/Def2SVP td=(nstates=5)
 -----------------------------------

 --------------------------------
 TDDFT excited states in gaussian
 --------------------------------
 Symbolic Z-matrix:
 Charge =  0 Multiplicity = 1

                         Standard orientation:
 ---------------------------------------------------------------------
 Center     Atomic      Atomic             Coordinates (Angstroms)
 Number     Number       Type             X           Y           Z
 ---------------------------------------------------------------------
      1         12           0        6.287550   -1.113417    0.404678
      2          6           0        6.778764    2.154120   -0.971594
      3          6           0        7.078375    0.211931    3.447886
      4          6           0        6.304514   -4.064966    1.564285
      5          6           0        6.652453   -2.368025   -2.826183
      6          7           0        6.838539    0.937119    1.031064
      7          6           0        6.932515    2.111830    0.415928
      8          6           0        7.135121    3.307168    1.394443
      9          6           0        7.770249    2.519151    2.626368
     10          6           0        7.166036    1.148754    2.375641
     11          6           0        9.289822    2.405774    2.558934
     12          6           0        5.781850    3.989817    1.787357
     13          6           0        5.912488    5.353732    2.471478
     14          1           0        4.914292    6.375248    2.193161
     15          7           0        6.160320   -1.758811    2.267506
     16          6           0        6.511197   -1.079315    3.385745
     17          6           0        6.228446   -1.985992    4.519177
     18          6           0        5.863298   -3.316197    3.957647
     19          6           0        6.123558   -3.104454    2.556645
     20          6           0        6.269973   -1.550148    5.951681
     21          6           0        5.369703   -4.581200    4.585551
     22          8           0        5.335351   -5.688746    3.947792
     23          6           0        5.005820   -4.507993    6.012181
     24          7           0        6.671702   -2.975507   -0.457112
     25          6           0        6.553577   -4.102394    0.253632
     26          6           0        6.597825   -5.313001   -0.630909
     27          6           0        6.527160   -4.767902   -2.130118
     28          6           0        6.537451   -3.248741   -1.829598
     29          6           0        7.831261   -6.212779   -0.472647
     30          6           0        5.401461   -5.333795   -3.031775
     31          6           0        4.055054   -4.866371   -2.526007
     32          7           0        6.474410   -0.276155   -1.589092
     33          6           0        6.638177   -0.983731   -2.788754
     34          6           0        6.827376    0.014910   -3.856924
     35          6           0        6.776750    1.241560   -3.197674
     36          6           0        6.595334    1.022167   -1.802236
     37          6           0        7.073010   -0.269115   -5.229305
     38          6           0        6.858358    2.685768   -3.344173
     39          8           0        6.912794    3.458517   -4.301977
     40          6           0        6.984930    3.330201   -1.893479
     41          6           0        6.002536    4.466800   -1.813759
     42          8           0        4.773318    4.252881   -1.838823
     43          8           0        6.652169    5.593563   -1.483723
     44          6           0        5.730642    6.754342   -1.359084
     45          1           0        7.536640    0.462596    4.406583
     46          1           0        6.206677   -5.097401    1.906256
     47          1           0        6.687807   -2.682366   -3.870881
     48          1           0        7.829827    4.069981    1.042415
     49          1           0        7.428280    2.914891    3.582489
     50          1           0        9.674983    2.773802    1.608078
     51          1           0        9.507769    1.343656    2.672496
     52          1           0        9.753402    2.899794    3.413226
     53          1           0        5.313555    3.422814    2.591886
     54          1           0        5.130288    4.083536    0.917869
     55          1           0        6.917604    5.761251    2.359317
     56          1           0        5.796994    5.209453    3.545742
     57          1           0        6.729259   -0.568203    6.058386
     58          1           0        6.949729   -2.225788    6.470479
     59          1           0        5.286478   -1.586719    6.420436
     60          1           0        5.873374   -4.186461    6.588823
     61          1           0        4.590673   -5.482450    6.267007
     62          1           0        4.246984   -3.736128    6.143863
     63          1           0        5.743714   -5.963366   -0.446665
     64          1           0        7.442295   -4.976611   -2.684772
     65          1           0        7.590013   -7.247152   -0.226523
     66          1           0        8.475996   -5.770380    0.286227
     67          1           0        8.495650   -6.233636   -1.336111
     68          1           0        5.397530   -6.422638   -2.995019
     69          1           0        5.496983   -5.037564   -4.076464
     70          1           0        3.826934   -5.585877   -1.740447
     71          1           0        3.312757   -4.910762   -3.323650
     72          1           0        4.124662   -3.884186   -2.058082
     73          1           0        6.448494    0.418415   -5.799612
     74          1           0        6.839169   -1.306631   -5.466963
     75          1           0        8.140198   -0.056779   -5.291589
     76          1           0        8.014647    3.671137   -1.790683
     77          1           0        6.099756    7.530631   -2.029430
     78          1           0        5.670968    6.989904   -0.296373
     79          1           0        4.720847    6.611811   -1.745527
     80         12           0       -6.899504   -0.258413   -0.345671
     81          6           0       -4.450658    2.361880   -0.218076
     82          6           0       -8.566185    1.382117    2.137372
     83          6           0       -8.828462   -2.767405   -0.118655
     84          6           0       -4.511504   -2.222353   -1.953781
     85          7           0       -6.464888    1.620635    0.737173
     86          6           0       -5.537912    2.563361    0.657541
     87          6           0       -5.831878    3.827951    1.508412
     88          6           0       -6.804642    3.162905    2.599425
     89          6           0       -7.344547    2.000254    1.769116
     90          6           0       -6.064155    2.591228    3.797004
     91          6           0       -6.568107    4.943513    0.686517
     92          6           0       -6.610839    6.316582    1.360758
     93          1           0       -6.519499    7.507620    0.520772
     94          7           0       -8.703220   -0.422379    0.465699
     95          6           0       -9.226220    0.341396    1.447744
     96          6           0      -10.571756   -0.196167    1.702112
     97          6           0      -10.737519   -1.442044    0.905223
     98          6           0       -9.392615   -1.607158    0.391346
     99          6           0      -11.579420    0.507219    2.564256
    100          6           0      -11.909017   -2.343596    0.658251
    101          8           0      -11.767517   -3.501050    0.126156
    102          6           0      -13.213982   -1.870431    1.142648
    103          7           0       -6.637827   -2.279751   -0.755575
    104          6           0       -7.654194   -3.149693   -0.620922
    105          6           0       -7.311805   -4.487433   -1.232171
    106          6           0       -5.940226   -4.260208   -2.022562
    107          6           0       -5.668951   -2.788469   -1.640745
    108          6           0       -7.146135   -5.645494   -0.248382
    109          6           0       -5.921699   -4.649203   -3.526225
    110          6           0       -6.821857   -3.721725   -4.310385
    111          7           0       -4.916924    0.048807   -1.147546
    112          6           0       -4.084105   -0.915570   -1.756207
    113          6           0       -2.789635   -0.260030   -2.033766
    114          6           0       -2.952632    1.044050   -1.542544
    115          6           0       -4.249618    1.184944   -0.979096
    116          6           0       -1.650658   -0.882026   -2.618553
    117          6           0       -2.318686    2.330346   -1.362949
    118          8           0       -1.252585    2.830668   -1.719083
    119          6           0       -3.215829    3.203546   -0.383633
    120          6           0       -3.375356    4.569211   -0.993584
    121          8           0       -3.996727    4.716125   -2.060790
    122          8           0       -2.959714    5.496823   -0.112031
    123          6           0       -3.108650    6.868497   -0.667144
    124          1           0       -9.046007    1.693439    3.065660
    125          1           0       -9.492208   -3.633911   -0.164147
    126          1           0       -3.749285   -2.738426   -2.541468
    127          1           0       -4.965663    4.258791    1.996078
    128          1           0       -7.608907    3.839606    2.876212
    129          1           0       -4.993348    2.621497    3.660588
    130          1           0       -6.404609    1.568479    3.892571
    131          1           0       -6.378410    3.100285    4.712670
    132          1           0       -7.641412    4.715946    0.655484
    133          1           0       -6.144780    5.035817   -0.294766
    134          1           0       -5.910142    6.384805    2.201773
    135          1           0       -7.593862    6.447407    1.819630
    136          1           0      -11.117056    1.312958    3.147693
    137          1           0      -11.915753   -0.214369    3.316631
    138          1           0      -12.445526    0.858110    1.999095
    139          1           0      -13.161330   -1.701521    2.215571
    140          1           0      -13.939812   -2.607961    0.794640
    141          1           0      -13.427413   -0.899738    0.681335
    142          1           0       -8.075071   -4.798195   -1.934984
    143          1           0       -5.119292   -4.852810   -1.592761
    144          1           0       -7.816571   -6.499208   -0.462279
    145          1           0       -7.315584   -5.270301    0.752145
    146          1           0       -6.137713   -6.049276   -0.176001
    147          1           0       -6.321230   -5.657276   -3.661571
    148          1           0       -4.929125   -4.634714   -3.963927
    149          1           0       -7.813083   -4.163324   -4.170580
    150          1           0       -6.539069   -3.711214   -5.361083
    151          1           0       -6.840853   -2.720908   -3.863575
    152          1           0       -1.251973   -0.183831   -3.342485
    153          1           0       -1.910271   -1.831551   -3.081989
    154          1           0       -1.024693   -1.015428   -1.732194
    155          1           0       -2.706421    3.242532    0.579979
    156          1           0       -2.125015    7.344806   -0.610064
    157          1           0       -3.929072    7.336403   -0.091193
    158          1           0       -3.327006    6.960227   -1.724665
 ---------------------------------------------------------------------

 SCF Done:  E(RCAM-B3LYP) =  -4069.81046365     A.U. after   19 cycles

 Excitation energies and oscillator strengths:

 Excited State   1:      Singlet-A      1.6682 eV  743.21 nm  f=0.2245  <S**2>=0.000
     309 -> 315        0.13267
     310 -> 316       -0.10903
     311 -> 313        0.53093
     312 -> 314       -0.43505
 This state for optimization and/or second-order correction.
 Total Energy, E(TD-HF/TD-DFT) =  -4069.74915757
 Copying the excited state density for this state as the 1-particle RhoCI density.

 Excited State   2:      Singlet-A      1.6872 eV  734.84 nm  f=0.5497  <S**2>=0.000
     309 -> 315        0.11130
     310 -> 316        0.13636
     311 -> 313        0.43447
     312 -> 314        0.53000

 Excited State   3:      Singlet-A      2.1851 eV  567.40 nm  f=0.0128  <S**2>=0.000
     309 -> 313        0.55327
     310 -> 314       -0.32786
     311 -> 315       -0.23400
     312 -> 316        0.13823

 Excited State   4:      Singlet-A      2.1926 eV  565.46 nm  f=0.1733  <S**2>=0.000
     309 -> 313        0.32585
     310 -> 314        0.55069
     311 -> 315       -0.14155
     312 -> 316       -0.23985

 Excited State   5:      Singlet-A      2.6452 eV  468.72 nm  f=0.0000  <S**2>=0.000
     312 -> 313        0.70657

 The electronic state is 1-A.
 Alpha  occ. eigenvalues --  -46.87575 -46.87519 -19.26156 -19.25905 -19.18956
 Alpha  occ. eigenvalues --  -19.18650 -19.18588 -19.18584 -19.17897 -19.17774
 Alpha  occ. eigenvalues --  -14.42364 -14.42229 -14.41244 -14.41219 -14.39209
 Alpha  occ. eigenvalues --  -14.39189 -14.38445 -14.38353 -10.38892 -10.38666
 Alpha  occ. eigenvalues --  -10.35288 -10.35268 -10.34112 -10.33960 -10.31582
 Alpha  occ. eigenvalues --  -10.31318 -10.31171 -10.31160 -10.30895 -10.30684
 Alpha  occ. eigenvalues --  -10.30339 -10.30291 -10.30241 -10.30198 -10.30029
 Alpha  occ. eigenvalues --  -10.30019 -10.29744 -10.29715 -10.29414 -10.29301
 Alpha  occ. eigenvalues --  -10.29243 -10.29055 -10.28608 -10.28565 -10.28504
 Alpha  occ. eigenvalues --  -10.28283 -10.28252 -10.28134 -10.28033 -10.27894
 Alpha  occ. eigenvalues --  -10.27830 -10.27572 -10.27535 -10.27516 -10.27402
 Alpha  occ. eigenvalues --  -10.27376 -10.27359 -10.27352 -10.27337 -10.27316
 Alpha  occ. eigenvalues --  -10.27315 -10.27302 -10.27256 -10.27169 -10.26865
 Alpha  occ. eigenvalues --  -10.26849 -10.26584 -10.26413 -10.26313 -10.26283
 Alpha  occ. eigenvalues --  -10.26078 -10.26038 -10.26032 -10.25946 -10.25820
 Alpha  occ. eigenvalues --  -10.25795 -10.25620 -10.25619 -10.25304 -10.25289
 Alpha  occ. eigenvalues --  -10.24697 -10.24623 -10.24605 -10.24599 -10.24583
 Alpha  occ. eigenvalues --  -10.24545  -3.16317  -3.16269  -1.91198  -1.91151
 Alpha  occ. eigenvalues --   -1.90785  -1.90740  -1.90627  -1.90576  -1.16446
 Alpha  occ. eigenvalues --   -1.16247  -1.08378  -1.08342  -1.07056  -1.06842
 Alpha  occ. eigenvalues --   -1.06738  -1.06221  -1.04357  -1.04356  -1.03552
 Alpha  occ. eigenvalues --   -1.03521  -1.03017  -1.02893  -1.02194  -1.01963
 Alpha  occ. eigenvalues --   -0.91821  -0.91726  -0.89358  -0.89343  -0.89038
 Alpha  occ. eigenvalues --   -0.88954  -0.88115  -0.88092  -0.87645  -0.87612
 Alpha  occ. eigenvalues --   -0.87546  -0.87456  -0.87087  -0.86986  -0.84876
 Alpha  occ. eigenvalues --   -0.84754  -0.83770  -0.83747  -0.82810  -0.82807
 Alpha  occ. eigenvalues --   -0.82526  -0.82425  -0.81430  -0.81313  -0.80358
 Alpha  occ. eigenvalues --   -0.80291  -0.78597  -0.78487  -0.77020  -0.77014
 Alpha  occ. eigenvalues --   -0.76765  -0.76702  -0.75697  -0.75682  -0.74713
 Alpha  occ. eigenvalues --   -0.74670  -0.72563  -0.72545  -0.71460  -0.71444
 Alpha  occ. eigenvalues --   -0.69763  -0.69638  -0.68698  -0.68652  -0.67449
 Alpha  occ. eigenvalues --   -0.67423  -0.67078  -0.66989  -0.65138  -0.65048
 Alpha  occ. eigenvalues --   -0.64626  -0.64624  -0.64510  -0.64390  -0.64084
 Alpha  occ. eigenvalues --   -0.64069  -0.62110  -0.62005  -0.60256  -0.60203
 Alpha  occ. eigenvalues --   -0.59667  -0.59576  -0.58843  -0.58768  -0.58278
 Alpha  occ. eigenvalues --   -0.58269  -0.57360  -0.57304  -0.57086  -0.57081
 Alpha  occ. eigenvalues --   -0.56094  -0.56049  -0.55726  -0.55677  -0.55317
 Alpha  occ. eigenvalues --   -0.55305  -0.55127  -0.55098  -0.54335  -0.54269
 Alpha  occ. eigenvalues --   -0.53794  -0.53657  -0.53100  -0.53083  -0.53000
 Alpha  occ. eigenvalues --   -0.52999  -0.52753  -0.52659  -0.52561  -0.52550
 Alpha  occ. eigenvalues --   -0.52278  -0.52274  -0.51681  -0.51680  -0.51531
 Alpha  occ. eigenvalues --   -0.51383  -0.51025  -0.50966  -0.50414  -0.50359
 Alpha  occ. eigenvalues --   -0.49876  -0.49859  -0.49738  -0.49729  -0.49358
 Alpha  occ. eigenvalues --   -0.49297  -0.49054  -0.48978  -0.48940  -0.48869
 Alpha  occ. eigenvalues --   -0.48398  -0.48351  -0.48275  -0.48234  -0.48221
 Alpha  occ. eigenvalues --   -0.48169  -0.47486  -0.47455  -0.47091  -0.46984
 Alpha  occ. eigenvalues --   -0.46594  -0.46572  -0.46432  -0.46319  -0.46151
 Alpha  occ. eigenvalues --   -0.46125  -0.45929  -0.45926  -0.45644  -0.45563
 Alpha  occ. eigenvalues --   -0.45078  -0.45026  -0.44376  -0.44333  -0.44319
 Alpha  occ. eigenvalues --   -0.44318  -0.43983  -0.43962  -0.43940  -0.43873
 Alpha  occ. eigenvalues --   -0.43778  -0.43775  -0.43397  -0.43241  -0.43231
 Alpha  occ. eigenvalues --   -0.43178  -0.42806  -0.42772  -0.42719  -0.42522
 Alpha  occ. eigenvalues --   -0.42426  -0.42331  -0.41835  -0.41813  -0.41485
 Alpha  occ. eigenvalues --   -0.41474  -0.41337  -0.41310  -0.40930  -0.40851
 Alpha  occ. eigenvalues --   -0.40670  -0.40646  -0.40604  -0.40582  -0.40385
 Alpha  occ. eigenvalues --   -0.40364  -0.40119  -0.39986  -0.39308  -0.39307
 Alpha  occ. eigenvalues --   -0.38294  -0.38230  -0.37536  -0.37506  -0.37136
 Alpha  occ. eigenvalues --   -0.37134  -0.37065  -0.37022  -0.36592  -0.36409
 Alpha  occ. eigenvalues --   -0.36070  -0.35906  -0.34104  -0.34063  -0.33668
 Alpha  occ. eigenvalues --   -0.33377  -0.33027  -0.32943  -0.31179  -0.31148
 Alpha  occ. eigenvalues --   -0.30830  -0.30812  -0.29751  -0.29677  -0.29241
 Alpha  occ. eigenvalues --   -0.29177  -0.29087  -0.29030  -0.23892  -0.23857
 Alpha  occ. eigenvalues --   -0.20972  -0.20914
 Alpha virt. eigenvalues --   -0.08638  -0.08559  -0.01547  -0.01544   0.00115
 Alpha virt. eigenvalues --    0.00146   0.02406   0.02440   0.03362   0.03385
 Alpha virt. eigenvalues --    0.04853   0.04940   0.05370   0.05482   0.06289

 Mulliken charges:
               1
     1  Mg   0.839741
     2  C   -0.001260
     3  C   -0.094128
     4  C   -0.046367
     5  C   -0.064468
     6  N   -0.256637
     7  C   -0.051979
     8  C   -0.014220
     9  C   -0.086996
    10  C    0.046416
    11  C    0.104972
    12  C    0.053382
    13  C   -0.071466
    14  H    0.036480
    15  N   -0.432937
    16  C    0.168275
    17  C   -0.177532
    18  C   -0.004497
    19  C    0.148551
    20  C    0.110363
    21  C    0.011855
    22  O   -0.250403
    23  C    0.062654
    24  N   -0.341130
    25  C    0.040955
    26  C   -0.027931
    27  C   -0.023968
    28  C    0.074953
    29  C    0.076345
    30  C    0.035317
    31  C   -0.004455
    32  N   -0.310882
    33  C    0.081165
    34  C   -0.169165
    35  C    0.008848
    36  C    0.084418
    37  C    0.127011
    38  C    0.047820
    39  O   -0.187651
    40  C   -0.005968
    41  C    0.211783
    42  O   -0.252023
    43  O   -0.305885
    44  C    0.157402
    45  H   -0.018177
    46  H   -0.017587
    47  H   -0.041878
    48  H    0.000736
    49  H   -0.004452
    50  H    0.025344
    51  H    0.016110
    52  H    0.016055
    53  H    0.011091
    54  H    0.047100
    55  H    0.017121
    56  H    0.016963
    57  H    0.005604
    58  H    0.026221
    59  H    0.038858
    60  H    0.037166
    61  H    0.034933
    62  H    0.031208
    63  H    0.015836
    64  H    0.009257
    65  H    0.022635
    66  H    0.012565
    67  H    0.004440
    68  H    0.005744
    69  H    0.004758
    70  H    0.008078
    71  H    0.016921
    72  H    0.029988
    73  H    0.048671
    74  H    0.008626
    75  H    0.045590
    76  H    0.034389
    77  H    0.041903
    78  H    0.045333
    79  H    0.056085
    80  Mg   0.837426
    81  C   -0.016715
    82  C   -0.087968
    83  C   -0.045665
    84  C   -0.065056
    85  N   -0.254385
    86  C   -0.050012
    87  C   -0.014912
    88  C   -0.090425
    89  C    0.045463
    90  C    0.114520
    91  C    0.062615
    92  C   -0.077589
    93  H    0.034816
    94  N   -0.423393
    95  C    0.162582
    96  C   -0.175006
    97  C   -0.008132
    98  C    0.151894
    99  C    0.099526
   100  C    0.015324
   101  O   -0.253585
   102  C    0.061298
   103  N   -0.350079
   104  C    0.037268
   105  C   -0.019694
   106  C   -0.034838
   107  C    0.089119
   108  C    0.073755
   109  C    0.034787
   110  C   -0.007614
   111  N   -0.324323
   112  C    0.078673
   113  C   -0.163301
   114  C    0.003379
   115  C    0.096088
   116  C    0.132000
   117  C    0.042202
   118  O   -0.181929
   119  C    0.000593
   120  C    0.212327
   121  O   -0.251000
   122  O   -0.305830
   123  C    0.152172
   124  H   -0.020261
   125  H   -0.015938
   126  H   -0.040399
   127  H   -0.000939
   128  H   -0.004671
   129  H    0.022084
   130  H    0.014307
   131  H    0.015570
   132  H    0.013845
   133  H    0.038037
   134  H    0.020304
   135  H    0.019260
   136  H    0.008364
   137  H    0.025634
   138  H    0.039411
   139  H    0.038013
   140  H    0.036036
   141  H    0.033779
   142  H    0.014166
   143  H    0.012391
   144  H    0.024819
   145  H    0.011500
   146  H    0.005597
   147  H    0.005961
   148  H    0.003553
   149  H    0.010777
   150  H    0.017832
   151  H    0.030345
   152  H    0.048386
   153  H    0.007599
   154  H    0.047087
   155  H    0.034755
   156  H    0.043919
   157  H    0.048488
   158  H    0.054027
 Sum of Mulliken charges =  -0.00000

 Dipole moment (field-independent basis, Debye):
    X=             -0.4706    Y=              0.7624    Z=              7.5422  Tot=              7.5952
 Quadrupole moment (field-independent basis, Debye-Ang):
   XX=           -476.6424   YY=           -497.1523   ZZ=           -493.8713
   XY=            -27.7719   XZ=              0.8623   YZ=             56.3449

 Normal termination of Gaussian 16 at Sat Sep 11 12:19:45 2021.
