 Gaussian 16, Revision A.03,
 Gaussian 16:  ES64L-G16RevA.03 25-Dec-2016

 -----------------------------------
 #p cam-b3lyp/Def2SVP td=(nstates=5)
 -----------------------------------

 --------------------------------
 TDDFT excited states in gaussian
 --------------------------------
 Symbolic Z-matrix:
 Charge =  0 Multiplicity = 1

                         Standard orientation:
 ---------------------------------------------------------------------
 Center     Atomic      Atomic             Coordinates (Angstroms)
 Number     Number       Type             X           Y           Z
 ---------------------------------------------------------------------
      1         12           0       -3.532138   -1.609039    0.418690
      2          6           0       -4.526019    1.826633    0.562118
      3          6           0       -4.706954   -1.660674   -2.784466
      4          6           0       -3.082551   -4.748225    0.419751
      5          6           0       -3.495513   -1.590733    3.903512
      6          7           0       -4.473127   -0.050624   -0.840885
      7          6           0       -4.742899    1.242010   -0.687612
      8          6           0       -5.207369    1.936379   -2.002714
      9          6           0       -5.755663    0.658172   -2.782175
     10          6           0       -4.903825   -0.412208   -2.122947
     11          6           0       -7.224769    0.357964   -2.502703
     12          6           0       -4.020621    2.610099   -2.770477
     13          6           0       -4.428947    3.580217   -3.882905
     14          1           0       -3.616121    4.765210   -4.111928
     15          7           0       -3.390296   -2.883486   -1.084146
     16          6           0       -3.915623   -2.735231   -2.324040
     17          6           0       -3.535706   -3.950716   -3.075666
     18          6           0       -2.909489   -4.902000   -2.115976
     19          6           0       -3.128940   -4.217801   -0.867341
     20          6           0       -3.730175   -4.098661   -4.553517
     21          6           0       -2.231638   -6.223650   -2.294560
     22          8           0       -1.966188   -6.990872   -1.306896
     23          6           0       -1.962671   -6.641794   -3.682312
     24          7           0       -3.531134   -3.042904    1.935814
     25          6           0       -3.251241   -4.324345    1.673990
     26          6           0       -3.031538   -5.104191    2.936333
     27          6           0       -2.980256   -4.029745    4.116456
     28          6           0       -3.277808   -2.755349    3.288417
     29          6           0       -4.090892   -6.166923    3.259416
     30          6           0       -1.725449   -4.042643    5.025143
     31          6           0       -0.512942   -3.609327    4.231945
     32          7           0       -3.759934   -0.118435    1.979860
     33          6           0       -3.730906   -0.336825    3.364828
     34          6           0       -4.038800    0.951805    4.011901
     35          6           0       -4.243188    1.832252    2.951296
     36          6           0       -4.099538    1.131639    1.719713
     37          6           0       -4.156778    1.173960    5.412316
     38          6           0       -4.573767    3.196339    2.572029
     39          8           0       -4.714720    4.256434    3.183439
     40          6           0       -4.890036    3.219863    1.011501
     41          6           0       -4.132242    4.372712    0.411502
     42          8           0       -2.885006    4.366092    0.369968
     43          8           0       -4.989350    5.183732   -0.227368
     44          6           0       -4.298053    6.332854   -0.870625
     45          1           0       -5.252696   -1.860081   -3.708773
     46          1           0       -2.819970   -5.807121    0.466958
     47          1           0       -3.418807   -1.489215    4.987607
     48          1           0       -6.007632    2.665313   -1.873643
     49          1           0       -5.540993    0.709301   -3.849426
     50          1           0       -7.618674    0.997009   -1.712525
     51          1           0       -7.255051   -0.688030   -2.196970
     52          1           0       -7.813711    0.419720   -3.418187
     53          1           0       -3.501733    1.856441   -3.362773
     54          1           0       -3.351245    3.119026   -2.076030
     55          1           0       -5.483357    3.848391   -3.810712
     56          1           0       -4.346503    3.059839   -4.837164
     57          1           0       -4.362575   -3.308015   -4.955380
     58          1           0       -4.304685   -5.011565   -4.709251
     59          1           0       -2.782172   -4.165299   -5.087542
     60          1           0       -2.902989   -6.692035   -4.231698
     61          1           0       -1.394095   -7.568440   -3.612321
     62          1           0       -1.362069   -5.874756   -4.172086
     63          1           0       -2.085891   -5.643703    2.903121
     64          1           0       -3.812711   -4.145024    4.811009
     65          1           0       -3.681998   -7.170481    3.379337
     66          1           0       -4.843539   -6.142836    2.471867
     67          1           0       -4.694241   -5.957275    4.142271
     68          1           0       -1.528903   -5.051689    5.385894
     69          1           0       -1.816996   -3.391546    5.894593
     70          1           0       -0.201757   -4.530376    3.740352
     71          1           0        0.266465   -3.240555    4.899585
     72          1           0       -0.781640   -2.897822    3.450890
     73          1           0       -3.635940    2.109102    5.617756
     74          1           0       -3.729012    0.348969    5.981533
     75          1           0       -5.239921    1.235754    5.516423
     76          1           0       -5.968083    3.342455    0.911962
     77          1           0       -4.764004    7.241769   -0.489839
     78          1           0       -4.337736    6.156049   -1.945600
     79          1           0       -3.260042    6.495812   -0.578534
     80         12           0        4.174993    0.184706   -0.275114
     81          6           0        2.725515    3.458828   -0.033787
     82          6           0        2.627088   -0.114506   -3.299859
     83          6           0        5.062027   -2.861424   -0.316163
     84          6           0        4.641436    0.288419    3.177034
     85          7           0        2.872057    1.562856   -1.413234
     86          6           0        2.440142    2.804315   -1.250178
     87          6           0        1.726986    3.405392   -2.491013
     88          6           0        1.265557    2.035369   -3.190284
     89          6           0        2.338744    1.102719   -2.632529
     90          6           0       -0.090415    1.542854   -2.712678
     91          6           0        2.707122    4.217072   -3.408892
     92          6           0        2.025190    5.086404   -4.467665
     93          1           0        2.632302    6.369282   -4.811348
     94          7           0        4.306379   -1.094376   -1.786823
     95          6           0        3.622235   -1.053206   -2.949376
     96          6           0        4.062254   -2.228527   -3.716970
     97          6           0        4.939165   -3.056677   -2.845243
     98          6           0        4.783018   -2.365233   -1.581266
     99          6           0        3.713048   -2.433724   -5.162433
    100          6           0        5.769475   -4.277426   -3.103176
    101          8           0        6.263466   -4.970582   -2.144878
    102          6           0        5.909300   -4.690531   -4.507204
    103          7           0        4.572387   -1.188566    1.234364
    104          6           0        4.991459   -2.432809    0.944245
    105          6           0        5.476301   -3.147796    2.182838
    106          6           0        5.521553   -2.035479    3.331006
    107          6           0        4.944799   -0.837296    2.545456
    108          6           0        4.620667   -4.325497    2.648985
    109          6           0        6.870809   -1.849244    4.077662
    110          6           0        7.908100   -1.282147    3.135432
    111          7           0        3.941295    1.663939    1.282224
    112          6           0        4.167871    1.489686    2.665108
    113          6           0        3.762828    2.743077    3.333983
    114          6           0        3.303501    3.557717    2.288094
    115          6           0        3.395580    2.853865    1.056990
    116          6           0        3.800029    2.987539    4.735756
    117          6           0        2.751761    4.849188    1.946930
    118          8           0        2.533855    5.891160    2.563804
    119          6           0        2.234773    4.797013    0.444802
    120          6           0        2.741389    6.023368   -0.263654
    121          8           0        3.959998    6.187796   -0.449526
    122          8           0        1.698682    6.688425   -0.793596
    123          6           0        2.151513    7.906882   -1.516184
    124          1           0        2.005463   -0.400680   -4.148725
    125          1           0        5.476652   -3.871727   -0.286823
    126          1           0        4.847439    0.435493    4.239401
    127          1           0        0.861958    4.017511   -2.265597
    128          1           0        1.341093    2.099402   -4.272668
    129          1           0       -0.468089    2.135004   -1.892393
    130          1           0        0.062064    0.517944   -2.400669
    131          1           0       -0.792864    1.501642   -3.550053
    132          1           0        3.249082    3.518873   -4.059685
    133          1           0        3.370412    4.819500   -2.819191
    134          1           0        0.952885    5.208743   -4.272320
    135          1           0        2.065003    4.561968   -5.425468
    136          1           0        2.921387   -1.746914   -5.486428
    137          1           0        3.260355   -3.427850   -5.244010
    138          1           0        4.585886   -2.388054   -5.817214
    139          1           0        4.924478   -4.879128   -4.927929
    140          1           0        6.609769   -5.527855   -4.497084
    141          1           0        6.340225   -3.858627   -5.075398
    142          1           0        6.474328   -3.542119    2.036030
    143          1           0        4.807886   -2.254467    4.138812
    144          1           0        5.186085   -5.273633    2.722625
    145          1           0        3.786618   -4.432033    1.968142
    146          1           0        4.121143   -4.183252    3.605773
    147          1           0        7.253395   -2.815617    4.415182
    148          1           0        6.796604   -1.209525    4.950730
    149          1           0        8.277805   -2.169275    2.612548
    150          1           0        8.704091   -0.791810    3.692221
    151          1           0        7.444834   -0.627956    2.387715
    152          1           0        4.200551    3.983885    4.867516
    153          1           0        4.402992    2.244207    5.253107
    154          1           0        2.737918    2.895445    4.978047
    155          1           0        1.145056    4.762167    0.474414
    156          1           0        1.608790    8.753984   -1.085440
    157          1           0        1.986560    7.696260   -2.589583
    158          1           0        3.179272    8.220350   -1.375076
 ---------------------------------------------------------------------

 SCF Done:  E(RCAM-B3LYP) =  -4069.81182367     A.U. after   19 cycles

 Excitation energies and oscillator strengths:

 Excited State   1:      Singlet-A      1.6370 eV  757.37 nm  f=0.0006  <S**2>=0.000
     309 -> 315       -0.11469
     310 -> 316        0.11724
     311 -> 313       -0.47819
     312 -> 314        0.49511
 This state for optimization and/or second-order correction.
 Total Energy, E(TD-HF/TD-DFT) =  -4069.75166370
 Copying the excited state density for this state as the 1-particle RhoCI density.

 Excited State   2:      Singlet-A      1.7119 eV  724.26 nm  f=0.6767  <S**2>=0.000
     309 -> 315        0.13277
     310 -> 316        0.12662
     311 -> 313        0.49162
     312 -> 314        0.47487

 Excited State   3:      Singlet-A      2.1768 eV  569.57 nm  f=0.0145  <S**2>=0.000
     309 -> 313       -0.33006
     310 -> 314        0.55588
     311 -> 315        0.13444
     312 -> 316       -0.22842

 Excited State   4:      Singlet-A      2.1978 eV  564.12 nm  f=0.1546  <S**2>=0.000
     309 -> 313        0.54912
     310 -> 314        0.32346
     311 -> 315       -0.24387
     312 -> 316       -0.14546

 Excited State   5:      Singlet-A      2.2054 eV  562.18 nm  f=0.0002  <S**2>=0.000
     312 -> 313        0.70649

 The electronic state is 1-A.
 Alpha  occ. eigenvalues --  -46.87972 -46.87356 -19.26475 -19.25930 -19.19265
 Alpha  occ. eigenvalues --  -19.18952 -19.18750 -19.18461 -19.18284 -19.17594
 Alpha  occ. eigenvalues --  -14.42644 -14.42193 -14.41618 -14.41056 -14.39575
 Alpha  occ. eigenvalues --  -14.39051 -14.38752 -14.38274 -10.39307 -10.38658
 Alpha  occ. eigenvalues --  -10.35588 -10.35147 -10.34511 -10.33753 -10.31826
 Alpha  occ. eigenvalues --  -10.31602 -10.31455 -10.31127 -10.30975 -10.30745
 Alpha  occ. eigenvalues --  -10.30698 -10.30660 -10.30374 -10.30075 -10.30066
 Alpha  occ. eigenvalues --  -10.30029 -10.29891 -10.29791 -10.29580 -10.29424
 Alpha  occ. eigenvalues --  -10.29164 -10.29090 -10.29035 -10.28963 -10.28542
 Alpha  occ. eigenvalues --  -10.28483 -10.28370 -10.28343 -10.28062 -10.27948
 Alpha  occ. eigenvalues --  -10.27919 -10.27820 -10.27752 -10.27715 -10.27677
 Alpha  occ. eigenvalues --  -10.27640 -10.27591 -10.27574 -10.27389 -10.27327
 Alpha  occ. eigenvalues --  -10.27324 -10.27306 -10.27167 -10.27137 -10.27135
 Alpha  occ. eigenvalues --  -10.27129 -10.26578 -10.26452 -10.26443 -10.26431
 Alpha  occ. eigenvalues --  -10.26322 -10.26243 -10.26184 -10.25958 -10.25933
 Alpha  occ. eigenvalues --  -10.25652 -10.25635 -10.25543 -10.25530 -10.25172
 Alpha  occ. eigenvalues --  -10.24984 -10.24946 -10.24831 -10.24551 -10.24526
 Alpha  occ. eigenvalues --  -10.24374  -3.16714  -3.16107  -1.91595  -1.91183
 Alpha  occ. eigenvalues --   -1.91024  -1.90990  -1.90578  -1.90415  -1.16828
 Alpha  occ. eigenvalues --   -1.16226  -1.08740  -1.08182  -1.07349  -1.06860
 Alpha  occ. eigenvalues --   -1.06717  -1.06534  -1.04776  -1.04176  -1.03932
 Alpha  occ. eigenvalues --   -1.03399  -1.03354  -1.02735  -1.02579  -1.01797
 Alpha  occ. eigenvalues --   -0.92147  -0.91597  -0.89675  -0.89453  -0.89214
 Alpha  occ. eigenvalues --   -0.88829  -0.88438  -0.88014  -0.87960  -0.87879
 Alpha  occ. eigenvalues --   -0.87470  -0.87453  -0.87391  -0.86875  -0.85232
 Alpha  occ. eigenvalues --   -0.84703  -0.84081  -0.83617  -0.83133  -0.82863
 Alpha  occ. eigenvalues --   -0.82709  -0.82357  -0.81760  -0.81253  -0.80777
 Alpha  occ. eigenvalues --   -0.80125  -0.78971  -0.78361  -0.77419  -0.77141
 Alpha  occ. eigenvalues --   -0.76868  -0.76593  -0.76117  -0.75504  -0.75047
 Alpha  occ. eigenvalues --   -0.74524  -0.72940  -0.72393  -0.71848  -0.71264
 Alpha  occ. eigenvalues --   -0.70053  -0.69528  -0.69101  -0.68537  -0.67815
 Alpha  occ. eigenvalues --   -0.67488  -0.67294  -0.66941  -0.65526  -0.65028
 Alpha  occ. eigenvalues --   -0.64942  -0.64809  -0.64462  -0.64425  -0.64335
 Alpha  occ. eigenvalues --   -0.63930  -0.62466  -0.61925  -0.60609  -0.60076
 Alpha  occ. eigenvalues --   -0.60033  -0.59471  -0.59159  -0.58676  -0.58673
 Alpha  occ. eigenvalues --   -0.58093  -0.57754  -0.57469  -0.57125  -0.56906
 Alpha  occ. eigenvalues --   -0.56479  -0.56178  -0.55906  -0.55694  -0.55543
 Alpha  occ. eigenvalues --   -0.55492  -0.55162  -0.54946  -0.54690  -0.54178
 Alpha  occ. eigenvalues --   -0.54160  -0.53623  -0.53467  -0.53425  -0.53110
 Alpha  occ. eigenvalues --   -0.52966  -0.52948  -0.52840  -0.52591  -0.52584
 Alpha  occ. eigenvalues --   -0.52425  -0.52170  -0.52041  -0.51862  -0.51554
 Alpha  occ. eigenvalues --   -0.51380  -0.51356  -0.50869  -0.50767  -0.50275
 Alpha  occ. eigenvalues --   -0.50206  -0.50102  -0.49743  -0.49700  -0.49608
 Alpha  occ. eigenvalues --   -0.49399  -0.49303  -0.49204  -0.48866  -0.48772
 Alpha  occ. eigenvalues --   -0.48754  -0.48611  -0.48591  -0.48235  -0.48117
 Alpha  occ. eigenvalues --   -0.48038  -0.47885  -0.47471  -0.47311  -0.46981
 Alpha  occ. eigenvalues --   -0.46865  -0.46801  -0.46524  -0.46426  -0.46318
 Alpha  occ. eigenvalues --   -0.46275  -0.45997  -0.45981  -0.45771  -0.45475
 Alpha  occ. eigenvalues --   -0.45350  -0.44930  -0.44748  -0.44705  -0.44314
 Alpha  occ. eigenvalues --   -0.44306  -0.44204  -0.44184  -0.44177  -0.43822
 Alpha  occ. eigenvalues --   -0.43815  -0.43659  -0.43617  -0.43588  -0.43233
 Alpha  occ. eigenvalues --   -0.43194  -0.43081  -0.42868  -0.42811  -0.42610
 Alpha  occ. eigenvalues --   -0.42523  -0.42302  -0.42194  -0.41876  -0.41769
 Alpha  occ. eigenvalues --   -0.41692  -0.41322  -0.41301  -0.41174  -0.41099
 Alpha  occ. eigenvalues --   -0.41032  -0.40755  -0.40722  -0.40505  -0.40450
 Alpha  occ. eigenvalues --   -0.40421  -0.40178  -0.39956  -0.39590  -0.39205
 Alpha  occ. eigenvalues --   -0.38645  -0.38096  -0.38051  -0.37497  -0.37488
 Alpha  occ. eigenvalues --   -0.37390  -0.36989  -0.36910  -0.36888  -0.36414
 Alpha  occ. eigenvalues --   -0.36380  -0.35910  -0.34459  -0.33988  -0.33938
 Alpha  occ. eigenvalues --   -0.33464  -0.33361  -0.32862  -0.31483  -0.31213
 Alpha  occ. eigenvalues --   -0.31019  -0.30645  -0.30146  -0.29612  -0.29485
 Alpha  occ. eigenvalues --   -0.29470  -0.29036  -0.28863  -0.24259  -0.23707
 Alpha  occ. eigenvalues --   -0.21301  -0.20812
 Alpha virt. eigenvalues --   -0.08942  -0.08476  -0.01921  -0.01385  -0.00229
 Alpha virt. eigenvalues --    0.00264   0.02053   0.02385   0.02656   0.03609
 Alpha virt. eigenvalues --    0.04459   0.04822   0.05009   0.05589   0.05762

 Mulliken charges:
               1
     1  Mg   0.836832
     2  C   -0.004670
     3  C   -0.095734
     4  C   -0.044849
     5  C   -0.063434
     6  N   -0.256616
     7  C   -0.054160
     8  C   -0.011575
     9  C   -0.087520
    10  C    0.046111
    11  C    0.104885
    12  C    0.042890
    13  C   -0.070437
    14  H    0.034377
    15  N   -0.433445
    16  C    0.167999
    17  C   -0.178399
    18  C   -0.003815
    19  C    0.149201
    20  C    0.110404
    21  C    0.013213
    22  O   -0.248312
    23  C    0.062684
    24  N   -0.340840
    25  C    0.041045
    26  C   -0.028397
    27  C   -0.024058
    28  C    0.075076
    29  C    0.075988
    30  C    0.035009
    31  C   -0.005258
    32  N   -0.310924
    33  C    0.081006
    34  C   -0.168965
    35  C    0.009304
    36  C    0.083299
    37  C    0.126948
    38  C    0.047029
    39  O   -0.186008
    40  C   -0.005839
    41  C    0.214316
    42  O   -0.259120
    43  O   -0.304626
    44  C    0.155850
    45  H   -0.018081
    46  H   -0.016172
    47  H   -0.040982
    48  H    0.001589
    49  H   -0.005227
    50  H    0.025978
    51  H    0.017147
    52  H    0.016716
    53  H    0.013800
    54  H    0.046537
    55  H    0.019578
    56  H    0.016476
    57  H    0.005243
    58  H    0.027492
    59  H    0.037220
    60  H    0.037238
    61  H    0.036752
    62  H    0.029451
    63  H    0.017180
    64  H    0.009851
    65  H    0.023697
    66  H    0.012597
    67  H    0.004971
    68  H    0.006577
    69  H    0.004784
    70  H    0.009527
    71  H    0.016901
    72  H    0.030296
    73  H    0.049242
    74  H    0.009140
    75  H    0.046382
    76  H    0.035624
    77  H    0.044516
    78  H    0.044949
    79  H    0.056484
    80  Mg   0.836508
    81  C   -0.015497
    82  C   -0.088045
    83  C   -0.045312
    84  C   -0.066064
    85  N   -0.254629
    86  C   -0.047858
    87  C   -0.015167
    88  C   -0.093597
    89  C    0.044909
    90  C    0.104506
    91  C    0.062892
    92  C   -0.076638
    93  H    0.033461
    94  N   -0.423432
    95  C    0.162659
    96  C   -0.175867
    97  C   -0.008066
    98  C    0.151669
    99  C    0.100228
   100  C    0.015250
   101  O   -0.253512
   102  C    0.061537
   103  N   -0.350276
   104  C    0.037108
   105  C   -0.019613
   106  C   -0.034580
   107  C    0.089530
   108  C    0.073480
   109  C    0.034921
   110  C   -0.007548
   111  N   -0.324700
   112  C    0.079471
   113  C   -0.163234
   114  C    0.004531
   115  C    0.095206
   116  C    0.131055
   117  C    0.045372
   118  O   -0.185976
   119  C   -0.002232
   120  C    0.209469
   121  O   -0.252956
   122  O   -0.302999
   123  C    0.152510
   124  H   -0.022231
   125  H   -0.016052
   126  H   -0.041389
   127  H    0.005883
   128  H   -0.007223
   129  H    0.040437
   130  H    0.013817
   131  H    0.013678
   132  H    0.012873
   133  H    0.037639
   134  H    0.019736
   135  H    0.018002
   136  H    0.006770
   137  H    0.023312
   138  H    0.038895
   139  H    0.037072
   140  H    0.035781
   141  H    0.033324
   142  H    0.013851
   143  H    0.011036
   144  H    0.024564
   145  H    0.013347
   146  H    0.004101
   147  H    0.005556
   148  H    0.003155
   149  H    0.010749
   150  H    0.017414
   151  H    0.030591
   152  H    0.045845
   153  H    0.007072
   154  H    0.048839
   155  H    0.051945
   156  H    0.042862
   157  H    0.047621
   158  H    0.052715
 Sum of Mulliken charges =  -0.00000

 Dipole moment (field-independent basis, Debye):
    X=             -4.5199    Y=             -3.4331    Z=             -6.2768  Tot=              8.4625
 Quadrupole moment (field-independent basis, Debye-Ang):
   XX=           -514.6541   YY=           -556.1584   ZZ=           -449.9739
   XY=             -0.1330   XZ=             24.3370   YZ=            -39.0897

 Normal termination of Gaussian 16 at Thu Sep  9 07:11:35 2021.
