 Gaussian 16, Revision A.03,
 Gaussian 16:  ES64L-G16RevA.03 25-Dec-2016

 -----------------------------------
 #p cam-b3lyp/Def2SVP td=(nstates=5)
 -----------------------------------

 --------------------------------
 TDDFT excited states in gaussian
 --------------------------------
 Symbolic Z-matrix:
 Charge =  0 Multiplicity = 1

                         Standard orientation:
 ---------------------------------------------------------------------
 Center     Atomic      Atomic             Coordinates (Angstroms)
 Number     Number       Type             X           Y           Z
 ---------------------------------------------------------------------
      1         12           0        5.068716    0.686163   -0.140908
      2          6           0        5.467958   -2.715713   -1.180167
      3          6           0        5.925960    1.600297   -3.314637
      4          6           0        5.166094    3.691243    0.867373
      5          6           0        5.360026   -0.438169    3.144922
      6          7           0        5.604904   -0.499504   -1.931813
      7          6           0        5.662382   -1.797240   -2.214213
      8          6           0        5.874144   -2.090976   -3.729551
      9          6           0        6.557045   -0.715910   -4.159479
     10          6           0        5.967703    0.191529   -3.094043
     11          6           0        8.075646   -0.719065   -4.016843
     12          6           0        4.522109   -2.320082   -4.485357
     13          6           0        4.650757   -2.929754   -5.884322
     14          1           0        3.628824   -3.860311   -6.339366
     15          7           0        5.005632    2.380452   -1.154938
     16          6           0        5.377822    2.567036   -2.444103
     17          6           0        5.142383    3.997990   -2.733273
     18          6           0        4.782358    4.667752   -1.452689
     19          6           0        4.998636    3.598082   -0.512259
     20          6           0        5.218345    4.582504   -4.110344
     21          6           0        4.327282    6.055140   -1.126819
     22          8           0        4.292132    6.495218    0.073044
     23          6           0        4.003649    6.926155   -2.271212
     24          7           0        5.457365    1.547586    1.720419
     25          6           0        5.377752    2.870807    1.898553
     26          6           0        5.415667    3.228984    3.354647
     27          6           0        5.293062    1.851061    4.152174
     28          6           0        5.287879    0.879882    2.945917
     29          6           0        6.667308    3.981972    3.826255
     30          6           0        4.150923    1.740315    5.193169
     31          6           0        2.812430    1.748331    4.489274
     32          7           0        5.184564   -1.241011    0.850870
     33          6           0        5.324833   -1.474180    2.226599
     34          6           0        5.467193   -2.930812    2.405560
     35          6           0        5.416140   -3.445722    1.111688
     36          6           0        5.278625   -2.376187    0.181378
     37          6           0        5.677562   -3.601859    3.642441
     38          6           0        5.470512   -4.648663    0.296928
     39          8           0        5.484963   -5.857244    0.534872
     40          6           0        5.628681   -4.214883   -1.227094
     41          6           0        4.631056   -5.004225   -2.030208
     42          8           0        3.405183   -4.818647   -1.888210
     43          8           0        5.271958   -5.675501   -2.999318
     44          6           0        4.336079   -6.456400   -3.851657
     45          1           0        6.407687    2.009672   -4.204744
     46          1           0        5.094603    4.704728    1.267595
     47          1           0        5.370177   -0.869152    4.147720
     48          1           0        6.546176   -2.922715   -3.941704
     49          1           0        6.236593   -0.394726   -5.150374
     50          1           0        8.427276   -1.623304   -3.520225
     51          1           0        8.313640    0.160810   -3.418786
     52          1           0        8.555801   -0.563311   -4.983263
     53          1           0        4.086325   -1.354800   -4.743006
     54          1           0        3.844291   -2.930067   -3.887187
     55          1           0        5.645607   -3.344854   -6.048253
     56          1           0        4.568655   -2.125986   -6.616043
     57          1           0        5.664853    3.884641   -4.817566
     58          1           0        5.923460    5.412274   -4.065584
     59          1           0        4.249508    4.941701   -4.457712
     60          1           0        4.882279    7.023374   -2.909261
     61          1           0        3.611580    7.849031   -1.845263
     62          1           0        3.236759    6.442714   -2.877112
     63          1           0        4.577683    3.871760    3.621194
     64          1           0        6.194994    1.626721    4.722143
     65          1           0        6.449746    4.939815    4.299445
     66          1           0        7.326583    4.110443    2.968268
     67          1           0        7.306722    3.423173    4.509125
     68          1           0        4.165366    2.598175    5.864596
     69          1           0        4.211502    0.839741    5.804356
     70          1           0        2.618566    2.810881    4.347012
     71          1           0        2.048197    1.293064    5.120061
     72          1           0        2.879903    1.294171    3.500501
     73          1           0        5.025979   -4.475505    3.630165
     74          1           0        5.453475   -2.952428    4.488390
     75          1           0        6.738994   -3.837321    3.566452
     76          1           0        6.655388   -4.441727   -1.512639
     77          1           0        4.673285   -7.492816   -3.832472
     78          1           0        4.303394   -5.952754   -4.817927
     79          1           0        3.317935   -6.564266   -3.476043
     80         12           0       -5.488834    0.111736   -0.243652
     81          6           0       -4.171705   -0.916001    2.932515
     82          6           0       -5.056915    3.334094    0.788052
     83          6           0       -7.055991    1.047962   -2.838816
     84          6           0       -6.853261   -3.080066   -0.554269
     85          7           0       -4.705888    0.970471    1.638326
     86          6           0       -4.177242    0.482670    2.750499
     87          6           0       -3.550500    1.550364    3.686867
     88          6           0       -4.391815    2.826272    3.193772
     89          6           0       -4.713177    2.372282    1.771343
     90          6           0       -5.700720    3.010421    3.943560
     91          6           0       -2.014223    1.741657    3.431361
     92          6           0       -1.277124    2.538099    4.510300
     93          1           0        0.094906    2.160959    4.838550
     94          7           0       -5.547063    1.881261   -1.140276
     95          6           0       -5.323550    3.086886   -0.576544
     96          6           0       -5.506921    4.073998   -1.651785
     97          6           0       -6.018041    3.365669   -2.856670
     98          6           0       -6.251691    2.045338   -2.306928
     99          6           0       -5.129636    5.519278   -1.502585
    100          6           0       -6.268675    3.807346   -4.266742
    101          8           0       -6.939406    3.087909   -5.088548
    102          6           0       -5.786110    5.147894   -4.629424
    103          7           0       -6.944561   -0.797892   -1.416592
    104          6           0       -7.419922   -0.194316   -2.520066
    105          6           0       -8.247671   -1.147030   -3.349260
    106          6           0       -8.028495   -2.589110   -2.693572
    107          6           0       -7.144074   -2.189117   -1.492252
    108          6           0       -9.743789   -0.841631   -3.418147
    109          6           0       -7.530730   -3.721232   -3.633359
    110          6           0       -6.117656   -3.432150   -4.086184
    111          7           0       -5.372689   -1.743390    0.857748
    112          6           0       -6.044326   -2.951178    0.567516
    113          6           0       -5.740452   -3.892805    1.664525
    114          6           0       -4.925328   -3.154148    2.535418
    115          6           0       -4.751158   -1.838268    2.027866
    116          6           0       -6.239973   -5.220361    1.783639
    117          6           0       -4.181302   -3.185081    3.774036
    118          8           0       -3.893596   -4.056985    4.593028
    119          6           0       -3.763820   -1.698232    4.150037
    120          6           0       -2.306552   -1.705098    4.522648
    121          8           0       -1.438523   -1.975991    3.674269
    122          8           0       -2.164129   -1.181867    5.754035
    123          6           0       -0.734685   -1.157040    6.163761
    124          1           0       -5.175410    4.372886    1.097505
    125          1           0       -7.531047    1.284473   -3.793739
    126          1           0       -7.160744   -4.125479   -0.626718
    127          1           0       -3.716779    1.381286    4.744005
    128          1           0       -3.777280    3.722626    3.178264
    129          1           0       -5.905681    2.182353    4.605696
    130          1           0       -6.467165    3.085610    3.183325
    131          1           0       -5.702382    3.969662    4.469093
    132          1           0       -1.874655    2.412777    2.574118
    133          1           0       -1.531080    0.794788    3.287728
    134          1           0       -1.874905    2.646227    5.423485
    135          1           0       -1.143248    3.562629    4.154729
    136          1           0       -4.936186    5.778359   -0.454327
    137          1           0       -6.012874    6.109534   -1.769707
    138          1           0       -4.301627    5.807822   -2.153579
    139          1           0       -6.246051    5.886102   -3.976763
    140          1           0       -5.978075    5.247994   -5.699475
    141          1           0       -4.707037    5.193164   -4.444525
    142          1           0       -7.899139   -1.170499   -4.374487
    143          1           0       -8.962377   -2.992863   -2.275620
    144          1           0      -10.115929   -0.713387   -4.452135
    145          1           0       -9.938328    0.046126   -2.831145
    146          1           0      -10.388028   -1.578999   -2.942287
    147          1           0       -8.144232   -3.760607   -4.536806
    148          1           0       -7.563503   -4.705703   -3.178664
    149          1           0       -6.263216   -2.747741   -4.927308
    150          1           0       -5.622202   -4.347551   -4.403344
    151          1           0       -5.559739   -2.890709   -3.313387
    152          1           0       -5.408259   -5.839403    2.092737
    153          1           0       -6.669517   -5.569086    0.846808
    154          1           0       -7.000996   -5.073938    2.554794
    155          1           0       -4.396897   -1.379954    4.979184
    156          1           0       -0.665711   -1.693226    7.115309
    157          1           0       -0.442608   -0.090060    6.164488
    158          1           0       -0.029522   -1.712386    5.556478
 ---------------------------------------------------------------------

 SCF Done:  E(RCAM-B3LYP) =  -4069.81049265     A.U. after   19 cycles

 Excitation energies and oscillator strengths:

 Excited State   1:      Singlet-A      1.6557 eV  748.81 nm  f=0.0062  <S**2>=0.000
     309 -> 315       -0.11247
     310 -> 316        0.12512
     311 -> 313       -0.45846
     312 -> 314        0.51195
 This state for optimization and/or second-order correction.
 Total Energy, E(TD-HF/TD-DFT) =  -4069.74964524
 Copying the excited state density for this state as the 1-particle RhoCI density.

 Excited State   2:      Singlet-A      1.6969 eV  730.65 nm  f=0.7132  <S**2>=0.000
     309 -> 315        0.13336
     310 -> 316        0.11898
     311 -> 313        0.50994
     312 -> 314        0.45680

 Excited State   3:      Singlet-A      2.1824 eV  568.11 nm  f=0.0373  <S**2>=0.000
     309 -> 313        0.30409
     310 -> 314        0.56780
     311 -> 315       -0.12685
     312 -> 316       -0.23777

 Excited State   4:      Singlet-A      2.1927 eV  565.44 nm  f=0.1500  <S**2>=0.000
     309 -> 313        0.56414
     310 -> 314       -0.30144
     311 -> 315       -0.24645
     312 -> 316        0.13171

 Excited State   5:      Singlet-A      2.5525 eV  485.73 nm  f=0.0000  <S**2>=0.000
     312 -> 313        0.70696

 The electronic state is 1-A.
 Alpha  occ. eigenvalues --  -46.87701 -46.87486 -19.26223 -19.26078 -19.18963
 Alpha  occ. eigenvalues --  -19.18812 -19.18788 -19.18602 -19.18009 -19.17864
 Alpha  occ. eigenvalues --  -14.42356 -14.42319 -14.41387 -14.41192 -14.39320
 Alpha  occ. eigenvalues --  -14.39185 -14.38468 -14.38419 -10.38902 -10.38861
 Alpha  occ. eigenvalues --  -10.35450 -10.35284 -10.34227 -10.34042 -10.31729
 Alpha  occ. eigenvalues --  -10.31480 -10.31289 -10.31119 -10.30850 -10.30820
 Alpha  occ. eigenvalues --  -10.30458 -10.30421 -10.30227 -10.30187 -10.30177
 Alpha  occ. eigenvalues --  -10.29992 -10.29858 -10.29726 -10.29539 -10.29279
 Alpha  occ. eigenvalues --  -10.29232 -10.29181 -10.28633 -10.28505 -10.28400
 Alpha  occ. eigenvalues --  -10.28259 -10.28252 -10.28234 -10.28008 -10.27941
 Alpha  occ. eigenvalues --  -10.27831 -10.27687 -10.27638 -10.27584 -10.27506
 Alpha  occ. eigenvalues --  -10.27501 -10.27494 -10.27435 -10.27380 -10.27334
 Alpha  occ. eigenvalues --  -10.27311 -10.27306 -10.27302 -10.27242 -10.27002
 Alpha  occ. eigenvalues --  -10.26877 -10.26563 -10.26459 -10.26425 -10.26389
 Alpha  occ. eigenvalues --  -10.26352 -10.26138 -10.25999 -10.25964 -10.25857
 Alpha  occ. eigenvalues --  -10.25768 -10.25691 -10.25657 -10.25478 -10.25285
 Alpha  occ. eigenvalues --  -10.25018 -10.24725 -10.24709 -10.24697 -10.24579
 Alpha  occ. eigenvalues --  -10.24527  -3.16442  -3.16235  -1.91323  -1.91117
 Alpha  occ. eigenvalues --   -1.90911  -1.90752  -1.90706  -1.90543  -1.16500
 Alpha  occ. eigenvalues --   -1.16424  -1.08468  -1.08456  -1.07220  -1.06858
 Alpha  occ. eigenvalues --   -1.06758  -1.06416  -1.04484  -1.04317  -1.03692
 Alpha  occ. eigenvalues --   -1.03493  -1.03145  -1.02871  -1.02323  -1.01940
 Alpha  occ. eigenvalues --   -0.91857  -0.91813  -0.89548  -0.89337  -0.89078
 Alpha  occ. eigenvalues --   -0.88944  -0.88304  -0.88070  -0.87746  -0.87609
 Alpha  occ. eigenvalues --   -0.87588  -0.87500  -0.87222  -0.86982  -0.84889
 Alpha  occ. eigenvalues --   -0.84798  -0.83999  -0.83732  -0.82977  -0.82816
 Alpha  occ. eigenvalues --   -0.82574  -0.82484  -0.81461  -0.81450  -0.80503
 Alpha  occ. eigenvalues --   -0.80290  -0.78723  -0.78479  -0.77194  -0.76965
 Alpha  occ. eigenvalues --   -0.76851  -0.76724  -0.75815  -0.75678  -0.74892
 Alpha  occ. eigenvalues --   -0.74662  -0.72697  -0.72527  -0.71599  -0.71420
 Alpha  occ. eigenvalues --   -0.70033  -0.69610  -0.68789  -0.68638  -0.67562
 Alpha  occ. eigenvalues --   -0.67438  -0.67125  -0.66993  -0.65190  -0.65081
 Alpha  occ. eigenvalues --   -0.64780  -0.64609  -0.64556  -0.64491  -0.64260
 Alpha  occ. eigenvalues --   -0.64051  -0.62168  -0.62139  -0.60404  -0.60196
 Alpha  occ. eigenvalues --   -0.59699  -0.59604  -0.58913  -0.58825  -0.58423
 Alpha  occ. eigenvalues --   -0.58262  -0.57448  -0.57382  -0.57248  -0.57084
 Alpha  occ. eigenvalues --   -0.56224  -0.56044  -0.55831  -0.55755  -0.55476
 Alpha  occ. eigenvalues --   -0.55352  -0.55301  -0.55099  -0.54478  -0.54341
 Alpha  occ. eigenvalues --   -0.53786  -0.53707  -0.53264  -0.53145  -0.53081
 Alpha  occ. eigenvalues --   -0.52981  -0.52851  -0.52736  -0.52721  -0.52530
 Alpha  occ. eigenvalues --   -0.52514  -0.52252  -0.51776  -0.51698  -0.51515
 Alpha  occ. eigenvalues --   -0.51478  -0.51125  -0.51039  -0.50575  -0.50355
 Alpha  occ. eigenvalues --   -0.50137  -0.49874  -0.49810  -0.49723  -0.49439
 Alpha  occ. eigenvalues --   -0.49328  -0.49116  -0.49036  -0.48995  -0.48914
 Alpha  occ. eigenvalues --   -0.48508  -0.48431  -0.48394  -0.48363  -0.48233
 Alpha  occ. eigenvalues --   -0.48204  -0.47644  -0.47442  -0.47235  -0.46979
 Alpha  occ. eigenvalues --   -0.46772  -0.46540  -0.46459  -0.46384  -0.46283
 Alpha  occ. eigenvalues --   -0.46115  -0.46072  -0.45928  -0.45713  -0.45648
 Alpha  occ. eigenvalues --   -0.45259  -0.45056  -0.44520  -0.44466  -0.44344
 Alpha  occ. eigenvalues --   -0.44289  -0.44145  -0.44004  -0.43953  -0.43927
 Alpha  occ. eigenvalues --   -0.43908  -0.43790  -0.43413  -0.43388  -0.43324
 Alpha  occ. eigenvalues --   -0.43214  -0.42970  -0.42799  -0.42765  -0.42734
 Alpha  occ. eigenvalues --   -0.42507  -0.42400  -0.42014  -0.41777  -0.41616
 Alpha  occ. eigenvalues --   -0.41496  -0.41445  -0.41262  -0.41070  -0.40843
 Alpha  occ. eigenvalues --   -0.40824  -0.40814  -0.40600  -0.40567  -0.40552
 Alpha  occ. eigenvalues --   -0.40346  -0.40121  -0.40003  -0.39581  -0.39267
 Alpha  occ. eigenvalues --   -0.38483  -0.38159  -0.37653  -0.37402  -0.37243
 Alpha  occ. eigenvalues --   -0.37151  -0.37088  -0.36935  -0.36628  -0.36499
 Alpha  occ. eigenvalues --   -0.36086  -0.36003  -0.34191  -0.34076  -0.33665
 Alpha  occ. eigenvalues --   -0.33565  -0.33086  -0.33003  -0.31342  -0.31160
 Alpha  occ. eigenvalues --   -0.30952  -0.30805  -0.29864  -0.29767  -0.29371
 Alpha  occ. eigenvalues --   -0.29193  -0.29170  -0.29032  -0.23990  -0.23864
 Alpha  occ. eigenvalues --   -0.21043  -0.20946
 Alpha virt. eigenvalues --   -0.08687  -0.08625  -0.01684  -0.01520   0.00008
 Alpha virt. eigenvalues --    0.00121   0.02315   0.02384   0.03219   0.03490
 Alpha virt. eigenvalues --    0.04801   0.04920   0.05302   0.05349   0.06177

 Mulliken charges:
               1
     1  Mg   0.840861
     2  C   -0.002044
     3  C   -0.093908
     4  C   -0.046563
     5  C   -0.063952
     6  N   -0.256578
     7  C   -0.052081
     8  C   -0.014114
     9  C   -0.086998
    10  C    0.046167
    11  C    0.104884
    12  C    0.053469
    13  C   -0.071777
    14  H    0.036532
    15  N   -0.432870
    16  C    0.168018
    17  C   -0.177445
    18  C   -0.004761
    19  C    0.148509
    20  C    0.110248
    21  C    0.011363
    22  O   -0.251086
    23  C    0.062843
    24  N   -0.340923
    25  C    0.040861
    26  C   -0.028276
    27  C   -0.024406
    28  C    0.074239
    29  C    0.076254
    30  C    0.041828
    31  C   -0.023661
    32  N   -0.311212
    33  C    0.082565
    34  C   -0.167176
    35  C    0.009334
    36  C    0.084928
    37  C    0.126927
    38  C    0.047921
    39  O   -0.187112
    40  C   -0.006091
    41  C    0.212727
    42  O   -0.254716
    43  O   -0.305323
    44  C    0.157584
    45  H   -0.017876
    46  H   -0.018043
    47  H   -0.042328
    48  H    0.001005
    49  H   -0.004123
    50  H    0.025436
    51  H    0.016157
    52  H    0.016431
    53  H    0.011204
    54  H    0.045208
    55  H    0.017599
    56  H    0.017682
    57  H    0.005999
    58  H    0.026322
    59  H    0.038738
    60  H    0.037723
    61  H    0.034254
    62  H    0.030750
    63  H    0.015452
    64  H    0.009676
    65  H    0.022517
    66  H    0.013075
    67  H    0.004725
    68  H    0.005891
    69  H    0.002723
    70  H    0.014117
    71  H    0.024581
    72  H    0.036375
    73  H    0.050339
    74  H    0.008044
    75  H    0.045597
    76  H    0.034823
    77  H    0.042708
    78  H    0.045889
    79  H    0.054583
    80  Mg   0.838501
    81  C   -0.016360
    82  C   -0.087533
    83  C   -0.045827
    84  C   -0.064949
    85  N   -0.254603
    86  C   -0.049273
    87  C   -0.014824
    88  C   -0.090477
    89  C    0.045712
    90  C    0.114474
    91  C    0.064471
    92  C   -0.089189
    93  H    0.041522
    94  N   -0.423302
    95  C    0.162606
    96  C   -0.175018
    97  C   -0.008385
    98  C    0.152013
    99  C    0.099536
   100  C    0.015048
   101  O   -0.253797
   102  C    0.061521
   103  N   -0.350161
   104  C    0.037429
   105  C   -0.019658
   106  C   -0.034877
   107  C    0.089201
   108  C    0.073851
   109  C    0.034794
   110  C   -0.007642
   111  N   -0.324426
   112  C    0.079193
   113  C   -0.162140
   114  C    0.002602
   115  C    0.097249
   116  C    0.131193
   117  C    0.043677
   118  O   -0.187359
   119  C    0.000293
   120  C    0.211264
   121  O   -0.248276
   122  O   -0.306126
   123  C    0.149940
   124  H   -0.019854
   125  H   -0.016177
   126  H   -0.040432
   127  H   -0.001457
   128  H   -0.003669
   129  H    0.022066
   130  H    0.014053
   131  H    0.015968
   132  H    0.014025
   133  H    0.036351
   134  H    0.018120
   135  H    0.019072
   136  H    0.009168
   137  H    0.025597
   138  H    0.038912
   139  H    0.038291
   140  H    0.035520
   141  H    0.033067
   142  H    0.013984
   143  H    0.012154
   144  H    0.024612
   145  H    0.011502
   146  H    0.005408
   147  H    0.005651
   148  H    0.003809
   149  H    0.010179
   150  H    0.018175
   151  H    0.031073
   152  H    0.047314
   153  H    0.008498
   154  H    0.046439
   155  H    0.034545
   156  H    0.043298
   157  H    0.049930
   158  H    0.054676
 Sum of Mulliken charges =  -0.00000

 Dipole moment (field-independent basis, Debye):
    X=              1.2424    Y=              6.3217    Z=             -2.7742  Tot=              7.0145
 Quadrupole moment (field-independent basis, Debye-Ang):
   XX=           -484.4110   YY=           -526.2150   ZZ=           -476.7134
   XY=             10.6388   XZ=            -20.6064   YZ=             28.3273

 Normal termination of Gaussian 16 at Fri Sep 10 15:14:55 2021.
