 Gaussian 16, Revision A.03,
 Gaussian 16:  ES64L-G16RevA.03 25-Dec-2016

 -----------------------------------
 #p cam-b3lyp/Def2SVP td=(nstates=5)
 -----------------------------------

 --------------------------------
 TDDFT excited states in gaussian
 --------------------------------
 Symbolic Z-matrix:
 Charge =  0 Multiplicity = 1

                         Standard orientation:
 ---------------------------------------------------------------------
 Center     Atomic      Atomic             Coordinates (Angstroms)
 Number     Number       Type             X           Y           Z
 ---------------------------------------------------------------------
      1         12           0        4.146734   -1.129228    0.025087
      2          6           0        4.691092    1.850816   -1.881540
      3          6           0        5.211715    0.606188    2.763190
      4          6           0        4.108127   -3.860427    1.636199
      5          6           0        4.223352   -2.890153   -2.981395
      6          7           0        4.835592    0.958917    0.281546
      7          6           0        4.940458    2.016264   -0.517323
      8          6           0        5.267242    3.335764    0.243930
      9          6           0        5.950503    2.714072    1.543411
     10          6           0        5.266874    1.358160    1.552188
     11          6           0        7.454563    2.504907    1.400039
     12          6           0        3.978433    4.147471    0.607018
     13          6           0        4.220540    5.591513    1.055885
     14          1           0        3.253843    6.612636    0.681512
     15          7           0        4.121645   -1.468503    1.971137
     16          6           0        4.582014   -0.644437    2.942868
     17          6           0        4.338199   -1.346004    4.221554
     18          6           0        3.872666   -2.724318    3.902766
     19          6           0        4.042765   -2.748423    2.472429
     20          6           0        4.501205   -0.695625    5.561026
     21          6           0        3.366312   -3.845877    4.753556
     22          8           0        3.235370   -5.035385    4.303559
     23          6           0        3.108052   -3.530855    6.170279
     24          7           0        4.381789   -3.121627   -0.551740
     25          6           0        4.261851   -4.115552    0.335228
     26          6           0        4.186969   -5.449595   -0.346433
     27          6           0        4.035919   -5.141324   -1.905890
     28          6           0        4.138214   -3.597006   -1.852157
     29          6           0        5.385241   -6.382797   -0.124420
     30          6           0        2.824124   -5.775362   -2.633878
     31          6           0        1.540108   -5.158729   -2.125781
     32          7           0        4.230918   -0.624527   -2.084234
     33          6           0        4.276276   -1.518377   -3.163887
     34          6           0        4.435777   -0.710612   -4.387056
     35          6           0        4.489116    0.604555   -3.929524
     36          6           0        4.396827    0.615741   -2.508380
     37          6           0        4.570227   -1.218332   -5.709394
     38          6           0        4.627362    2.001310   -4.308762
     39          8           0        4.649865    2.611188   -5.378825
     40          6           0        4.886113    2.855362   -2.989872
     41          6           0        3.965848    4.044793   -3.030776
     42          8           0        2.729306    3.900200   -2.944610
     43          8           0        4.688991    5.170191   -2.925484
     44          6           0        3.833677    6.386979   -2.929783
     45          1           0        5.747821    0.976391    3.639250
     46          1           0        3.986723   -4.819759    2.143526
     47          1           0        4.170042   -3.364751   -3.962908
     48          1           0        5.970096    3.993522   -0.267708
     49          1           0        5.695828    3.272685    2.443863
     50          1           0        7.788235    2.697842    0.380549
     51          1           0        7.630270    1.462703    1.667307
     52          1           0        7.999920    3.098543    2.134177
     53          1           0        3.542304    3.740295    1.519191
     54          1           0        3.272080    4.141820   -0.223861
     55          1           0        5.233099    5.918480    0.817715
     56          1           0        4.174719    5.623021    2.144511
     57          1           0        5.012141    0.263082    5.481213
     58          1           0        5.183731   -1.320030    6.137208
     59          1           0        3.552694   -0.602517    6.090167
     60          1           0        4.028256   -3.173622    6.633052
     61          1           0        2.667015   -4.428435    6.602351
     62          1           0        2.397222   -2.705801    6.224634
     63          1           0        3.318655   -6.013461   -0.008038
     64          1           0        4.898811   -5.485778   -2.476365
     65          1           0        5.114072   -7.350759    0.297742
     66          1           0        6.101947   -5.865271    0.512597
     67          1           0        5.985199   -6.575726   -1.013378
     68          1           0        2.772072   -6.843191   -2.424166
     69          1           0        2.859216   -5.651277   -3.716293
     70          1           0        1.334843   -5.732979   -1.223043
     71          1           0        0.741992   -5.284212   -2.858227
     72          1           0        1.688326   -4.121293   -1.825375
     73          1           0        3.939653   -0.593375   -6.341672
     74          1           0        4.272073   -2.265108   -5.763855
     75          1           0        5.639069   -1.079633   -5.871245
     76          1           0        5.935286    3.148715   -3.007192
     77          1           0        4.190223    7.027098   -3.736849
     78          1           0        3.860358    6.788083   -1.916467
     79          1           0        2.793537    6.244002   -3.224748
     80         12           0       -4.794469   -0.119909   -0.013838
     81          6           0       -2.166043    1.998093    1.204576
     82          6           0       -6.979100    2.362950    0.821265
     83          6           0       -7.166547   -2.126474   -0.657533
     84          6           0       -2.594788   -2.803244    0.312953
     85          7           0       -4.490806    1.876387    0.888850
     86          6           0       -3.441585    2.598147    1.252911
     87          6           0       -3.769319    4.070988    1.617491
     88          6           0       -5.315703    3.883675    2.007959
     89          6           0       -5.633748    2.651946    1.162761
     90          6           0       -5.528403    3.527653    3.469925
     91          6           0       -3.598715    5.041221    0.396199
     92          6           0       -3.601219    6.529553    0.752018
     93          1           0       -2.740615    7.429126   -0.011265
     94          7           0       -6.710278    0.235103   -0.390940
     95          6           0       -7.433127    1.303743    0.005014
     96          6           0       -8.793363    1.082444   -0.509721
     97          6           0       -8.855110   -0.282050   -1.100534
     98          6           0       -7.557181   -0.796450   -0.712151
     99          6           0       -9.855273    2.143183   -0.485113
    100          6           0       -9.912935   -1.008779   -1.874546
    101          8           0       -9.846203   -2.271525   -2.083931
    102          6           0      -11.075541   -0.215651   -2.299737
    103          7           0       -4.943543   -2.192694    0.046892
    104          6           0       -6.072563   -2.816048   -0.333469
    105          6           0       -5.855043   -4.304282   -0.468432
    106          6           0       -4.276427   -4.521741   -0.333308
    107          6           0       -3.844728   -3.067776   -0.041770
    108          6           0       -6.578407   -5.177929    0.556209
    109          6           0       -3.569929   -5.285388   -1.486728
    110          6           0       -3.603601   -4.456981   -2.750850
    111          7           0       -2.700474   -0.365959    0.458081
    112          6           0       -1.987467   -1.580030    0.566505
    113          6           0       -0.621885   -1.244025    1.018952
    114          6           0       -0.642112    0.151173    1.165655
    115          6           0       -1.935261    0.647436    0.847896
    116          6           0        0.419725   -2.177160    1.284340
    117          6           0        0.133394    1.315851    1.527328
    118          8           0        1.314866    1.521810    1.801978
    119          6           0       -0.854668    2.550161    1.690506
    120          6           0       -0.266780    3.717345    0.945798
    121          8           0       -0.149928    3.683344   -0.291857
    122          8           0       -0.142014    4.759490    1.787661
    123          6           0        0.426741    5.944883    1.092534
    124          1           0       -7.767861    2.980065    1.252435
    125          1           0       -7.917702   -2.852061   -0.978133
    126          1           0       -1.821377   -3.573661    0.344323
    127          1           0       -3.217190    4.463281    2.463087
    128          1           0       -5.910831    4.733135    1.682989
    129          1           0       -4.594468    3.342768    3.979561
    130          1           0       -6.142013    2.636290    3.469365
    131          1           0       -6.122237    4.302016    3.963940
    132          1           0       -4.501506    4.995356   -0.226378
    133          1           0       -2.711596    4.803693   -0.158081
    134          1           0       -3.472853    6.696240    1.828439
    135          1           0       -4.591480    6.936810    0.533953
    136          1           0       -9.568915    2.984193    0.158397
    137          1           0      -10.730338    1.708178    0.009775
    138          1           0      -10.143088    2.474340   -1.485190
    139          1           0      -11.558173    0.214928   -1.425599
    140          1           0      -11.677863   -0.886777   -2.915110
    141          1           0      -10.722496    0.623413   -2.909615
    142          1           0       -6.176137   -4.655379   -1.441428
    143          1           0       -4.021215   -5.110456    0.560061
    144          1           0       -7.241339   -5.933955    0.094691
    145          1           0       -7.140424   -4.532960    1.218557
    146          1           0       -5.929321   -5.711081    1.248777
    147          1           0       -4.103122   -6.212948   -1.709216
    148          1           0       -2.541951   -5.550521   -1.263203
    149          1           0       -4.593251   -4.675727   -3.162958
    150          1           0       -2.814625   -4.766944   -3.433106
    151          1           0       -3.571928   -3.385762   -2.520353
    152          1           0        1.322580   -1.767404    0.851381
    153          1           0        0.189747   -3.157528    0.872320
    154          1           0        0.406916   -2.178039    2.377549
    155          1           0       -0.952361    2.752721    2.757742
    156          1           0        1.315145    6.249048    1.654576
    157          1           0       -0.400471    6.676127    1.023543
    158          1           0        0.843538    5.793813    0.103651
 ---------------------------------------------------------------------

 SCF Done:  E(RCAM-B3LYP) =  -4069.81415212     A.U. after   18 cycles

 Excitation energies and oscillator strengths:

 Excited State   1:      Singlet-A      1.6528 eV  750.16 nm  f=0.3616  <S**2>=0.000
     309 -> 315        0.13611
     311 -> 313        0.55524
     312 -> 314        0.40477
 This state for optimization and/or second-order correction.
 Total Energy, E(TD-HF/TD-DFT) =  -4069.75341411
 Copying the excited state density for this state as the 1-particle RhoCI density.

 Excited State   2:      Singlet-A      1.6858 eV  735.48 nm  f=0.4429  <S**2>=0.000
     309 -> 315       -0.10332
     310 -> 316        0.14010
     311 -> 313       -0.40335
     312 -> 314        0.55380

 Excited State   3:      Singlet-A      2.0956 eV  591.63 nm  f=0.0000  <S**2>=0.000
     312 -> 313        0.70370

 Excited State   4:      Singlet-A      2.1663 eV  572.34 nm  f=0.0012  <S**2>=0.000
     309 -> 313        0.45878
     310 -> 314       -0.45863
     311 -> 315       -0.18485
     312 -> 316        0.18059

 Excited State   5:      Singlet-A      2.1884 eV  566.56 nm  f=0.1672  <S**2>=0.000
     309 -> 313        0.45286
     310 -> 314        0.45223
     311 -> 315       -0.19359
     312 -> 316       -0.19504

 The electronic state is 1-A.
 Alpha  occ. eigenvalues --  -46.87682 -46.86884 -19.26303 -19.25532 -19.18983
 Alpha  occ. eigenvalues --  -19.18750 -19.18698 -19.18262 -19.18076 -19.17403
 Alpha  occ. eigenvalues --  -14.42518 -14.41475 -14.41383 -14.40658 -14.39389
 Alpha  occ. eigenvalues --  -14.38643 -14.38476 -14.37731 -10.38931 -10.38150
 Alpha  occ. eigenvalues --  -10.35424 -10.34906 -10.34601 -10.33614 -10.31625
 Alpha  occ. eigenvalues --  -10.31372 -10.31163 -10.31043 -10.30469 -10.30456
 Alpha  occ. eigenvalues --  -10.30435 -10.30123 -10.29982 -10.29938 -10.29729
 Alpha  occ. eigenvalues --  -10.29690 -10.29492 -10.29471 -10.29459 -10.29238
 Alpha  occ. eigenvalues --  -10.28894 -10.28732 -10.28622 -10.28465 -10.28443
 Alpha  occ. eigenvalues --  -10.28183 -10.28176 -10.28094 -10.27882 -10.27707
 Alpha  occ. eigenvalues --  -10.27528 -10.27518 -10.27501 -10.27489 -10.27476
 Alpha  occ. eigenvalues --  -10.27362 -10.27254 -10.27206 -10.27049 -10.27000
 Alpha  occ. eigenvalues --  -10.26979 -10.26842 -10.26822 -10.26802 -10.26631
 Alpha  occ. eigenvalues --  -10.26559 -10.26429 -10.26347 -10.26095 -10.26094
 Alpha  occ. eigenvalues --  -10.26066 -10.25975 -10.25956 -10.25922 -10.25621
 Alpha  occ. eigenvalues --  -10.25522 -10.25382 -10.25260 -10.25205 -10.25025
 Alpha  occ. eigenvalues --  -10.24998 -10.24732 -10.24668 -10.24666 -10.24052
 Alpha  occ. eigenvalues --  -10.24027  -3.16430  -3.15592  -1.91312  -1.90901
 Alpha  occ. eigenvalues --   -1.90739  -1.90478  -1.90058  -1.89903  -1.16564
 Alpha  occ. eigenvalues --   -1.15849  -1.09138  -1.07860  -1.06999  -1.06792
 Alpha  occ. eigenvalues --   -1.06682  -1.05724  -1.04529  -1.03700  -1.03644
 Alpha  occ. eigenvalues --   -1.03074  -1.02939  -1.02394  -1.02154  -1.01580
 Alpha  occ. eigenvalues --   -0.92061  -0.91138  -0.89503  -0.89173  -0.88965
 Alpha  occ. eigenvalues --   -0.88323  -0.88216  -0.87915  -0.87708  -0.87703
 Alpha  occ. eigenvalues --   -0.87165  -0.87113  -0.86827  -0.86572  -0.85019
 Alpha  occ. eigenvalues --   -0.84233  -0.83863  -0.83470  -0.82949  -0.82671
 Alpha  occ. eigenvalues --   -0.82412  -0.81945  -0.81620  -0.80879  -0.80469
 Alpha  occ. eigenvalues --   -0.79854  -0.78699  -0.78056  -0.77175  -0.76915
 Alpha  occ. eigenvalues --   -0.76608  -0.76271  -0.75873  -0.75199  -0.74811
 Alpha  occ. eigenvalues --   -0.74317  -0.72757  -0.72029  -0.71616  -0.70937
 Alpha  occ. eigenvalues --   -0.69730  -0.69503  -0.68860  -0.68151  -0.67658
 Alpha  occ. eigenvalues --   -0.67211  -0.66906  -0.66475  -0.65301  -0.64794
 Alpha  occ. eigenvalues --   -0.64668  -0.64481  -0.64207  -0.64106  -0.63938
 Alpha  occ. eigenvalues --   -0.63592  -0.62280  -0.61576  -0.60378  -0.59839
 Alpha  occ. eigenvalues --   -0.59767  -0.59045  -0.58942  -0.58470  -0.58239
 Alpha  occ. eigenvalues --   -0.57760  -0.57625  -0.57274  -0.56805  -0.56629
 Alpha  occ. eigenvalues --   -0.56252  -0.55899  -0.55589  -0.55497  -0.55277
 Alpha  occ. eigenvalues --   -0.55259  -0.54866  -0.54760  -0.54478  -0.53930
 Alpha  occ. eigenvalues --   -0.53880  -0.53285  -0.53171  -0.53057  -0.52869
 Alpha  occ. eigenvalues --   -0.52702  -0.52661  -0.52519  -0.52383  -0.52244
 Alpha  occ. eigenvalues --   -0.52141  -0.52062  -0.51919  -0.51689  -0.51320
 Alpha  occ. eigenvalues --   -0.51207  -0.50856  -0.50498  -0.50492  -0.50017
 Alpha  occ. eigenvalues --   -0.49975  -0.49903  -0.49555  -0.49515  -0.49298
 Alpha  occ. eigenvalues --   -0.49236  -0.49189  -0.48808  -0.48637  -0.48496
 Alpha  occ. eigenvalues --   -0.48442  -0.48377  -0.48371  -0.47954  -0.47820
 Alpha  occ. eigenvalues --   -0.47781  -0.47618  -0.47132  -0.47047  -0.46748
 Alpha  occ. eigenvalues --   -0.46596  -0.46574  -0.46305  -0.46181  -0.46073
 Alpha  occ. eigenvalues --   -0.45947  -0.45732  -0.45646  -0.45471  -0.45227
 Alpha  occ. eigenvalues --   -0.45118  -0.44716  -0.44572  -0.44496  -0.44228
 Alpha  occ. eigenvalues --   -0.44105  -0.43995  -0.43943  -0.43869  -0.43563
 Alpha  occ. eigenvalues --   -0.43536  -0.43420  -0.43359  -0.43304  -0.42971
 Alpha  occ. eigenvalues --   -0.42888  -0.42797  -0.42649  -0.42557  -0.42385
 Alpha  occ. eigenvalues --   -0.42151  -0.41986  -0.41945  -0.41795  -0.41467
 Alpha  occ. eigenvalues --   -0.41407  -0.41057  -0.40955  -0.40829  -0.40736
 Alpha  occ. eigenvalues --   -0.40707  -0.40503  -0.40416  -0.40263  -0.40220
 Alpha  occ. eigenvalues --   -0.40214  -0.39933  -0.39393  -0.39323  -0.39069
 Alpha  occ. eigenvalues --   -0.38340  -0.37904  -0.37650  -0.37263  -0.37231
 Alpha  occ. eigenvalues --   -0.37073  -0.36669  -0.36591  -0.36420  -0.36158
 Alpha  occ. eigenvalues --   -0.35948  -0.35427  -0.34292  -0.33683  -0.33453
 Alpha  occ. eigenvalues --   -0.33182  -0.32818  -0.32338  -0.31303  -0.30999
 Alpha  occ. eigenvalues --   -0.30791  -0.30411  -0.30207  -0.29418  -0.29310
 Alpha  occ. eigenvalues --   -0.29257  -0.28647  -0.28509  -0.24061  -0.23201
 Alpha  occ. eigenvalues --   -0.21161  -0.20299
 Alpha virt. eigenvalues --   -0.08861  -0.07959  -0.01707  -0.00964  -0.00106
 Alpha virt. eigenvalues --    0.00708   0.02001   0.02942   0.03307   0.04611
 Alpha virt. eigenvalues --    0.04728   0.05143   0.05367   0.05944   0.06175

 Mulliken charges:
               1
     1  Mg   0.787952
     2  C    0.005525
     3  C   -0.084946
     4  C   -0.052629
     5  C   -0.065056
     6  N   -0.254328
     7  C   -0.043824
     8  C   -0.015652
     9  C   -0.091836
    10  C    0.064659
    11  C    0.105512
    12  C    0.048375
    13  C   -0.075706
    14  H    0.019933
    15  N   -0.428873
    16  C    0.181856
    17  C   -0.178267
    18  C   -0.007593
    19  C    0.146476
    20  C    0.112420
    21  C    0.008730
    22  O   -0.253204
    23  C    0.063490
    24  N   -0.334450
    25  C    0.042629
    26  C   -0.026709
    27  C   -0.023307
    28  C    0.073208
    29  C    0.076845
    30  C    0.036824
    31  C   -0.011228
    32  N   -0.309770
    33  C    0.080773
    34  C   -0.171630
    35  C    0.007263
    36  C    0.085547
    37  C    0.127581
    38  C    0.047490
    39  O   -0.191061
    40  C   -0.008897
    41  C    0.209127
    42  O   -0.245473
    43  O   -0.306614
    44  C    0.158129
    45  H   -0.021748
    46  H   -0.021417
    47  H   -0.045010
    48  H   -0.003018
    49  H   -0.004892
    50  H    0.024111
    51  H    0.015946
    52  H    0.013860
    53  H    0.025713
    54  H    0.052966
    55  H    0.016115
    56  H    0.019550
    57  H    0.006085
    58  H    0.023768
    59  H    0.038503
    60  H    0.037253
    61  H    0.032815
    62  H    0.030464
    63  H    0.012332
    64  H    0.008649
    65  H    0.021017
    66  H    0.013445
    67  H    0.003659
    68  H    0.004466
    69  H    0.004737
    70  H    0.006019
    71  H    0.016730
    72  H    0.033066
    73  H    0.046379
    74  H    0.007002
    75  H    0.044251
    76  H    0.032690
    77  H    0.040689
    78  H    0.042541
    79  H    0.054931
    80  Mg   0.840769
    81  C   -0.015617
    82  C   -0.087920
    83  C   -0.045308
    84  C   -0.065752
    85  N   -0.254833
    86  C   -0.049986
    87  C   -0.015470
    88  C   -0.090609
    89  C    0.046648
    90  C    0.114527
    91  C    0.062239
    92  C   -0.077723
    93  H    0.035498
    94  N   -0.423514
    95  C    0.163875
    96  C   -0.174350
    97  C   -0.007314
    98  C    0.152608
    99  C    0.099318
   100  C    0.015989
   101  O   -0.252704
   102  C    0.060999
   103  N   -0.350090
   104  C    0.038031
   105  C   -0.020122
   106  C   -0.034749
   107  C    0.088140
   108  C    0.073522
   109  C    0.033358
   110  C   -0.007923
   111  N   -0.324006
   112  C    0.078863
   113  C   -0.171791
   114  C   -0.001023
   115  C    0.100048
   116  C    0.139302
   117  C    0.056458
   118  O   -0.186516
   119  C    0.003367
   120  C    0.210267
   121  O   -0.237540
   122  O   -0.310044
   123  C    0.148176
   124  H   -0.019656
   125  H   -0.015209
   126  H   -0.037696
   127  H   -0.001715
   128  H   -0.004011
   129  H    0.021594
   130  H    0.014393
   131  H    0.016207
   132  H    0.014364
   133  H    0.040961
   134  H    0.019530
   135  H    0.019415
   136  H    0.008937
   137  H    0.026292
   138  H    0.040463
   139  H    0.038183
   140  H    0.036713
   141  H    0.034370
   142  H    0.014668
   143  H    0.013461
   144  H    0.025203
   145  H    0.011336
   146  H    0.006339
   147  H    0.005812
   148  H    0.005777
   149  H    0.010603
   150  H    0.017734
   151  H    0.031032
   152  H    0.059552
   153  H    0.013608
   154  H    0.050571
   155  H    0.032986
   156  H    0.039767
   157  H    0.046258
   158  H    0.062097
 Sum of Mulliken charges =  -0.00000

 Dipole moment (field-independent basis, Debye):
    X=             -2.6482    Y=              2.9196    Z=              5.6207  Tot=              6.8650
 Quadrupole moment (field-independent basis, Debye-Ang):
   XX=           -483.6843   YY=           -473.8929   ZZ=           -519.5801
   XY=            -25.8439   XZ=              7.7398   YZ=             36.5535

 Normal termination of Gaussian 16 at Thu Sep  9 21:59:19 2021.
