 Gaussian 16, Revision A.03,
 Gaussian 16:  ES64L-G16RevA.03 25-Dec-2016

 -----------------------------------
 #p cam-b3lyp/Def2SVP td=(nstates=5)
 -----------------------------------

 --------------------------------
 TDDFT excited states in gaussian
 --------------------------------
 Symbolic Z-matrix:
 Charge =  0 Multiplicity = 1

                         Standard orientation:
 ---------------------------------------------------------------------
 Center     Atomic      Atomic             Coordinates (Angstroms)
 Number     Number       Type             X           Y           Z
 ---------------------------------------------------------------------
      1         12           0       -5.087431   -0.671130   -0.198983
      2          6           0       -5.505577    2.849356   -0.692485
      3          6           0       -5.977803   -1.084213   -3.466958
      4          6           0       -5.167080   -3.796755    0.330871
      5          6           0       -5.344754   -0.072277    3.224586
      6          7           0       -5.646017    0.776384   -1.778011
      7          6           0       -5.709449    2.102008   -1.854617
      8          6           0       -5.938632    2.626865   -3.303539
      9          6           0       -6.623258    1.332691   -3.934727
     10          6           0       -6.020168    0.272980   -3.029620
     11          6           0       -8.140188    1.307754   -3.777230
     12          6           0       -4.595559    2.975890   -4.028843
     13          6           0       -4.741032    3.795077   -5.314582
     14          1           0       -3.726235    4.789001   -5.630255
     15          7           0       -5.031898   -2.186974   -1.464678
     16          6           0       -5.417946   -2.172371   -2.763153
     17          6           0       -5.182609   -3.540072   -3.273735
     18          6           0       -4.806955   -4.399321   -2.116726
     19          6           0       -5.015127   -3.489656   -1.019205
     20          6           0       -5.272555   -3.903749   -4.724044
     21          6           0       -4.345274   -5.818724   -2.015337
     22          8           0       -4.295868   -6.439795   -0.898913
     23          6           0       -4.032447   -6.500033   -3.284588
     24          7           0       -5.453549   -1.812870    1.509824
     25          6           0       -5.369083   -3.147379    1.479240
     26          6           0       -5.390078   -3.727653    2.862274
     27          6           0       -5.261644   -2.489959    3.862960
     28          6           0       -5.271946   -1.343094    2.822352
     29          6           0       -6.634771   -4.549632    3.224348
     30          6           0       -4.108281   -2.537924    4.896339
     31          6           0       -2.777657   -2.431258    4.185593
     32          7           0       -5.196478    1.078022    1.081494
     33          6           0       -5.321998    1.093998    2.478156
     34          6           0       -5.465540    2.504553    2.882878
     35          6           0       -5.429952    3.214492    1.684310
     36          6           0       -5.300426    2.303082    0.597642
     37          6           0       -5.663648    2.974391    4.211200
     38          6           0       -5.495972    4.529226    1.067078
     39          8           0       -5.510418    5.686074    1.490145
     40          6           0       -5.670076    4.336968   -0.504084
     41          6           0       -4.683136    5.245398   -1.185269
     42          8           0       -3.455363    5.044758   -1.086861
     43          8           0       -5.336200    6.056647   -2.031392
     44          6           0       -4.411529    6.964147   -2.761859
     45          1           0       -6.468473   -1.352138   -4.404722
     46          1           0       -5.088950   -4.859841    0.567898
     47          1           0       -5.344729    0.197572    4.282241
     48          1           0       -6.614784    3.478858   -3.376675
     49          1           0       -6.313109    1.170658   -4.966848
     50          1           0       -8.488262    2.122451   -3.142382
     51          1           0       -8.369621    0.344705   -3.320732
     52          1           0       -8.630684    1.302233   -4.750965
     53          1           0       -4.160555    2.064077   -4.438025
     54          1           0       -3.912484    3.488118   -3.350347
     55          1           0       -5.738540    4.226753   -5.401428
     56          1           0       -4.665293    3.115122   -6.163185
     57          1           0       -5.728394   -3.106187   -5.309407
     58          1           0       -5.975321   -4.733119   -4.801340
     59          1           0       -4.306847   -4.200837   -5.133287
     60          1           0       -4.917881   -6.500310   -3.920635
     61          1           0       -3.633672   -7.476369   -3.011463
     62          1           0       -3.273375   -5.925331   -3.816072
     63          1           0       -4.547792   -4.400792    3.016753
     64          1           0       -6.157690   -2.360426    4.470411
     65          1           0       -6.409892   -5.568528    3.540551
     66          1           0       -7.303234   -4.545748    2.363863
     67          1           0       -7.267794   -4.106236    3.992528
     68          1           0       -4.113412   -3.489762    5.426362
     69          1           0       -4.164045   -1.743526    5.640699
     70          1           0       -2.583068   -3.458026    3.877837
     71          1           0       -2.007474   -2.076601    4.871340
     72          1           0       -2.857074   -1.829207    3.280213
     73          1           0       -5.014147    3.841848    4.327970
     74          1           0       -5.428785    2.202249    4.943483
     75          1           0       -6.726368    3.214687    4.184003
     76          1           0       -6.700377    4.601455   -0.739986
     77          1           0       -4.750759    7.983673   -2.578217
     78          1           0       -4.388458    6.616928   -3.794966
     79          1           0       -3.389522    7.016269   -2.384867
     80         12           0        5.467201   -0.047179   -0.322695
     81          6           0        4.330843    0.430526    3.047696
     82          6           0        5.211270   -3.404087    0.225256
     83          6           0        6.888483   -0.511810   -3.121179
     84          6           0        6.701985    3.210219   -0.220735
     85          7           0        4.839775   -1.213652    1.448720
     86          6           0        4.370395   -0.922931    2.652675
     87          6           0        3.842797   -2.145895    3.449899
     88          6           0        4.691100   -3.295283    2.716308
     89          6           0        4.902093   -2.617836    1.363817
     90          6           0        6.052295   -3.534731    3.348083
     91          6           0        2.300093   -2.361770    3.261611
     92          6           0        1.662972   -3.343172    4.247864
     93          1           0        0.304088   -3.079075    4.712789
     94          7           0        5.524040   -1.656409   -1.482744
     95          6           0        5.378357   -2.941933   -1.098687
     96          6           0        5.522321   -3.746110   -2.322102
     97          6           0        5.928620   -2.842321   -3.432414
     98          6           0        6.154629   -1.611675   -2.701288
     99          6           0        5.203654   -5.212105   -2.374427
    100          6           0        6.099448   -3.054265   -4.906217
    101          8           0        6.689996   -2.190683   -5.646693
    102          6           0        5.638305   -4.343830   -5.440883
    103          7           0        6.810991    1.090936   -1.427805
    104          6           0        7.231625    0.682289   -2.637760
    105          6           0        7.970585    1.784069   -3.359165
    106          6           0        7.748035    3.099541   -2.477360
    107          6           0        6.959049    2.484813   -1.300494
    108          6           0        9.468072    1.556845   -3.564775
    109          6           0        7.151862    4.338593   -3.199865
    110          6           0        5.722127    4.061270   -3.605268
    111          7           0        5.363383    1.613105    1.055971
    112          6           0        5.974062    2.878497    0.914822
    113          6           0        5.712867    3.629301    2.160012
    114          6           0        4.982210    2.733146    2.954701
    115          6           0        4.818185    1.503051    2.262255
    116          6           0        6.175156    4.943640    2.451445
    117          6           0        4.321517    2.544342    4.226131
    118          8           0        4.060263    3.269073    5.185427
    119          6           0        3.979188    1.001232    4.393517
    120          6           0        2.550465    0.889298    4.850405
    121          8           0        1.619526    1.248184    4.108011
    122          8           0        2.507506    0.180052    5.992984
    123          6           0        1.110038    0.032394    6.479907
    124          1           0        5.384254   -4.471732    0.363449
    125          1           0        7.306576   -0.580483   -4.128141
    126          1           0        6.969332    4.266716   -0.149992
    127          1           0        4.073286   -2.131883    4.508413
    128          1           0        4.106788   -4.204394    2.600365
    129          1           0        6.273387   -2.808470    4.116084
    130          1           0        6.768596   -3.461110    2.540281
    131          1           0        6.120501   -4.561531    3.718714
    132          1           0        2.126082   -2.900700    2.321392
    133          1           0        1.777504   -1.425596    3.294908
    134          1           0        2.323347   -3.562670    5.095603
    135          1           0        1.539620   -4.306827    3.747692
    136          1           0        5.088926   -5.634952   -1.368721
    137          1           0        6.086175   -5.716805   -2.782222
    138          1           0        4.344185   -5.433873   -3.010651
    139          1           0        6.164697   -5.152009   -4.938660
    140          1           0        5.761958   -4.272454   -6.523241
    141          1           0        4.575991   -4.462647   -5.200083
    142          1           0        7.554127    1.947582   -4.345531
    143          1           0        8.693795    3.474889   -2.059656
    144          1           0        9.774718    1.602675   -4.626824
    145          1           0        9.730349    0.599572   -3.134219
    146          1           0       10.117836    2.240519   -3.021081
    147          1           0        7.702344    4.540495   -4.122013
    148          1           0        7.182300    5.243347   -2.601966
    149          1           0        5.833962    3.518968   -4.548923
    150          1           0        5.176777    4.992124   -3.747200
    151          1           0        5.234946    3.385715   -2.892580
    152          1           0        5.345857    5.472616    2.901940
    153          1           0        6.529766    5.448228    1.555112
    154          1           0        6.990151    4.714803    3.143314
    155          1           0        4.676105    0.588420    5.123916
    156          1           0        1.086795    0.414874    7.505022
    157          1           0        0.853993   -1.033885    6.334194
    158          1           0        0.348153    0.642630    6.009168
 ---------------------------------------------------------------------

 SCF Done:  E(RCAM-B3LYP) =  -4069.81117745     A.U. after   19 cycles

 Excitation energies and oscillator strengths:

 Excited State   1:      Singlet-A      1.6560 eV  748.70 nm  f=0.0056  <S**2>=0.000
     309 -> 315       -0.11314
     310 -> 316        0.12474
     311 -> 313       -0.46073
     312 -> 314        0.50976
 This state for optimization and/or second-order correction.
 Total Energy, E(TD-HF/TD-DFT) =  -4069.75032121
 Copying the excited state density for this state as the 1-particle RhoCI density.

 Excited State   2:      Singlet-A      1.6967 eV  730.75 nm  f=0.7147  <S**2>=0.000
     309 -> 315        0.13279
     310 -> 316        0.11959
     311 -> 313        0.50779
     312 -> 314        0.45910

 Excited State   3:      Singlet-A      2.1825 eV  568.08 nm  f=0.0330  <S**2>=0.000
     309 -> 313        0.30648
     310 -> 314        0.56619
     311 -> 315       -0.12810
     312 -> 316       -0.23764

 Excited State   4:      Singlet-A      2.1927 eV  565.45 nm  f=0.1532  <S**2>=0.000
     309 -> 313        0.56275
     310 -> 314       -0.30389
     311 -> 315       -0.24586
     312 -> 316        0.13287

 Excited State   5:      Singlet-A      2.5712 eV  482.21 nm  f=0.0000  <S**2>=0.000
     312 -> 313        0.70689

 The electronic state is 1-A.
 Alpha  occ. eigenvalues --  -46.87664 -46.87507 -19.26239 -19.26073 -19.18991
 Alpha  occ. eigenvalues --  -19.18783 -19.18777 -19.18618 -19.17987 -19.17884
 Alpha  occ. eigenvalues --  -14.42347 -14.42321 -14.41343 -14.41212 -14.39283
 Alpha  occ. eigenvalues --  -14.39206 -14.38439 -14.38434 -10.38928 -10.38854
 Alpha  occ. eigenvalues --  -10.35416 -10.35300 -10.34205 -10.34062 -10.31727
 Alpha  occ. eigenvalues --  -10.31479 -10.31256 -10.31147 -10.30882 -10.30790
 Alpha  occ. eigenvalues --  -10.30422 -10.30381 -10.30248 -10.30200 -10.30137
 Alpha  occ. eigenvalues --  -10.30010 -10.29812 -10.29745 -10.29502 -10.29298
 Alpha  occ. eigenvalues --  -10.29252 -10.29144 -10.28611 -10.28565 -10.28469
 Alpha  occ. eigenvalues --  -10.28389 -10.28255 -10.28228 -10.27988 -10.27983
 Alpha  occ. eigenvalues --  -10.27849 -10.27654 -10.27602 -10.27519 -10.27503
 Alpha  occ. eigenvalues --  -10.27471 -10.27435 -10.27405 -10.27393 -10.27350
 Alpha  occ. eigenvalues --  -10.27336 -10.27326 -10.27269 -10.27256 -10.26982
 Alpha  occ. eigenvalues --  -10.26900 -10.26547 -10.26516 -10.26430 -10.26366
 Alpha  occ. eigenvalues --  -10.26268 -10.26115 -10.26007 -10.25914 -10.25893
 Alpha  occ. eigenvalues --  -10.25786 -10.25669 -10.25651 -10.25427 -10.25298
 Alpha  occ. eigenvalues --  -10.24827 -10.24716 -10.24685 -10.24679 -10.24582
 Alpha  occ. eigenvalues --  -10.24548  -3.16405  -3.16257  -1.91286  -1.91139
 Alpha  occ. eigenvalues --   -1.90874  -1.90728  -1.90716  -1.90564  -1.16520
 Alpha  occ. eigenvalues --   -1.16419  -1.08489  -1.08435  -1.07186  -1.06875
 Alpha  occ. eigenvalues --   -1.06784  -1.06411  -1.04451  -1.04345  -1.03651
 Alpha  occ. eigenvalues --   -1.03516  -1.03107  -1.02891  -1.02286  -1.01961
 Alpha  occ. eigenvalues --   -0.91835  -0.91826  -0.89473  -0.89354  -0.89053
 Alpha  occ. eigenvalues --   -0.88997  -0.88240  -0.88087  -0.87711  -0.87630
 Alpha  occ. eigenvalues --   -0.87552  -0.87533  -0.87188  -0.87000  -0.84859
 Alpha  occ. eigenvalues --   -0.84849  -0.83914  -0.83746  -0.82934  -0.82831
 Alpha  occ. eigenvalues --   -0.82541  -0.82521  -0.81473  -0.81432  -0.80471
 Alpha  occ. eigenvalues --   -0.80314  -0.78688  -0.78498  -0.77133  -0.76999
 Alpha  occ. eigenvalues --   -0.76816  -0.76765  -0.75786  -0.75707  -0.74835
 Alpha  occ. eigenvalues --   -0.74679  -0.72654  -0.72549  -0.71562  -0.71444
 Alpha  occ. eigenvalues --   -0.69917  -0.69623  -0.68756  -0.68683  -0.67527
 Alpha  occ. eigenvalues --   -0.67462  -0.67100  -0.67055  -0.65156  -0.65123
 Alpha  occ. eigenvalues --   -0.64735  -0.64630  -0.64523  -0.64510  -0.64202
 Alpha  occ. eigenvalues --   -0.64069  -0.62157  -0.62142  -0.60363  -0.60213
 Alpha  occ. eigenvalues --   -0.59670  -0.59644  -0.58872  -0.58848  -0.58385
 Alpha  occ. eigenvalues --   -0.58283  -0.57419  -0.57404  -0.57209  -0.57102
 Alpha  occ. eigenvalues --   -0.56189  -0.56063  -0.55813  -0.55771  -0.55428
 Alpha  occ. eigenvalues --   -0.55336  -0.55268  -0.55115  -0.54422  -0.54357
 Alpha  occ. eigenvalues --   -0.53761  -0.53759  -0.53216  -0.53110  -0.53100
 Alpha  occ. eigenvalues --   -0.53008  -0.52801  -0.52760  -0.52683  -0.52559
 Alpha  occ. eigenvalues --   -0.52435  -0.52264  -0.51740  -0.51713  -0.51521
 Alpha  occ. eigenvalues --   -0.51490  -0.51080  -0.51055  -0.50533  -0.50373
 Alpha  occ. eigenvalues --   -0.50033  -0.49844  -0.49840  -0.49741  -0.49409
 Alpha  occ. eigenvalues --   -0.49360  -0.49085  -0.49062  -0.48967  -0.48955
 Alpha  occ. eigenvalues --   -0.48463  -0.48418  -0.48395  -0.48336  -0.48249
 Alpha  occ. eigenvalues --   -0.48224  -0.47601  -0.47466  -0.47198  -0.46995
 Alpha  occ. eigenvalues --   -0.46706  -0.46564  -0.46432  -0.46406  -0.46257
 Alpha  occ. eigenvalues --   -0.46132  -0.46034  -0.45946  -0.45690  -0.45653
 Alpha  occ. eigenvalues --   -0.45171  -0.45075  -0.44457  -0.44433  -0.44372
 Alpha  occ. eigenvalues --   -0.44327  -0.44089  -0.43987  -0.43975  -0.43945
 Alpha  occ. eigenvalues --   -0.43882  -0.43816  -0.43433  -0.43351  -0.43285
 Alpha  occ. eigenvalues --   -0.43246  -0.42915  -0.42808  -0.42757  -0.42673
 Alpha  occ. eigenvalues --   -0.42492  -0.42418  -0.41945  -0.41812  -0.41580
 Alpha  occ. eigenvalues --   -0.41520  -0.41414  -0.41311  -0.41032  -0.40849
 Alpha  occ. eigenvalues --   -0.40790  -0.40775  -0.40610  -0.40575  -0.40504
 Alpha  occ. eigenvalues --   -0.40360  -0.40103  -0.40075  -0.39485  -0.39284
 Alpha  occ. eigenvalues --   -0.38421  -0.38202  -0.37623  -0.37463  -0.37241
 Alpha  occ. eigenvalues --   -0.37124  -0.37118  -0.37029  -0.36637  -0.36539
 Alpha  occ. eigenvalues --   -0.36082  -0.36039  -0.34154  -0.34100  -0.33692
 Alpha  occ. eigenvalues --   -0.33554  -0.33052  -0.33025  -0.31308  -0.31177
 Alpha  occ. eigenvalues --   -0.30916  -0.30828  -0.29842  -0.29788  -0.29337
 Alpha  occ. eigenvalues --   -0.29189  -0.29161  -0.29051  -0.23953  -0.23886
 Alpha  occ. eigenvalues --   -0.21005  -0.20968
 Alpha virt. eigenvalues --   -0.08651  -0.08645  -0.01643  -0.01542   0.00040
 Alpha virt. eigenvalues --    0.00100   0.02346   0.02364   0.03239   0.03483
 Alpha virt. eigenvalues --    0.04736   0.04858   0.05311   0.05321   0.05823

 Mulliken charges:
               1
     1  Mg   0.840584
     2  C   -0.002291
     3  C   -0.094040
     4  C   -0.046489
     5  C   -0.063510
     6  N   -0.256609
     7  C   -0.052117
     8  C   -0.014106
     9  C   -0.086963
    10  C    0.046150
    11  C    0.104906
    12  C    0.053473
    13  C   -0.071714
    14  H    0.036340
    15  N   -0.432853
    16  C    0.168027
    17  C   -0.177536
    18  C   -0.004759
    19  C    0.148505
    20  C    0.110277
    21  C    0.011366
    22  O   -0.251057
    23  C    0.062848
    24  N   -0.341009
    25  C    0.040984
    26  C   -0.028069
    27  C   -0.023925
    28  C    0.074606
    29  C    0.076302
    30  C    0.036559
    31  C   -0.012015
    32  N   -0.311175
    33  C    0.082459
    34  C   -0.167133
    35  C    0.009099
    36  C    0.084824
    37  C    0.126969
    38  C    0.047738
    39  O   -0.187311
    40  C   -0.006022
    41  C    0.212734
    42  O   -0.255030
    43  O   -0.305252
    44  C    0.157626
    45  H   -0.017983
    46  H   -0.018023
    47  H   -0.041966
    48  H    0.000927
    49  H   -0.004194
    50  H    0.025389
    51  H    0.016183
    52  H    0.016350
    53  H    0.011224
    54  H    0.045038
    55  H    0.017596
    56  H    0.017700
    57  H    0.005929
    58  H    0.026246
    59  H    0.038676
    60  H    0.037663
    61  H    0.034185
    62  H    0.030731
    63  H    0.015420
    64  H    0.009474
    65  H    0.022381
    66  H    0.012872
    67  H    0.004614
    68  H    0.005294
    69  H    0.003495
    70  H    0.010027
    71  H    0.018864
    72  H    0.034621
    73  H    0.050190
    74  H    0.008501
    75  H    0.045452
    76  H    0.034774
    77  H    0.042676
    78  H    0.045914
    79  H    0.054399
    80  Mg   0.838626
    81  C   -0.016423
    82  C   -0.087528
    83  C   -0.045780
    84  C   -0.064810
    85  N   -0.254526
    86  C   -0.049449
    87  C   -0.015244
    88  C   -0.090515
    89  C    0.045624
    90  C    0.114439
    91  C    0.063428
    92  C   -0.084635
    93  H    0.039317
    94  N   -0.423326
    95  C    0.162633
    96  C   -0.174971
    97  C   -0.008346
    98  C    0.152037
    99  C    0.099528
   100  C    0.015079
   101  O   -0.253762
   102  C    0.061496
   103  N   -0.350112
   104  C    0.037449
   105  C   -0.019650
   106  C   -0.034895
   107  C    0.089176
   108  C    0.073828
   109  C    0.034771
   110  C   -0.007634
   111  N   -0.324437
   112  C    0.079245
   113  C   -0.162026
   114  C    0.002621
   115  C    0.097259
   116  C    0.131190
   117  C    0.043639
   118  O   -0.187326
   119  C    0.000352
   120  C    0.211094
   121  O   -0.248641
   122  O   -0.305911
   123  C    0.151134
   124  H   -0.019871
   125  H   -0.016123
   126  H   -0.040327
   127  H   -0.001169
   128  H   -0.003904
   129  H    0.022172
   130  H    0.014215
   131  H    0.016017
   132  H    0.014609
   133  H    0.037582
   134  H    0.019604
   135  H    0.020195
   136  H    0.009102
   137  H    0.025630
   138  H    0.039067
   139  H    0.038311
   140  H    0.035543
   141  H    0.033126
   142  H    0.014020
   143  H    0.012179
   144  H    0.024644
   145  H    0.011496
   146  H    0.005445
   147  H    0.005655
   148  H    0.003865
   149  H    0.010123
   150  H    0.018335
   151  H    0.031126
   152  H    0.047399
   153  H    0.008589
   154  H    0.046449
   155  H    0.034586
   156  H    0.043494
   157  H    0.048476
   158  H    0.054286
 Sum of Mulliken charges =  -0.00000

 Dipole moment (field-independent basis, Debye):
    X=             -0.9481    Y=             -5.8112    Z=             -3.7272  Tot=              6.9685
 Quadrupole moment (field-independent basis, Debye-Ang):
   XX=           -483.6658   YY=           -514.8408   ZZ=           -487.2266
   XY=              5.0324   XZ=             22.0882   YZ=            -35.5877

 Normal termination of Gaussian 16 at Fri Sep 10 15:01:30 2021.
