 Gaussian 16, Revision A.03,
 Gaussian 16:  ES64L-G16RevA.03 25-Dec-2016

 -----------------------------------
 #p cam-b3lyp/Def2SVP td=(nstates=5)
 -----------------------------------

 --------------------------------
 TDDFT excited states in gaussian
 --------------------------------
 Symbolic Z-matrix:
 Charge =  0 Multiplicity = 1

                         Standard orientation:
 ---------------------------------------------------------------------
 Center     Atomic      Atomic             Coordinates (Angstroms)
 Number     Number       Type             X           Y           Z
 ---------------------------------------------------------------------
      1         12           0       -7.842277   -0.773942    0.088504
      2          6           0       -8.042615    2.793498    0.301683
      3          6           0       -8.720533   -0.478233   -3.195441
      4          6           0       -8.115453   -3.931827   -0.010283
      5          6           0       -8.100084   -0.848526    3.563217
      6          7           0       -8.295723    0.988302   -1.172261
      7          6           0       -8.278496    2.304291   -0.985050
      8          6           0       -8.460041    3.117994   -2.301220
      9          6           0       -9.214395    2.018270   -3.175036
     10          6           0       -8.685930    0.765842   -2.498224
     11          6           0      -10.731691    2.055419   -3.023596
     12          6           0       -7.090656    3.520703   -2.944912
     13          6           0       -7.172712    4.585032   -4.043012
     14          1           0       -6.096634    5.557849   -4.157170
     15          7           0       -7.864331   -2.010431   -1.452100
     16          6           0       -8.234757   -1.716092   -2.721524
     17          6           0       -8.076589   -2.967768   -3.492867
     18          6           0       -7.765801   -4.059928   -2.529180
     19          6           0       -7.930736   -3.373981   -1.273134
     20          6           0       -8.172572   -3.031633   -4.986339
     21          6           0       -7.391430   -5.496890   -2.711169
     22          8           0       -7.391521   -6.328074   -1.739723
     23          6           0       -7.106449   -5.931888   -4.090518
     24          7           0       -8.294822   -2.206172    1.538179
     25          6           0       -8.290433   -3.510966    1.244111
     26          6           0       -8.361218   -4.350594    2.485060
     27          6           0       -8.169405   -3.345139    3.710630
     28          6           0       -8.099485   -2.016885    2.917458
     29          6           0       -9.656925   -5.150303    2.679017
     30          6           0       -7.032241   -3.666627    4.712590
     31          6           0       -5.690013   -3.503157    4.035244
     32          7           0       -7.859768    0.691162    1.689818
     33          6           0       -7.999177    0.438595    3.062206
     34          6           0       -8.062001    1.747502    3.738138
     35          6           0       -7.970844    2.676667    2.703640
     36          6           0       -7.884630    1.991673    1.457990
     37          6           0       -8.245832    1.956922    5.133409
     38          6           0       -7.951016    4.088942    2.358756
     39          8           0       -7.900439    5.138115    3.002317
     40          6           0       -8.119388    4.221805    0.780838
     41          6           0       -7.072308    5.184870    0.291515
     42          8           0       -5.859957    4.894134    0.346681
     43          8           0       -7.666231    6.185606   -0.376561
     44          6           0       -6.680828    7.161299   -0.914294
     45          1           0       -9.216270   -0.525174   -4.167028
     46          1           0       -8.103955   -5.023534    0.011670
     47          1           0       -8.095254   -0.793414    4.653351
     48          1           0       -9.082908    4.007326   -2.203493
     49          1           0       -8.903421    2.044655   -4.219221
     50          1           0      -11.036981    2.748382   -2.239682
     51          1           0      -11.023537    1.037025   -2.766316
     52          1           0      -11.211087    2.272308   -3.978539
     53          1           0       -6.706876    2.682840   -3.526943
     54          1           0       -6.385383    3.846126   -2.179396
     55          1           0       -8.141461    5.085464   -4.041446
     56          1           0       -7.128837    4.082757   -5.009446
     57          1           0       -8.573278   -2.107839   -5.401773
     58          1           0       -8.923063   -3.784890   -5.225242
     59          1           0       -7.222114   -3.300456   -5.447527
     60          1           0       -7.983376   -5.752445   -4.712891
     61          1           0       -6.770078   -6.965434   -4.016440
     62          1           0       -6.308497   -5.310989   -4.498814
     63          1           0       -7.562652   -5.091150    2.502230
     64          1           0       -9.062548   -3.283656    4.332875
     65          1           0       -9.497150   -6.223377    2.787131
     66          1           0      -10.314612   -4.935711    1.837180
     67          1           0      -10.270398   -4.829550    3.520554
     68          1           0       -7.100324   -4.702275    5.043865
     69          1           0       -7.048170   -3.033010    5.599453
     70          1           0       -5.554206   -4.458840    3.530210
     71          1           0       -4.907348   -3.338653    4.776584
     72          1           0       -5.723301   -2.730434    3.266949
     73          1           0       -7.546642    2.742901    5.418611
     74          1           0       -8.065747    1.042478    5.698179
     75          1           0       -9.291824    2.262310    5.155676
     76          1           0       -9.129312    4.590104    0.603266
     77          1           0       -6.960101    8.143246   -0.532166
     78          1           0       -6.667522    7.024230   -1.995701
     79          1           0       -5.661667    7.075408   -0.535781
     80         12           0        8.040456   -0.779516    0.066105
     81          6           0        7.679866    2.785539    0.264652
     82          6           0        7.308739   -0.518753   -3.255214
     83          6           0        7.906907   -3.947440   -0.051585
     84          6           0        7.612442   -0.876062    3.523447
     85          7           0        7.573842    0.962952   -1.213859
     86          6           0        7.526310    2.275328   -1.041307
     87          6           0        7.381607    3.091759   -2.353585
     88          6           0        6.709932    1.956915   -3.270007
     89          6           0        7.255313    0.717601   -2.563358
     90          6           0        5.193229    1.929775   -3.179345
     91          6           0        8.767917    3.548837   -2.929118
     92          6           0        8.689086    4.606286   -4.032458
     93          1           0        9.734588    5.623723   -4.097394
     94          7           0        8.147951   -2.012699   -1.485103
     95          6           0        7.834128   -1.735731   -2.768099
     96          6           0        8.065119   -2.980935   -3.516611
     97          6           0        8.383154   -4.061052   -2.543514
     98          6           0        8.132439   -3.371961   -1.293553
     99          6           0        8.052925   -3.042972   -5.016412
    100          6           0        8.825750   -5.483165   -2.710580
    101          8           0        8.813815   -6.311405   -1.732472
    102          6           0        9.184780   -5.902240   -4.073279
    103          7           0        7.585379   -2.225385    1.489035
    104          6           0        7.652934   -3.534641    1.190362
    105          6           0        7.553787   -4.383909    2.435074
    106          6           0        7.648889   -3.361720    3.661314
    107          6           0        7.699104   -2.031318    2.878431
    108          6           0        6.282610   -5.222093    2.568979
    109          6           0        8.748885   -3.636583    4.722979
    110          6           0       10.117021   -3.429001    4.114280
    111          7           0        7.890467    0.675721    1.656025
    112          6           0        7.687658    0.420155    3.029934
    113          6           0        7.538490    1.728880    3.698839
    114          6           0        7.642708    2.661609    2.655934
    115          6           0        7.822515    1.981374    1.421259
    116          6           0        7.288985    1.930686    5.085612
    117          6           0        7.630858    4.066572    2.317349
    118          8           0        7.599839    5.114907    2.960594
    119          6           0        7.527821    4.204741    0.737263
    120          6           0        8.557453    5.206111    0.290448
    121          8           0        9.770773    4.964713    0.417657
    122          8           0        7.948908    6.182275   -0.407514
    123          6           0        8.930517    7.193956   -0.881598
    124          1           0        6.868842   -0.575327   -4.251299
    125          1           0        7.961656   -5.038079   -0.020330
    126          1           0        7.573925   -0.817424    4.613289
    127          1           0        6.724826    3.950587   -2.284174
    128          1           0        7.077153    2.005789   -4.291834
    129          1           0        4.822871    2.602957   -2.420533
    130          1           0        4.931143    0.907732   -2.938977
    131          1           0        4.753298    2.130976   -4.160324
    132          1           0        9.211669    2.719607   -3.494978
    133          1           0        9.411636    3.893692   -2.143414
    134          1           0        7.696991    5.070597   -4.088260
    135          1           0        8.807154    4.109357   -4.998446
    136          1           0        7.627780   -2.130946   -5.453298
    137          1           0        7.348379   -3.833011   -5.298054
    138          1           0        9.033391   -3.277673   -5.436259
    139          1           0        8.333454   -5.752869   -4.733133
    140          1           0        9.560021   -6.922818   -3.975841
    141          1           0        9.985514   -5.250469   -4.440208
    142          1           0        8.380239   -5.081462    2.494135
    143          1           0        6.720274   -3.344734    4.250563
    144          1           0        6.483325   -6.303915    2.684989
    145          1           0        5.661663   -5.041426    1.701613
    146          1           0        5.624732   -4.935732    3.387762
    147          1           0        8.708950   -4.678961    5.048557
    148          1           0        8.657300   -3.018459    5.609840
    149          1           0       10.311196   -4.381881    3.612878
    150          1           0       10.855352   -3.233110    4.889214
    151          1           0       10.090712   -2.650185    3.343304
    152          1           0        7.933645    2.739305    5.403487
    153          1           0        7.474235    1.024689    5.658874
    154          1           0        6.226917    2.188496    5.057203
    155          1           0        6.513100    4.528260    0.502181
    156          1           0        8.589289    8.166791   -0.514385
    157          1           0        8.989472    7.061975   -1.978338
    158          1           0        9.932072    7.151919   -0.469821
 ---------------------------------------------------------------------

 SCF Done:  E(RCAM-B3LYP) =  -4069.81166471     A.U. after   19 cycles

 Excitation energies and oscillator strengths:

 Excited State   1:      Singlet-A      1.6698 eV  742.52 nm  f=0.0159  <S**2>=0.000
     309 -> 315       -0.10443
     310 -> 316        0.13720
     311 -> 313       -0.41420
     312 -> 314        0.54729
 This state for optimization and/or second-order correction.
 Total Energy, E(TD-HF/TD-DFT) =  -4069.75030127
 Copying the excited state density for this state as the 1-particle RhoCI density.

 Excited State   2:      Singlet-A      1.6853 eV  735.67 nm  f=0.7408  <S**2>=0.000
     309 -> 315        0.14111
     310 -> 316        0.10620
     311 -> 313        0.54646
     312 -> 314        0.41367

 Excited State   3:      Singlet-A      2.1854 eV  567.34 nm  f=0.0565  <S**2>=0.000
     309 -> 313       -0.14287
     310 -> 314        0.62667
     312 -> 316       -0.26583

 Excited State   4:      Singlet-A      2.1929 eV  565.40 nm  f=0.1366  <S**2>=0.000
     309 -> 313        0.62467
     310 -> 314        0.14177
     311 -> 315       -0.27162

 Excited State   5:      Singlet-A      2.7663 eV  448.19 nm  f=0.0000  <S**2>=0.000
     312 -> 313        0.70710

 The electronic state is 1-A.
 Alpha  occ. eigenvalues --  -46.87828 -46.87587 -19.26304 -19.26270 -19.19084
 Alpha  occ. eigenvalues --  -19.19040 -19.18849 -19.18656 -19.18189 -19.17964
 Alpha  occ. eigenvalues --  -14.42482 -14.42424 -14.41479 -14.41286 -14.39434
 Alpha  occ. eigenvalues --  -14.39280 -14.38616 -14.38523 -10.39100 -10.39012
 Alpha  occ. eigenvalues --  -10.35483 -10.35335 -10.34409 -10.34140 -10.31697
 Alpha  occ. eigenvalues --  -10.31683 -10.31435 -10.31232 -10.30953 -10.30943
 Alpha  occ. eigenvalues --  -10.30599 -10.30536 -10.30322 -10.30284 -10.30238
 Alpha  occ. eigenvalues --  -10.30073 -10.29947 -10.29818 -10.29660 -10.29366
 Alpha  occ. eigenvalues --  -10.29328 -10.29286 -10.28788 -10.28648 -10.28603
 Alpha  occ. eigenvalues --  -10.28593 -10.28395 -10.28330 -10.28153 -10.28068
 Alpha  occ. eigenvalues --  -10.27925 -10.27821 -10.27759 -10.27616 -10.27598
 Alpha  occ. eigenvalues --  -10.27527 -10.27525 -10.27475 -10.27450 -10.27434
 Alpha  occ. eigenvalues --  -10.27419 -10.27408 -10.27396 -10.27307 -10.27181
 Alpha  occ. eigenvalues --  -10.26962 -10.26754 -10.26632 -10.26453 -10.26372
 Alpha  occ. eigenvalues --  -10.26267 -10.26209 -10.26077 -10.26048 -10.25940
 Alpha  occ. eigenvalues --  -10.25861 -10.25857 -10.25756 -10.25458 -10.25326
 Alpha  occ. eigenvalues --  -10.24859 -10.24817 -10.24794 -10.24715 -10.24674
 Alpha  occ. eigenvalues --  -10.24617  -3.16571  -3.16337  -1.91452  -1.91219
 Alpha  occ. eigenvalues --   -1.91039  -1.90881  -1.90807  -1.90644  -1.16652
 Alpha  occ. eigenvalues --   -1.16565  -1.08645  -1.08569  -1.07250  -1.06909
 Alpha  occ. eigenvalues --   -1.06867  -1.06662  -1.04613  -1.04421  -1.03791
 Alpha  occ. eigenvalues --   -1.03590  -1.03264  -1.02965  -1.02441  -1.02037
 Alpha  occ. eigenvalues --   -0.92000  -0.91909  -0.89547  -0.89424  -0.89225
 Alpha  occ. eigenvalues --   -0.89079  -0.88314  -0.88151  -0.87894  -0.87712
 Alpha  occ. eigenvalues --   -0.87706  -0.87612  -0.87309  -0.87059  -0.85019
 Alpha  occ. eigenvalues --   -0.84930  -0.83963  -0.83807  -0.83002  -0.82874
 Alpha  occ. eigenvalues --   -0.82682  -0.82585  -0.81611  -0.81521  -0.80626
 Alpha  occ. eigenvalues --   -0.80370  -0.78829  -0.78567  -0.77250  -0.77075
 Alpha  occ. eigenvalues --   -0.76966  -0.76827  -0.75953  -0.75764  -0.74925
 Alpha  occ. eigenvalues --   -0.74732  -0.72803  -0.72624  -0.71701  -0.71506
 Alpha  occ. eigenvalues --   -0.69934  -0.69692  -0.68908  -0.68758  -0.67671
 Alpha  occ. eigenvalues --   -0.67530  -0.67260  -0.67138  -0.65321  -0.65200
 Alpha  occ. eigenvalues --   -0.64882  -0.64697  -0.64651  -0.64582  -0.64297
 Alpha  occ. eigenvalues --   -0.64134  -0.62321  -0.62203  -0.60475  -0.60274
 Alpha  occ. eigenvalues --   -0.59839  -0.59724  -0.59016  -0.58919  -0.58532
 Alpha  occ. eigenvalues --   -0.58351  -0.57608  -0.57472  -0.57336  -0.57165
 Alpha  occ. eigenvalues --   -0.56339  -0.56132  -0.56004  -0.55814  -0.55552
 Alpha  occ. eigenvalues --   -0.55384  -0.55364  -0.55175  -0.54547  -0.54416
 Alpha  occ. eigenvalues --   -0.53932  -0.53842  -0.53329  -0.53256  -0.53158
 Alpha  occ. eigenvalues --   -0.53073  -0.52943  -0.52831  -0.52793  -0.52610
 Alpha  occ. eigenvalues --   -0.52465  -0.52337  -0.51935  -0.51797  -0.51653
 Alpha  occ. eigenvalues --   -0.51593  -0.51223  -0.51126  -0.50612  -0.50421
 Alpha  occ. eigenvalues --   -0.50061  -0.49953  -0.49913  -0.49800  -0.49549
 Alpha  occ. eigenvalues --   -0.49422  -0.49243  -0.49129  -0.49128  -0.49028
 Alpha  occ. eigenvalues --   -0.48619  -0.48491  -0.48483  -0.48473  -0.48304
 Alpha  occ. eigenvalues --   -0.48275  -0.47727  -0.47527  -0.47327  -0.47052
 Alpha  occ. eigenvalues --   -0.46827  -0.46638  -0.46592  -0.46486  -0.46388
 Alpha  occ. eigenvalues --   -0.46200  -0.46188  -0.46009  -0.45845  -0.45743
 Alpha  occ. eigenvalues --   -0.45228  -0.45138  -0.44603  -0.44542  -0.44440
 Alpha  occ. eigenvalues --   -0.44407  -0.44174  -0.44123  -0.44054  -0.44048
 Alpha  occ. eigenvalues --   -0.44011  -0.43871  -0.43519  -0.43479  -0.43418
 Alpha  occ. eigenvalues --   -0.43313  -0.43055  -0.42856  -0.42823  -0.42723
 Alpha  occ. eigenvalues --   -0.42679  -0.42487  -0.42039  -0.41897  -0.41732
 Alpha  occ. eigenvalues --   -0.41592  -0.41570  -0.41391  -0.41171  -0.40916
 Alpha  occ. eigenvalues --   -0.40904  -0.40860  -0.40662  -0.40634  -0.40600
 Alpha  occ. eigenvalues --   -0.40424  -0.40279  -0.40166  -0.39469  -0.39361
 Alpha  occ. eigenvalues --   -0.38499  -0.38282  -0.37789  -0.37590  -0.37349
 Alpha  occ. eigenvalues --   -0.37299  -0.37196  -0.37129  -0.36736  -0.36696
 Alpha  occ. eigenvalues --   -0.36219  -0.36145  -0.34316  -0.34179  -0.33792
 Alpha  occ. eigenvalues --   -0.33785  -0.33215  -0.33102  -0.31378  -0.31214
 Alpha  occ. eigenvalues --   -0.31065  -0.30900  -0.30048  -0.29867  -0.29480
 Alpha  occ. eigenvalues --   -0.29349  -0.29257  -0.29133  -0.24111  -0.23961
 Alpha  occ. eigenvalues --   -0.21158  -0.21044
 Alpha virt. eigenvalues --   -0.08804  -0.08718  -0.01780  -0.01612  -0.00091
 Alpha virt. eigenvalues --    0.00039   0.02176   0.02288   0.03084   0.03294
 Alpha virt. eigenvalues --    0.04683   0.04801   0.05077   0.05244   0.06134

 Mulliken charges:
               1
     1  Mg   0.838636
     2  C   -0.003005
     3  C   -0.094296
     4  C   -0.045852
     5  C   -0.063917
     6  N   -0.256760
     7  C   -0.052492
     8  C   -0.013988
     9  C   -0.086970
    10  C    0.046249
    11  C    0.104810
    12  C    0.053541
    13  C   -0.071671
    14  H    0.035863
    15  N   -0.433130
    16  C    0.168337
    17  C   -0.177302
    18  C   -0.004052
    19  C    0.148655
    20  C    0.110214
    21  C    0.012225
    22  O   -0.249551
    23  C    0.062531
    24  N   -0.341161
    25  C    0.041222
    26  C   -0.028183
    27  C   -0.024009
    28  C    0.074882
    29  C    0.076141
    30  C    0.035104
    31  C   -0.004501
    32  N   -0.310513
    33  C    0.080459
    34  C   -0.169554
    35  C    0.008468
    36  C    0.082996
    37  C    0.127268
    38  C    0.046261
    39  O   -0.188078
    40  C   -0.005369
    41  C    0.212942
    42  O   -0.257092
    43  O   -0.304805
    44  C    0.157616
    45  H   -0.017680
    46  H   -0.016805
    47  H   -0.041355
    48  H    0.001042
    49  H   -0.004226
    50  H    0.025558
    51  H    0.016500
    52  H    0.016623
    53  H    0.010907
    54  H    0.044128
    55  H    0.018048
    56  H    0.017714
    57  H    0.005768
    58  H    0.026856
    59  H    0.039188
    60  H    0.037353
    61  H    0.035684
    62  H    0.031206
    63  H    0.016553
    64  H    0.009554
    65  H    0.023254
    66  H    0.012554
    67  H    0.004818
    68  H    0.006416
    69  H    0.004830
    70  H    0.008762
    71  H    0.018119
    72  H    0.028936
    73  H    0.047853
    74  H    0.009172
    75  H    0.046099
    76  H    0.035210
    77  H    0.043175
    78  H    0.046175
    79  H    0.053843
    80  Mg   0.837972
    81  C   -0.016770
    82  C   -0.087846
    83  C   -0.045544
    84  C   -0.064732
    85  N   -0.254549
    86  C   -0.049634
    87  C   -0.015111
    88  C   -0.090562
    89  C    0.045822
    90  C    0.114375
    91  C    0.062554
    92  C   -0.077754
    93  H    0.034697
    94  N   -0.423474
    95  C    0.162868
    96  C   -0.174796
    97  C   -0.007930
    98  C    0.152084
    99  C    0.099465
   100  C    0.015459
   101  O   -0.253285
   102  C    0.061253
   103  N   -0.350030
   104  C    0.037554
   105  C   -0.019856
   106  C   -0.034822
   107  C    0.088991
   108  C    0.073643
   109  C    0.034727
   110  C   -0.007633
   111  N   -0.324187
   112  C    0.078563
   113  C   -0.162916
   114  C    0.002497
   115  C    0.096224
   116  C    0.131419
   117  C    0.042686
   118  O   -0.187483
   119  C    0.000778
   120  C    0.211228
   121  O   -0.251204
   122  O   -0.305457
   123  C    0.152095
   124  H   -0.019974
   125  H   -0.015690
   126  H   -0.040376
   127  H   -0.000392
   128  H   -0.004676
   129  H    0.023199
   130  H    0.014515
   131  H    0.015850
   132  H    0.013776
   133  H    0.037669
   134  H    0.020840
   135  H    0.019346
   136  H    0.008531
   137  H    0.025837
   138  H    0.039550
   139  H    0.038084
   140  H    0.036220
   141  H    0.033792
   142  H    0.014239
   143  H    0.012572
   144  H    0.024968
   145  H    0.011799
   146  H    0.005763
   147  H    0.006152
   148  H    0.003676
   149  H    0.010842
   150  H    0.017826
   151  H    0.030126
   152  H    0.045972
   153  H    0.008374
   154  H    0.047724
   155  H    0.035728
   156  H    0.044018
   157  H    0.049297
   158  H    0.053446
 Sum of Mulliken charges =  -0.00000

 Dipole moment (field-independent basis, Debye):
    X=             -3.8197    Y=             -2.4313    Z=             -7.7165  Tot=              8.9468
 Quadrupole moment (field-independent basis, Debye-Ang):
   XX=           -513.5997   YY=           -552.0359   ZZ=           -447.2796
   XY=             -3.2741   XZ=             -0.8049   YZ=            -48.6456

 Normal termination of Gaussian 16 at Sun Sep 12 06:00:10 2021.
