 Gaussian 16, Revision A.03,
 Gaussian 16:  ES64L-G16RevA.03 25-Dec-2016

 -----------------------------------
 #p cam-b3lyp/Def2SVP td=(nstates=5)
 -----------------------------------

 --------------------------------
 TDDFT excited states in gaussian
 --------------------------------
 Symbolic Z-matrix:
 Charge =  0 Multiplicity = 1

                         Standard orientation:
 ---------------------------------------------------------------------
 Center     Atomic      Atomic             Coordinates (Angstroms)
 Number     Number       Type             X           Y           Z
 ---------------------------------------------------------------------
      1         12           0       -6.502330    0.510674   -0.708908
      2          6           0       -6.871395   -2.423432    1.307779
      3          6           0       -7.679777    2.302386    1.945608
      4          6           0       -6.615889    3.046354   -2.609973
      5          6           0       -6.449912   -1.587544   -3.491064
      6          7           0       -7.157141   -0.096723    1.316663
      7          6           0       -7.193106   -1.245183    1.985182
      8          6           0       -7.532192   -1.070386    3.495758
      9          6           0       -8.301155    0.324305    3.421388
     10          6           0       -7.649903    0.894515    2.173729
     11          6           0       -9.799143    0.181587    3.172057
     12          6           0       -6.247775   -0.969683    4.385626
     13          6           0       -6.481999   -1.125405    5.891031
     14          1           0       -5.472999   -1.804050    6.690223
     15          7           0       -6.594136    2.435429   -0.273317
     16          6           0       -7.089564    2.986350    0.860844
     17          6           0       -6.933786    4.448629    0.705427
     18          6           0       -6.482358    4.712463   -0.689098
     19          6           0       -6.572442    3.393641   -1.261786
     20          6           0       -7.156952    5.423050    1.820976
     21          6           0       -6.050004    5.957703   -1.396615
     22          8           0       -5.920928    6.007899   -2.667596
     23          6           0       -5.864586    7.157579   -0.560577
     24          7           0       -6.749604    0.730260   -2.770042
     25          6           0       -6.702104    1.936440   -3.346114
     26          6           0       -6.619253    1.825323   -4.839676
     27          6           0       -6.374021    0.279304   -5.155015
     28          6           0       -6.444254   -0.270521   -3.708976
     29          6           0       -7.848870    2.315822   -5.616505
     30          6           0       -5.137925   -0.074595   -6.019446
     31          6           0       -3.870835    0.234343   -5.253849
     32          7           0       -6.456613   -1.631616   -1.054667
     33          6           0       -6.461509   -2.285750   -2.295134
     34          6           0       -6.533841   -3.732570   -2.020273
     35          6           0       -6.583041   -3.819394   -0.630350
     36          6           0       -6.570402   -2.508785   -0.073180
     37          6           0       -6.605326   -4.763988   -2.997770
     38          6           0       -6.668201   -4.713620    0.512876
     39          8           0       -6.616848   -5.935090    0.664091
     40          6           0       -6.981180   -3.842178    1.808430
     41          6           0       -6.033433   -4.281045    2.891242
     42          8           0       -4.807257   -4.071339    2.791839
     43          8           0       -6.735735   -4.660016    3.969989
     44          6           0       -5.854256   -5.079593    5.092087
     45          1           0       -8.255690    2.934904    2.623978
     46          1           0       -6.544845    3.889567   -3.300179
     47          1           0       -6.352353   -2.306320   -4.306721
     48          1           0       -8.190194   -1.836907    3.905518
     49          1           0       -8.084846    0.954756    4.283631
     50          1           0      -10.070647   -0.851969    2.957653
     51          1           0      -10.013069    0.817489    2.312780
     52          1           0      -10.371279    0.596973    4.002052
     53          1           0       -5.872821    0.053483    4.361065
     54          1           0       -5.496227   -1.690296    4.061252
     55          1           0       -7.471955   -1.531655    6.100450
     56          1           0       -6.496628   -0.131766    6.338989
     57          1           0       -7.640816    4.950396    2.674802
     58          1           0       -7.884662    6.152440    1.465817
     59          1           0       -6.237762    5.932161    2.111197
     60          1           0       -6.800998    7.391080   -0.053470
     61          1           0       -5.468876    7.927070   -1.222504
     62          1           0       -5.139467    6.933759    0.222402
     63          1           0       -5.784253    2.406177   -5.229304
     64          1           0       -7.211109   -0.166173   -5.693075
     65          1           0       -7.623752    3.092943   -6.347332
     66          1           0       -8.588313    2.660599   -4.894255
     67          1           0       -8.402214    1.534626   -6.137044
     68          1           0       -5.121859    0.531897   -6.924353
     69          1           0       -5.109420   -1.121623   -6.321391
     70          1           0       -3.729569    1.299023   -5.436421
     71          1           0       -3.035922   -0.344007   -5.650890
     72          1           0       -4.012199    0.103689   -4.180801
     73          1           0       -5.926314   -5.548413   -2.663723
     74          1           0       -6.328311   -4.394085   -3.984703
     75          1           0       -7.659997   -5.031018   -2.932804
     76          1           0       -8.020834   -4.034260    2.071768
     77          1           0       -6.150407   -6.090578    5.372156
     78          1           0       -5.928679   -4.301678    5.852162
     79          1           0       -4.802701   -5.233528    4.847394
     80         12           0        6.663674    0.689498    0.645106
     81          6           0        6.752853   -1.842527   -1.896535
     82          6           0        5.594538   -1.725646    2.803494
     83          6           0        6.143306    2.972806    2.785945
     84          6           0        6.623778    3.057960   -1.911161
     85          7           0        6.264011   -1.468561    0.370675
     86          6           0        6.392231   -2.333348   -0.624341
     87          6           0        6.196746   -3.817968   -0.215387
     88          6           0        5.295416   -3.590033    1.094011
     89          6           0        5.767065   -2.188052    1.474389
     90          6           0        3.806441   -3.528703    0.796474
     91          6           0        7.552809   -4.524532    0.136601
     92          6           0        7.474638   -6.049002    0.244341
     93          1           0        8.619048   -6.837988   -0.203228
     94          7           0        6.446990    0.578071    2.614678
     95          6           0        6.024117   -0.486758    3.327843
     96          6           0        6.019234   -0.053206    4.733614
     97          6           0        6.315838    1.404513    4.775946
     98          6           0        6.292504    1.719454    3.361607
     99          6           0        5.829063   -1.005647    5.878208
    100          6           0        6.564956    2.359837    5.903550
    101          8           0        6.566469    3.628805    5.723086
    102          6           0        6.714275    1.769773    7.241834
    103          7           0        6.205577    2.709751    0.468780
    104          6           0        6.083125    3.488499    1.558033
    105          6           0        6.026480    4.949530    1.180464
    106          6           0        6.381017    5.004582   -0.378012
    107          6           0        6.498972    3.491463   -0.664302
    108          6           0        4.688554    5.647839    1.422743
    109          6           0        7.554414    5.930470   -0.800563
    110          6           0        8.859219    5.387735   -0.263611
    111          7           0        6.869149    0.660503   -1.505466
    112          6           0        6.795297    1.763319   -2.384333
    113          6           0        6.879345    1.230427   -3.759613
    114          6           0        6.973851   -0.158441   -3.584722
    115          6           0        6.930035   -0.470726   -2.199061
    116          6           0        6.815065    2.000010   -4.955330
    117          6           0        7.090022   -1.432165   -4.257659
    118          8           0        7.256843   -1.786379   -5.424039
    119          6           0        6.824794   -2.588564   -3.199932
    120          6           0        7.908151   -3.620010   -3.357976
    121          8           0        9.090880   -3.339796   -3.094828
    122          8           0        7.344012   -4.820696   -3.582678
    123          6           0        8.378116   -5.878604   -3.735230
    124          1           0        5.040484   -2.352220    3.503007
    125          1           0        6.071705    3.807958    3.486557
    126          1           0        6.716849    3.739326   -2.759534
    127          1           0        5.658512   -4.420812   -0.936950
    128          1           0        5.547065   -4.302147    1.875627
    129          1           0        3.607267   -3.530413   -0.264883
    130          1           0        3.454236   -2.609524    1.246030
    131          1           0        3.284598   -4.337519    1.315922
    132          1           0        7.827865   -4.277006    1.169952
    133          1           0        8.318103   -4.250497   -0.563297
    134          1           0        6.544673   -6.445164   -0.181295
    135          1           0        7.422237   -6.319930    1.301631
    136          1           0        5.467960   -1.982319    5.533072
    137          1           0        5.008437   -0.612717    6.488183
    138          1           0        6.720587   -1.097621    6.502226
    139          1           0        5.817070    1.208194    7.491068
    140          1           0        6.974633    2.600794    7.900232
    141          1           0        7.539540    1.049416    7.216476
    142          1           0        6.765817    5.519758    1.729400
    143          1           0        5.534147    5.372419   -0.975784
    144          1           0        4.771625    6.534699    2.078989
    145          1           0        3.998673    4.927671    1.842216
    146          1           0        4.166784    5.970982    0.523552
    147          1           0        7.428633    6.924380   -0.364116
    148          1           0        7.638287    6.058624   -1.874586
    149          1           0        8.880795    5.767249    0.762342
    150          1           0        9.698970    5.766919   -0.842459
    151          1           0        8.837712    4.293076   -0.209761
    152          1           0        7.582946    1.616595   -5.614006
    153          1           0        6.955774    3.059937   -4.754006
    154          1           0        5.794733    1.775252   -5.277317
    155          1           0        5.835415   -2.999333   -3.404820
    156          1           0        8.198574   -6.364214   -4.699400
    157          1           0        8.295742   -6.509596   -2.830346
    158          1           0        9.407985   -5.560343   -3.847245
 ---------------------------------------------------------------------

 SCF Done:  E(RCAM-B3LYP) =  -4069.81203889     A.U. after   19 cycles

 Excitation energies and oscillator strengths:

 Excited State   1:      Singlet-A      1.6740 eV  740.65 nm  f=0.3202  <S**2>=0.000
     310 -> 316        0.16263
     311 -> 313       -0.23179
     312 -> 314        0.64577
 This state for optimization and/or second-order correction.
 Total Energy, E(TD-HF/TD-DFT) =  -4069.75052116
 Copying the excited state density for this state as the 1-particle RhoCI density.

 Excited State   2:      Singlet-A      1.6798 eV  738.08 nm  f=0.4122  <S**2>=0.000
     309 -> 315        0.16538
     311 -> 313        0.64532
     312 -> 314        0.23160

 Excited State   3:      Singlet-A      2.1852 eV  567.39 nm  f=0.0975  <S**2>=0.000
     310 -> 314        0.63931
     312 -> 316       -0.27048

 Excited State   4:      Singlet-A      2.1929 eV  565.39 nm  f=0.1009  <S**2>=0.000
     309 -> 313        0.63728
     311 -> 315       -0.27700

 Excited State   5:      Singlet-A      2.6457 eV  468.63 nm  f=0.0000  <S**2>=0.000
     312 -> 313        0.70710

 The electronic state is 1-A.
 Alpha  occ. eigenvalues --  -46.87861 -46.87546 -19.26423 -19.26228 -19.19159
 Alpha  occ. eigenvalues --  -19.19045 -19.18869 -19.18639 -19.18256 -19.17944
 Alpha  occ. eigenvalues --  -14.42516 -14.42370 -14.41508 -14.41250 -14.39466
 Alpha  occ. eigenvalues --  -14.39241 -14.38654 -14.38488 -10.39212 -10.38973
 Alpha  occ. eigenvalues --  -10.35501 -10.35318 -10.34478 -10.34120 -10.31836
 Alpha  occ. eigenvalues --  -10.31637 -10.31476 -10.31170 -10.30979 -10.30893
 Alpha  occ. eigenvalues --  -10.30637 -10.30571 -10.30294 -10.30257 -10.30244
 Alpha  occ. eigenvalues --  -10.30038 -10.29979 -10.29795 -10.29695 -10.29327
 Alpha  occ. eigenvalues --  -10.29313 -10.29298 -10.28834 -10.28652 -10.28549
 Alpha  occ. eigenvalues --  -10.28495 -10.28434 -10.28289 -10.28192 -10.27943
 Alpha  occ. eigenvalues --  -10.27892 -10.27859 -10.27791 -10.27647 -10.27535
 Alpha  occ. eigenvalues --  -10.27533 -10.27532 -10.27485 -10.27475 -10.27438
 Alpha  occ. eigenvalues --  -10.27366 -10.27365 -10.27362 -10.27303 -10.27253
 Alpha  occ. eigenvalues --  -10.26930 -10.26809 -10.26540 -10.26456 -10.26357
 Alpha  occ. eigenvalues --  -10.26302 -10.26197 -10.26075 -10.26071 -10.25906
 Alpha  occ. eigenvalues --  -10.25828 -10.25759 -10.25742 -10.25465 -10.25344
 Alpha  occ. eigenvalues --  -10.24902 -10.24847 -10.24763 -10.24697 -10.24668
 Alpha  occ. eigenvalues --  -10.24587  -3.16604  -3.16296  -1.91485  -1.91178
 Alpha  occ. eigenvalues --   -1.91072  -1.90914  -1.90766  -1.90603  -1.16770
 Alpha  occ. eigenvalues --   -1.16523  -1.08719  -1.08551  -1.07269  -1.06893
 Alpha  occ. eigenvalues --   -1.06829  -1.06779  -1.04649  -1.04368  -1.03821
 Alpha  occ. eigenvalues --   -1.03549  -1.03297  -1.02931  -1.02474  -1.02000
 Alpha  occ. eigenvalues --   -0.92048  -0.91869  -0.89567  -0.89398  -0.89266
 Alpha  occ. eigenvalues --   -0.88977  -0.88332  -0.88132  -0.87936  -0.87740
 Alpha  occ. eigenvalues --   -0.87687  -0.87559  -0.87331  -0.87025  -0.85059
 Alpha  occ. eigenvalues --   -0.84853  -0.83981  -0.83794  -0.83017  -0.82850
 Alpha  occ. eigenvalues --   -0.82724  -0.82521  -0.81682  -0.81480  -0.80674
 Alpha  occ. eigenvalues --   -0.80328  -0.78857  -0.78531  -0.77281  -0.77021
 Alpha  occ. eigenvalues --   -0.77015  -0.76769  -0.76005  -0.75691  -0.74951
 Alpha  occ. eigenvalues --   -0.74709  -0.72836  -0.72586  -0.71737  -0.71455
 Alpha  occ. eigenvalues --   -0.69941  -0.69675  -0.68947  -0.68689  -0.67710
 Alpha  occ. eigenvalues --   -0.67494  -0.67300  -0.67073  -0.65366  -0.65130
 Alpha  occ. eigenvalues --   -0.64929  -0.64694  -0.64655  -0.64530  -0.64320
 Alpha  occ. eigenvalues --   -0.64108  -0.62398  -0.62165  -0.60497  -0.60245
 Alpha  occ. eigenvalues --   -0.59878  -0.59645  -0.59054  -0.58880  -0.58573
 Alpha  occ. eigenvalues --   -0.58315  -0.57680  -0.57439  -0.57371  -0.57140
 Alpha  occ. eigenvalues --   -0.56379  -0.56092  -0.56087  -0.55766  -0.55586
 Alpha  occ. eigenvalues --   -0.55405  -0.55345  -0.55152  -0.54602  -0.54389
 Alpha  occ. eigenvalues --   -0.53975  -0.53748  -0.53361  -0.53297  -0.53125
 Alpha  occ. eigenvalues --   -0.53022  -0.53000  -0.52819  -0.52781  -0.52555
 Alpha  occ. eigenvalues --   -0.52472  -0.52323  -0.51983  -0.51785  -0.51696
 Alpha  occ. eigenvalues --   -0.51524  -0.51268  -0.51089  -0.50622  -0.50384
 Alpha  occ. eigenvalues --   -0.50074  -0.49978  -0.49859  -0.49771  -0.49587
 Alpha  occ. eigenvalues --   -0.49367  -0.49289  -0.49173  -0.49079  -0.48953
 Alpha  occ. eigenvalues --   -0.48676  -0.48520  -0.48509  -0.48427  -0.48289
 Alpha  occ. eigenvalues --   -0.48242  -0.47762  -0.47475  -0.47360  -0.47014
 Alpha  occ. eigenvalues --   -0.46858  -0.46636  -0.46594  -0.46424  -0.46404
 Alpha  occ. eigenvalues --   -0.46231  -0.46166  -0.45986  -0.45907  -0.45705
 Alpha  occ. eigenvalues --   -0.45249  -0.45119  -0.44659  -0.44568  -0.44403
 Alpha  occ. eigenvalues --   -0.44338  -0.44206  -0.44159  -0.44093  -0.43988
 Alpha  occ. eigenvalues --   -0.43981  -0.43831  -0.43586  -0.43451  -0.43438
 Alpha  occ. eigenvalues --   -0.43259  -0.43095  -0.42816  -0.42811  -0.42787
 Alpha  occ. eigenvalues --   -0.42705  -0.42464  -0.42068  -0.41857  -0.41775
 Alpha  occ. eigenvalues --   -0.41609  -0.41554  -0.41325  -0.41207  -0.40937
 Alpha  occ. eigenvalues --   -0.40883  -0.40855  -0.40621  -0.40621  -0.40570
 Alpha  occ. eigenvalues --   -0.40385  -0.40323  -0.40083  -0.39471  -0.39345
 Alpha  occ. eigenvalues --   -0.38518  -0.38252  -0.37837  -0.37515  -0.37372
 Alpha  occ. eigenvalues --   -0.37343  -0.37160  -0.37063  -0.36821  -0.36660
 Alpha  occ. eigenvalues --   -0.36271  -0.36108  -0.34352  -0.34138  -0.33897
 Alpha  occ. eigenvalues --   -0.33747  -0.33255  -0.33063  -0.31399  -0.31197
 Alpha  occ. eigenvalues --   -0.31102  -0.30858  -0.30117  -0.29848  -0.29512
 Alpha  occ. eigenvalues --   -0.29390  -0.29225  -0.29104  -0.24146  -0.23920
 Alpha  occ. eigenvalues --   -0.21190  -0.21003
 Alpha virt. eigenvalues --   -0.08838  -0.08682  -0.01810  -0.01575  -0.00122
 Alpha virt. eigenvalues --    0.00077   0.02128   0.02311   0.03050   0.03327
 Alpha virt. eigenvalues --    0.04645   0.04867   0.04973   0.05283   0.06079

 Mulliken charges:
               1
     1  Mg   0.838594
     2  C   -0.003291
     3  C   -0.094126
     4  C   -0.045748
     5  C   -0.063799
     6  N   -0.256812
     7  C   -0.052565
     8  C   -0.014011
     9  C   -0.087021
    10  C    0.046287
    11  C    0.104767
    12  C    0.053484
    13  C   -0.071590
    14  H    0.035180
    15  N   -0.433161
    16  C    0.168468
    17  C   -0.177046
    18  C   -0.003881
    19  C    0.148718
    20  C    0.110120
    21  C    0.012309
    22  O   -0.249455
    23  C    0.062448
    24  N   -0.341131
    25  C    0.041318
    26  C   -0.028235
    27  C   -0.024040
    28  C    0.074839
    29  C    0.076113
    30  C    0.035073
    31  C   -0.004623
    32  N   -0.310382
    33  C    0.080266
    34  C   -0.169799
    35  C    0.008176
    36  C    0.082825
    37  C    0.127367
    38  C    0.045813
    39  O   -0.188879
    40  C   -0.005228
    41  C    0.212888
    42  O   -0.257931
    43  O   -0.304498
    44  C    0.157989
    45  H   -0.017479
    46  H   -0.016626
    47  H   -0.041238
    48  H    0.000880
    49  H   -0.003996
    50  H    0.025478
    51  H    0.016615
    52  H    0.016775
    53  H    0.011338
    54  H    0.043521
    55  H    0.018076
    56  H    0.018239
    57  H    0.005930
    58  H    0.026997
    59  H    0.039771
    60  H    0.037470
    61  H    0.035732
    62  H    0.031547
    63  H    0.016734
    64  H    0.009600
    65  H    0.023425
    66  H    0.012494
    67  H    0.004921
    68  H    0.006737
    69  H    0.004941
    70  H    0.008834
    71  H    0.018816
    72  H    0.028510
    73  H    0.047214
    74  H    0.009424
    75  H    0.046107
    76  H    0.035277
    77  H    0.042958
    78  H    0.046505
    79  H    0.052682
    80  Mg   0.837869
    81  C   -0.016819
    82  C   -0.087434
    83  C   -0.045774
    84  C   -0.064967
    85  N   -0.254651
    86  C   -0.049417
    87  C   -0.015214
    88  C   -0.090490
    89  C    0.045743
    90  C    0.114135
    91  C    0.062464
    92  C   -0.077859
    93  H    0.034314
    94  N   -0.423494
    95  C    0.162837
    96  C   -0.174404
    97  C   -0.008174
    98  C    0.152328
    99  C    0.099328
   100  C    0.015348
   101  O   -0.253715
   102  C    0.061281
   103  N   -0.350014
   104  C    0.037602
   105  C   -0.019796
   106  C   -0.034826
   107  C    0.088937
   108  C    0.073763
   109  C    0.034819
   110  C   -0.007601
   111  N   -0.324077
   112  C    0.078449
   113  C   -0.163282
   114  C    0.002244
   115  C    0.096197
   116  C    0.131503
   117  C    0.042256
   118  O   -0.188163
   119  C    0.001015
   120  C    0.211221
   121  O   -0.251241
   122  O   -0.305417
   123  C    0.152130
   124  H   -0.018682
   125  H   -0.016117
   126  H   -0.040704
   127  H   -0.000131
   128  H   -0.004295
   129  H    0.022790
   130  H    0.015002
   131  H    0.018542
   132  H    0.013656
   133  H    0.037296
   134  H    0.021506
   135  H    0.019685
   136  H    0.009315
   137  H    0.025970
   138  H    0.039467
   139  H    0.038125
   140  H    0.035891
   141  H    0.033934
   142  H    0.014093
   143  H    0.012444
   144  H    0.024473
   145  H    0.011569
   146  H    0.005652
   147  H    0.005900
   148  H    0.003607
   149  H    0.010720
   150  H    0.017723
   151  H    0.030299
   152  H    0.045761
   153  H    0.008332
   154  H    0.046910
   155  H    0.035485
   156  H    0.043762
   157  H    0.049759
   158  H    0.053300
 Sum of Mulliken charges =  -0.00000

 Dipole moment (field-independent basis, Debye):
    X=             -4.7094    Y=              1.6659    Z=              5.3847  Tot=              7.3450
 Quadrupole moment (field-independent basis, Debye-Ang):
   XX=           -518.6384   YY=           -508.6469   ZZ=           -490.8326
   XY=            -30.1140   XZ=              6.9243   YZ=             -9.6361

 Normal termination of Gaussian 16 at Sat Sep  4 11:46:48 2021.
