 Gaussian 16, Revision A.03,
 Gaussian 16:  ES64L-G16RevA.03 25-Dec-2016

 -----------------------------------
 #p cam-b3lyp/Def2SVP td=(nstates=5)
 -----------------------------------

 --------------------------------
 TDDFT excited states in gaussian
 --------------------------------
 Symbolic Z-matrix:
 Charge =  0 Multiplicity = 1

                         Standard orientation:
 ---------------------------------------------------------------------
 Center     Atomic      Atomic             Coordinates (Angstroms)
 Number     Number       Type             X           Y           Z
 ---------------------------------------------------------------------
      1         12           0       -3.516698    1.334671    0.180748
      2          6           0       -4.348441   -1.634352   -1.637306
      3          6           0       -4.590241   -0.267160    2.995834
      4          6           0       -3.218695    4.086258    1.728839
      5          6           0       -3.590010    3.038887   -2.858320
      6          7           0       -4.341228   -0.693281    0.509701
      7          6           0       -4.553327   -1.755397   -0.261074
      8          6           0       -4.941872   -3.033233    0.541137
      9          6           0       -5.525887   -2.339362    1.852422
     10          6           0       -4.747835   -1.036181    1.804699
     11          6           0       -7.015858   -2.025390    1.763480
     12          6           0       -3.700328   -3.928415    0.871211
     13          6           0       -4.026018   -5.342492    1.360766
     14          1           0       -3.150337   -6.437419    0.971322
     15          7           0       -3.388552    1.708318    2.116418
     16          6           0       -3.866479    0.938161    3.123260
     17          6           0       -3.521695    1.644646    4.375731
     18          6           0       -2.972717    2.979597    4.008819
     19          6           0       -3.198620    2.988583    2.586052
     20          6           0       -3.675978    1.033332    5.734496
     21          6           0       -2.353807    4.077876    4.814339
     22          8           0       -2.157043    5.246095    4.333587
     23          6           0       -2.061267    3.772182    6.226435
     24          7           0       -3.632795    3.327448   -0.429985
     25          6           0       -3.406604    4.326914    0.429601
     26          6           0       -3.264850    5.638879   -0.283557
     27          6           0       -3.199544    5.290861   -1.840596
     28          6           0       -3.409064    3.759198   -1.749051
     29          6           0       -4.383765    6.659869   -0.035327
     30          6           0       -1.976320    5.822148   -2.629187
     31          6           0       -0.719801    5.124611   -2.158339
     32          7           0       -3.722127    0.797190   -1.912087
     33          6           0       -3.747655    1.671233   -3.008476
     34          6           0       -4.013699    0.853843   -4.206458
     35          6           0       -4.141744   -0.445121   -3.718461
     36          6           0       -3.992847   -0.435806   -2.302115
     37          6           0       -4.165317    1.344602   -5.533335
     38          6           0       -4.394190   -1.835302   -4.061278
     39          8           0       -4.503415   -2.462283   -5.116010
     40          6           0       -4.659207   -2.643234   -2.714861
     41          6           0       -3.828220   -3.896306   -2.765665
     42          8           0       -2.582053   -3.839360   -2.731157
     43          8           0       -4.624640   -4.964595   -2.607496
     44          6           0       -3.858844   -6.239580   -2.618588
     45          1           0       -5.115281   -0.581091    3.900114
     46          1           0       -3.008918    5.043881    2.209868
     47          1           0       -3.543009    3.489618   -3.851338
     48          1           0       -5.709891   -3.648402    0.071948
     49          1           0       -5.275197   -2.897562    2.754247
     50          1           0       -7.403523   -2.213248    0.762308
     51          1           0       -7.106055   -0.968344    2.014503
     52          1           0       -7.571759   -2.564177    2.531242
     53          1           0       -3.199683   -3.536320    1.756466
     54          1           0       -3.029687   -3.989402    0.013396
     55          1           0       -5.068089   -5.600307    1.169640
     56          1           0       -3.938381   -5.356444    2.447194
     57          1           0       -4.256574    0.112487    5.695785
     58          1           0       -4.288441    1.716061    6.323122
     59          1           0       -2.715779    0.882390    6.228019
     60          1           0       -2.984978    3.490914    6.732594
     61          1           0       -1.540375    4.643812    6.621126
     62          1           0       -1.409249    2.899350    6.271002
     63          1           0       -2.345635    6.145218    0.008145
     64          1           0       -4.058229    5.685511   -2.384275
     65          1           0       -4.027572    7.613709    0.354571
     66          1           0       -5.108976    6.207447    0.640450
     67          1           0       -5.004100    6.878438   -0.904136
     68          1           0       -1.840039    6.887277   -2.445138
     69          1           0       -2.064070    5.680285   -3.706418
     70          1           0       -0.437755    5.699732   -1.277137
     71          1           0        0.054809    5.178403   -2.924039
     72          1           0       -0.929049    4.106432   -1.829686
     73          1           0       -3.606949    0.663988   -6.175955
     74          1           0       -3.795983    2.366008   -5.622365
     75          1           0       -5.247002    1.280035   -5.650145
     76          1           0       -5.726411   -2.860685   -2.684664
     77          1           0       -4.292461   -6.867689   -3.396850
     78          1           0       -3.872790   -6.618329   -1.596453
     79          1           0       -2.824012   -6.177396   -2.957105
     80         12           0        4.282937   -0.122386   -0.143108
     81          6           0        1.435991   -2.104674    0.775856
     82          6           0        6.238960   -2.620824    1.108423
     83          6           0        6.790304    1.783892   -0.526030
     84          6           0        2.152780    2.633540   -0.257172
     85          7           0        3.784811   -2.062918    0.794164
     86          6           0        2.670104   -2.736697    1.034587
     87          6           0        2.891460   -4.198408    1.507837
     88          6           0        4.371643   -4.035032    2.108860
     89          6           0        4.849472   -2.855444    1.264517
     90          6           0        4.385231   -3.613863    3.568912
     91          6           0        2.863955   -5.222196    0.319092
     92          6           0        2.764348   -6.690820    0.737393
     93          1           0        1.991281   -7.602546   -0.101423
     94          7           0        6.219622   -0.548282   -0.223342
     95          6           0        6.841215   -1.615826    0.320010
     96          6           0        8.267873   -1.457704   -0.002165
     97          6           0        8.460395   -0.126011   -0.637976
     98          6           0        7.138731    0.442487   -0.464424
     99          6           0        9.278223   -2.544919    0.222735
    100          6           0        9.642380    0.532401   -1.282621
    101          8           0        9.649780    1.784742   -1.555422
    102          6           0       10.825859   -0.312440   -1.499717
    103          7           0        4.493029    1.945969   -0.153749
    104          6           0        5.685614    2.518486   -0.394389
    105          6           0        5.540967    4.003771   -0.625419
    106          6           0        3.967673    4.271165   -0.729557
    107          6           0        3.448957    2.845708   -0.439039
    108          6           0        6.140002    4.906208    0.453073
    109          6           0        3.460061    4.996651   -2.005748
    110          6           0        3.645624    4.106717   -3.213629
    111          7           0        2.152702    0.204300    0.009974
    112          6           0        1.473716    1.441470   -0.039854
    113          6           0        0.046727    1.165912    0.225084
    114          6           0       -0.002250   -0.220441    0.435095
    115          6           0        1.305198   -0.767244    0.329860
    116          6           0       -0.989387    2.139377    0.295460
    117          6           0       -0.861113   -1.344127    0.732398
    118          8           0       -2.076101   -1.503634    0.842400
    119          6           0        0.050391   -2.595804    1.091333
    120          6           0       -0.464774   -3.781356    0.322191
    121          8           0       -0.402219   -3.804786   -0.919642
    122          8           0       -0.744424   -4.777180    1.182721
    123          6           0       -1.248382   -5.979003    0.466158
    124          1           0        6.936257   -3.237668    1.676031
    125          1           0        7.604100    2.471846   -0.766719
    126          1           0        1.409809    3.425655   -0.372160
    127          1           0        2.210929   -4.533405    2.281419
    128          1           0        4.977542   -4.915515    1.911377
    129          1           0        3.394938   -3.378493    3.929563
    130          1           0        5.022917   -2.740904    3.617344
    131          1           0        4.875326   -4.379236    4.177479
    132          1           0        3.847526   -5.231866   -0.167966
    133          1           0        2.073911   -4.987658   -0.367529
    134          1           0        2.477723   -6.800981    1.790322
    135          1           0        3.761004   -7.135494    0.682993
    136          1           0        8.874021   -3.345169    0.854904
    137          1           0       10.087979   -2.110574    0.818986
    138          1           0        9.694519   -2.932492   -0.709554
    139          1           0       11.163434   -0.712872   -0.546747
    140          1           0       11.532714    0.310829   -2.050866
    141          1           0       10.534989   -1.170277   -2.116252
    142          1           0        6.009780    4.297787   -1.556482
    143          1           0        3.607754    4.909761    0.090497
    144          1           0        6.887747    5.620111    0.058984
    145          1           0        6.579016    4.279168    1.217684
    146          1           0        5.417301    5.490380    1.020208
    147          1           0        4.051189    5.897099   -2.189917
    148          1           0        2.420425    5.300743   -1.945077
    149          1           0        4.690966    4.277572   -3.487776
    150          1           0        2.973443    4.404602   -4.015804
    151          1           0        3.544478    3.049359   -2.942701
    152          1           0       -1.834627    1.734037   -0.244707
    153          1           0       -0.669267    3.091656   -0.122210
    154          1           0       -1.133015    2.193443    1.377918
    155          1           0       -0.012553   -2.748486    2.169443
    156          1           0       -2.217969   -6.230596    0.906944
    157          1           0       -0.445475   -6.735344    0.549972
    158          1           0       -1.514054   -5.865076   -0.578295
 ---------------------------------------------------------------------

 SCF Done:  E(RCAM-B3LYP) =  -4069.73334633     A.U. after   19 cycles

 Excitation energies and oscillator strengths:

 Excited State   1:      Singlet-A      1.6447 eV  753.83 nm  f=0.4688  <S**2>=0.000
     309 -> 315        0.16116
     311 -> 313        0.65345
     312 -> 313        0.20664
 This state for optimization and/or second-order correction.
 Total Energy, E(TD-HF/TD-DFT) =  -4069.67290411
 Copying the excited state density for this state as the 1-particle RhoCI density.

 Excited State   2:      Singlet-A      1.6769 eV  739.37 nm  f=0.3387  <S**2>=0.000
     310 -> 316        0.15443
     312 -> 314        0.67417

 Excited State   3:      Singlet-A      1.7329 eV  715.45 nm  f=0.0235  <S**2>=0.000
     311 -> 313       -0.19785
     312 -> 313        0.66190
     312 -> 314        0.10549

 Excited State   4:      Singlet-A      2.1049 eV  589.01 nm  f=0.0313  <S**2>=0.000
     309 -> 313       -0.21426
     310 -> 314        0.60915
     311 -> 314        0.11510
     312 -> 316       -0.19898

 Excited State   5:      Singlet-A      2.1713 eV  571.02 nm  f=0.1328  <S**2>=0.000
     309 -> 313        0.60889
     310 -> 314        0.20247
     311 -> 315       -0.24553

 The electronic state is 1-A.
 Alpha  occ. eigenvalues --  -46.88022 -46.85942 -19.26577 -19.25410 -19.19270
 Alpha  occ. eigenvalues --  -19.19066 -19.19066 -19.17979 -19.17797 -19.17127
 Alpha  occ. eigenvalues --  -14.42841 -14.41694 -14.40432 -14.39855 -14.39741
 Alpha  occ. eigenvalues --  -14.39039 -14.37708 -14.37211 -10.38976 -10.37816
 Alpha  occ. eigenvalues --  -10.35733 -10.35226 -10.34632 -10.33319 -10.31754
 Alpha  occ. eigenvalues --  -10.31356 -10.31328 -10.30860 -10.30854 -10.30616
 Alpha  occ. eigenvalues --  -10.30372 -10.30297 -10.29886 -10.29884 -10.29689
 Alpha  occ. eigenvalues --  -10.29212 -10.29206 -10.29181 -10.29130 -10.28973
 Alpha  occ. eigenvalues --  -10.28857 -10.28756 -10.28746 -10.28643 -10.28455
 Alpha  occ. eigenvalues --  -10.28449 -10.28111 -10.28049 -10.27918 -10.27845
 Alpha  occ. eigenvalues --  -10.27809 -10.27644 -10.27609 -10.27588 -10.27572
 Alpha  occ. eigenvalues --  -10.27278 -10.27054 -10.26880 -10.26805 -10.26781
 Alpha  occ. eigenvalues --  -10.26685 -10.26665 -10.26647 -10.26598 -10.26583
 Alpha  occ. eigenvalues --  -10.26471 -10.26353 -10.26331 -10.26217 -10.26155
 Alpha  occ. eigenvalues --  -10.26074 -10.26021 -10.26002 -10.25787 -10.25580
 Alpha  occ. eigenvalues --  -10.25548 -10.25074 -10.25071 -10.25012 -10.25011
 Alpha  occ. eigenvalues --  -10.24969 -10.24893 -10.24812 -10.24808 -10.23710
 Alpha  occ. eigenvalues --  -10.23554  -3.16768  -3.14856  -1.91649  -1.91238
 Alpha  occ. eigenvalues --   -1.91079  -1.89805  -1.89294  -1.89151  -1.16755
 Alpha  occ. eigenvalues --   -1.15710  -1.10145  -1.07584  -1.07308  -1.06903
 Alpha  occ. eigenvalues --   -1.06410  -1.05468  -1.04868  -1.04046  -1.03432
 Alpha  occ. eigenvalues --   -1.03017  -1.02538  -1.02292  -1.01944  -1.01065
 Alpha  occ. eigenvalues --   -0.92454  -0.90721  -0.89807  -0.89482  -0.89041
 Alpha  occ. eigenvalues --   -0.88753  -0.88451  -0.88016  -0.87740  -0.87514
 Alpha  occ. eigenvalues --   -0.87410  -0.86783  -0.86403  -0.86220  -0.85324
 Alpha  occ. eigenvalues --   -0.84198  -0.83911  -0.83370  -0.83228  -0.82967
 Alpha  occ. eigenvalues --   -0.82276  -0.82147  -0.81663  -0.81008  -0.80543
 Alpha  occ. eigenvalues --   -0.79497  -0.79258  -0.77746  -0.77597  -0.77469
 Alpha  occ. eigenvalues --   -0.76483  -0.76402  -0.75685  -0.75154  -0.74828
 Alpha  occ. eigenvalues --   -0.74068  -0.73347  -0.72010  -0.71656  -0.70550
 Alpha  occ. eigenvalues --   -0.69954  -0.69453  -0.69248  -0.68108  -0.67815
 Alpha  occ. eigenvalues --   -0.67500  -0.66573  -0.66288  -0.65614  -0.65248
 Alpha  occ. eigenvalues --   -0.65043  -0.64504  -0.64193  -0.63743  -0.63661
 Alpha  occ. eigenvalues --   -0.63168  -0.62654  -0.61355  -0.60760  -0.60325
 Alpha  occ. eigenvalues --   -0.59810  -0.59497  -0.59207  -0.58761  -0.58478
 Alpha  occ. eigenvalues --   -0.58001  -0.57632  -0.57396  -0.57346  -0.56909
 Alpha  occ. eigenvalues --   -0.56478  -0.56323  -0.56061  -0.55867  -0.55324
 Alpha  occ. eigenvalues --   -0.55171  -0.55155  -0.54691  -0.54642  -0.54366
 Alpha  occ. eigenvalues --   -0.54205  -0.53981  -0.53717  -0.53436  -0.53188
 Alpha  occ. eigenvalues --   -0.53136  -0.52963  -0.52612  -0.52382  -0.52272
 Alpha  occ. eigenvalues --   -0.52148  -0.51986  -0.51911  -0.51807  -0.51584
 Alpha  occ. eigenvalues --   -0.50941  -0.50854  -0.50736  -0.50462  -0.50285
 Alpha  occ. eigenvalues --   -0.50250  -0.50059  -0.49825  -0.49786  -0.49713
 Alpha  occ. eigenvalues --   -0.49355  -0.49339  -0.49136  -0.48868  -0.48663
 Alpha  occ. eigenvalues --   -0.48275  -0.48131  -0.48066  -0.47910  -0.47831
 Alpha  occ. eigenvalues --   -0.47710  -0.47597  -0.47480  -0.47342  -0.47094
 Alpha  occ. eigenvalues --   -0.46904  -0.46824  -0.46696  -0.46426  -0.46220
 Alpha  occ. eigenvalues --   -0.45935  -0.45609  -0.45494  -0.45386  -0.45172
 Alpha  occ. eigenvalues --   -0.45100  -0.44827  -0.44721  -0.44670  -0.44360
 Alpha  occ. eigenvalues --   -0.44317  -0.44192  -0.43924  -0.43729  -0.43593
 Alpha  occ. eigenvalues --   -0.43500  -0.43418  -0.43308  -0.43114  -0.43007
 Alpha  occ. eigenvalues --   -0.42833  -0.42561  -0.42434  -0.42361  -0.42204
 Alpha  occ. eigenvalues --   -0.42136  -0.42012  -0.41753  -0.41674  -0.41581
 Alpha  occ. eigenvalues --   -0.41337  -0.41076  -0.41005  -0.40901  -0.40755
 Alpha  occ. eigenvalues --   -0.40427  -0.40369  -0.40165  -0.39893  -0.39680
 Alpha  occ. eigenvalues --   -0.39603  -0.39524  -0.39119  -0.38965  -0.38524
 Alpha  occ. eigenvalues --   -0.38263  -0.37915  -0.37593  -0.37503  -0.37415
 Alpha  occ. eigenvalues --   -0.37063  -0.36565  -0.36184  -0.35987  -0.35649
 Alpha  occ. eigenvalues --   -0.35158  -0.34643  -0.33838  -0.33459  -0.33065
 Alpha  occ. eigenvalues --   -0.32562  -0.32439  -0.31957  -0.31602  -0.31326
 Alpha  occ. eigenvalues --   -0.30861  -0.30505  -0.30232  -0.29700  -0.29345
 Alpha  occ. eigenvalues --   -0.28957  -0.28230  -0.28147  -0.24391  -0.22439
 Alpha  occ. eigenvalues --   -0.21509  -0.19906
 Alpha virt. eigenvalues --   -0.09260  -0.07463  -0.02031  -0.00751  -0.00442
 Alpha virt. eigenvalues --    0.00987   0.01630   0.03034   0.03271   0.04424
 Alpha virt. eigenvalues --    0.04638   0.05929   0.05965   0.06398   0.06615

 Mulliken charges:
               1
     1  Mg   0.509382
     2  C    0.011035
     3  C   -0.095967
     4  C   -0.051112
     5  C   -0.061044
     6  N   -0.213592
     7  C   -0.038433
     8  C    0.010972
     9  C   -0.089043
    10  C    0.067383
    11  C    0.107899
    12  C    0.026863
    13  C   -0.085219
    14  H    0.051323
    15  N   -0.412762
    16  C    0.175250
    17  C   -0.180340
    18  C   -0.009783
    19  C    0.130200
    20  C    0.112058
    21  C    0.007447
    22  O   -0.254268
    23  C    0.064563
    24  N   -0.307862
    25  C    0.041309
    26  C   -0.025284
    27  C   -0.023247
    28  C    0.067442
    29  C    0.078640
    30  C    0.051566
    31  C   -0.036432
    32  N   -0.299848
    33  C    0.081728
    34  C   -0.174732
    35  C    0.011195
    36  C    0.082057
    37  C    0.128638
    38  C    0.045657
    39  O   -0.192252
    40  C   -0.011092
    41  C    0.205817
    42  O   -0.235035
    43  O   -0.306687
    44  C    0.155305
    45  H   -0.024797
    46  H   -0.024345
    47  H   -0.048446
    48  H   -0.010849
    49  H   -0.010694
    50  H    0.022744
    51  H    0.015455
    52  H    0.010818
    53  H    0.020582
    54  H    0.053539
    55  H    0.003177
    56  H    0.011966
    57  H    0.004809
    58  H    0.023327
    59  H    0.034071
    60  H    0.036909
    61  H    0.031768
    62  H    0.028560
    63  H    0.008298
    64  H    0.008141
    65  H    0.019716
    66  H    0.014334
    67  H    0.002755
    68  H    0.004005
    69  H    0.003110
    70  H    0.014297
    71  H    0.024819
    72  H    0.033266
    73  H    0.044953
    74  H    0.005844
    75  H    0.043652
    76  H    0.031958
    77  H    0.041421
    78  H    0.036617
    79  H    0.062493
    80  Mg   0.843794
    81  C   -0.021227
    82  C   -0.087783
    83  C   -0.045098
    84  C   -0.064581
    85  N   -0.255324
    86  C   -0.052955
    87  C   -0.015338
    88  C   -0.090681
    89  C    0.047845
    90  C    0.114331
    91  C    0.062607
    92  C   -0.077171
    93  H    0.036546
    94  N   -0.423855
    95  C    0.165236
    96  C   -0.173371
    97  C   -0.006345
    98  C    0.153580
    99  C    0.098952
   100  C    0.016703
   101  O   -0.251319
   102  C    0.060696
   103  N   -0.350117
   104  C    0.039810
   105  C   -0.021042
   106  C   -0.034720
   107  C    0.085781
   108  C    0.072964
   109  C    0.033765
   110  C   -0.007547
   111  N   -0.324497
   112  C    0.080141
   113  C   -0.150347
   114  C    0.010839
   115  C    0.102073
   116  C    0.190445
   117  C    0.078209
   118  O   -0.190052
   119  C    0.031805
   120  C    0.201180
   121  O   -0.214696
   122  O   -0.321357
   123  C    0.193064
   124  H   -0.018597
   125  H   -0.014054
   126  H   -0.038823
   127  H   -0.001516
   128  H   -0.003236
   129  H    0.021846
   130  H    0.014543
   131  H    0.017064
   132  H    0.013899
   133  H    0.042355
   134  H    0.019208
   135  H    0.019104
   136  H    0.009784
   137  H    0.027469
   138  H    0.041614
   139  H    0.038606
   140  H    0.037750
   141  H    0.034747
   142  H    0.015325
   143  H    0.015040
   144  H    0.025819
   145  H    0.011355
   146  H    0.008108
   147  H    0.005460
   148  H    0.002812
   149  H    0.010349
   150  H    0.017900
   151  H    0.030528
   152  H    0.092179
   153  H    0.015663
   154  H    0.127258
   155  H    0.030717
   156  H   -0.002369
   157  H    0.039763
   158  H    0.053426
 Sum of Mulliken charges =  -0.00000

 Dipole moment (field-independent basis, Debye):
    X=              4.2587    Y=             -3.5177    Z=              5.6833  Tot=              7.9253
 Quadrupole moment (field-independent basis, Debye-Ang):
   XX=           -496.3024   YY=           -475.9882   ZZ=           -518.5399
   XY=            -25.0224   XZ=             -7.3628   YZ=            -41.4520

 Normal termination of Gaussian 16 at Thu Sep  9 00:56:36 2021.
