 Gaussian 16, Revision A.03,
 Gaussian 16:  ES64L-G16RevA.03 25-Dec-2016

 -----------------------------------
 #p cam-b3lyp/Def2SVP td=(nstates=5)
 -----------------------------------

 --------------------------------
 TDDFT excited states in gaussian
 --------------------------------
 Symbolic Z-matrix:
 Charge =  0 Multiplicity = 1

                         Standard orientation:
 ---------------------------------------------------------------------
 Center     Atomic      Atomic             Coordinates (Angstroms)
 Number     Number       Type             X           Y           Z
 ---------------------------------------------------------------------
      1         12           0        4.832251    0.983664    0.467504
      2          6           0        5.434290   -2.169689   -1.115571
      3          6           0        5.764437    2.464051   -2.462094
      4          6           0        4.746206    3.772154    1.975330
      5          6           0        5.052327   -0.675782    3.524213
      6          7           0        5.492679    0.146452   -1.472484
      7          6           0        5.623364   -1.079969   -1.968452
      8          6           0        5.906492   -1.099952   -3.500383
      9          6           0        6.538139    0.355375   -3.658638
     10          6           0        5.865650    1.041247   -2.482516
     11          6           0        8.048604    0.390029   -3.449361
     12          6           0        4.596786   -1.250992   -4.345124
     13          6           0        4.807769   -1.605349   -5.820004
     14          1           0        3.849936   -2.484960   -6.472835
     15          7           0        4.726129    2.822992   -0.245560
     16          6           0        5.137624    3.243478   -1.465867
     17          6           0        4.844618    4.691962   -1.518032
     18          6           0        4.404296    5.116321   -0.160044
     19          6           0        4.636000    3.910716    0.593751
     20          6           0        4.944595    5.507077   -2.770766
     21          6           0        3.870789    6.407209    0.375784
     22          8           0        3.768874    6.632694    1.630114
     23          6           0        3.549266    7.447939   -0.617466
     24          7           0        5.107873    1.527555    2.463964
     25          6           0        4.957830    2.796074    2.860614
     26          6           0        4.923052    2.899904    4.356591
     27          6           0        4.836809    1.401560    4.901826
     28          6           0        4.924321    0.652775    3.549076
     29          6           0        6.118094    3.611312    5.006040
     30          6           0        3.662595    1.066799    5.855542
     31          6           0        2.352997    1.140784    5.102828
     32          7           0        5.003113   -1.078897    1.121487
     33          6           0        5.102066   -1.539098    2.442508
     34          6           0        5.307597   -2.997730    2.377566
     35          6           0        5.330653   -3.284248    1.014034
     36          6           0        5.177186   -2.077285    0.273777
     37          6           0        5.502911   -3.862180    3.490675
     38          6           0        5.473903   -4.325995    0.009992
     39          8           0        5.537562   -5.555862    0.039432
     40          6           0        5.668787   -3.630613   -1.409266
     41          6           0        4.741637   -4.310410   -2.379615
     42          8           0        3.503730   -4.202428   -2.264313
     43          8           0        5.450538   -4.778276   -3.418413
     44          6           0        4.586481   -5.438770   -4.432961
     45          1           0        6.259350    3.039726   -3.246697
     46          1           0        4.610764    4.697972    2.538318
     47          1           0        5.045122   -1.271923    4.438553
     48          1           0        6.625428   -1.854581   -3.819898
     49          1           0        6.240469    0.828674   -4.594107
     50          1           0        8.424297   -0.570918   -3.098140
     51          1           0        8.220986    1.163028   -2.700195
     52          1           0        8.557078    0.729125   -4.352270
     53          1           0        4.125070   -0.274485   -4.454577
     54          1           0        3.926925   -1.981985   -3.890965
     55          1           0        5.826991   -1.944946   -6.006472
     56          1           0        4.714877   -0.691830   -6.407418
     57          1           0        5.450797    4.960059   -3.565169
     58          1           0        5.606665    6.345012   -2.553426
     59          1           0        3.973470    5.880597   -3.095928
     60          1           0        4.445803    7.689323   -1.188870
     61          1           0        3.097242    8.267005   -0.059205
     62          1           0        2.830167    7.044796   -1.331134
     63          1           0        4.045521    3.452389    4.689944
     64          1           0        5.726191    1.119773    5.465980
     65          1           0        5.836766    4.463833    5.624723
     66          1           0        6.802544    3.912263    4.213419
     67          1           0        6.757290    2.970159    5.612478
     68          1           0        3.610120    1.796352    6.662974
     69          1           0        3.743255    0.077833    6.306864
     70          1           0        2.113669    2.203115    5.134552
     71          1           0        1.588183    0.552925    5.611446
     72          1           0        2.479830    0.866481    4.055375
     73          1           0        4.895154   -4.746690    3.300299
     74          1           0        5.215773   -3.377555    4.423571
     75          1           0        6.576584   -4.037350    3.424356
     76          1           0        6.715350   -3.762707   -1.681991
     77          1           0        4.972300   -6.448348   -4.574847
     78          1           0        4.566301   -4.778312   -5.300021
     79          1           0        3.561181   -5.651249   -4.128081
     80         12           0       -5.676738   -0.000436   -0.222979
     81          6           0       -2.938706   -2.133227    0.689970
     82          6           0       -3.456209    2.588605   -0.249215
     83          6           0       -8.134507    1.973510   -0.583967
     84          6           0       -7.820832   -2.473358    0.974209
     85          7           0       -3.504552    0.090050    0.184095
     86          6           0       -2.558352   -0.794403    0.461198
     87          6           0       -1.114265   -0.226856    0.416030
     88          6           0       -1.455047    1.319309    0.684579
     89          6           0       -2.882565    1.352675    0.142582
     90          6           0       -1.495992    1.679003    2.160487
     91          6           0       -0.435438   -0.430685   -0.983852
     92          6           0        1.074209   -0.181527   -1.008890
     93          1           0        1.902018   -1.010053   -1.881108
     94          7           0       -5.732872    1.876562   -0.865058
     95          6           0       -4.733532    2.782400   -0.819488
     96          6           0       -5.284329    4.018477   -1.396472
     97          6           0       -6.739414    3.817033   -1.634947
     98          6           0       -6.933792    2.526908   -1.004163
     99          6           0       -4.432669    5.205751   -1.740657
    100          6           0       -7.785778    4.653654   -2.306811
    101          8           0       -9.034935    4.391391   -2.189976
    102          6           0       -7.310408    5.843082   -3.028453
    103          7           0       -7.676381   -0.122172    0.332858
    104          6           0       -8.544786    0.851527    0.007767
    105          6           0       -9.968880    0.421265    0.267087
    106          6           0       -9.890851   -1.139187    0.608348
    107          6           0       -8.358565   -1.329621    0.573113
    108          6           0      -10.689641    1.153960    1.398488
    109          6           0      -10.773787   -2.091074   -0.244300
    110          6           0      -10.273998   -2.119076   -1.670777
    111          7           0       -5.465420   -2.024978    0.501336
    112          6           0       -6.490273   -2.872111    0.976857
    113          6           0       -5.842789   -4.106593    1.466002
    114          6           0       -4.473355   -3.880829    1.260665
    115          6           0       -4.279433   -2.588232    0.702909
    116          6           0       -6.508783   -5.217582    2.056156
    117          6           0       -3.146949   -4.437845    1.398748
    118          8           0       -2.694871   -5.533031    1.730318
    119          6           0       -2.084956   -3.281138    1.152605
    120          6           0       -1.040220   -3.803712    0.204997
    121          8           0       -1.337704   -4.090873   -0.967892
    122          8           0        0.173261   -3.673063    0.771359
    123          6           0        1.243723   -4.167705   -0.134863
    124          1           0       -2.892841    3.503741   -0.064704
    125          1           0       -9.026120    2.570720   -0.788545
    126          1           0       -8.427762   -3.331095    1.271853
    127          1           0       -0.454404   -0.601880    1.189154
    128          1           0       -0.810691    1.972732    0.102176
    129          1           0       -1.405273    0.806606    2.790444
    130          1           0       -2.451049    2.162499    2.319043
    131          1           0       -0.735715    2.432251    2.386140
    132          1           0       -0.768480    0.365054   -1.662551
    133          1           0       -0.646779   -1.408472   -1.371007
    134          1           0        1.501806   -0.139298    0.000228
    135          1           0        1.254644    0.815362   -1.418367
    136          1           0       -3.431534    5.124036   -1.299673
    137          1           0       -4.878478    6.073986   -1.243379
    138          1           0       -4.390775    5.396787   -2.815093
    139          1           0       -6.774902    6.492899   -2.340394
    140          1           0       -8.193222    6.261458   -3.515772
    141          1           0       -6.587727    5.525607   -3.788437
    142          1           0      -10.580977    0.557691   -0.615988
    143          1           0      -10.209693   -1.347035    1.640328
    144          1           0      -11.628490    1.641400    1.074391
    145          1           0      -10.009803    1.881557    1.821522
    146          1           0      -10.937384    0.539604    2.262424
    147          1           0      -11.801431   -1.721457   -0.282690
    148          1           0      -10.810444   -3.105305    0.139090
    149          1           0      -10.738781   -1.232564   -2.112541
    150          1           0      -10.600100   -3.027536   -2.173168
    151          1           0       -9.187878   -1.976090   -1.710129
    152          1           0       -6.068515   -6.108072    1.627560
    153          1           0       -7.581462   -5.178396    1.878347
    154          1           0       -6.261045   -5.056820    3.108793
    155          1           0       -1.661657   -3.013435    2.121479
    156          1           0        1.808470   -4.923092    0.420232
    157          1           0        1.795719   -3.267475   -0.464466
    158          1           0        0.939526   -4.731200   -1.009155
 ---------------------------------------------------------------------

 SCF Done:  E(RCAM-B3LYP) =  -4069.81812774     A.U. after   19 cycles

 Excitation energies and oscillator strengths:

 Excited State   1:      Singlet-A      1.6496 eV  751.62 nm  f=0.0049  <S**2>=0.000
     309 -> 315        0.12427
     310 -> 316       -0.11168
     311 -> 313        0.50815
     312 -> 314       -0.46320
 This state for optimization and/or second-order correction.
 Total Energy, E(TD-HF/TD-DFT) =  -4069.75750742
 Copying the excited state density for this state as the 1-particle RhoCI density.

 Excited State   2:      Singlet-A      1.6973 eV  730.47 nm  f=0.7007  <S**2>=0.000
     309 -> 315        0.12130
     310 -> 316        0.13171
     311 -> 313        0.46102
     312 -> 314        0.50592

 Excited State   3:      Singlet-A      2.1816 eV  568.31 nm  f=0.1120  <S**2>=0.000
     310 -> 314        0.64189
     312 -> 316       -0.26990

 Excited State   4:      Singlet-A      2.1914 eV  565.77 nm  f=0.0910  <S**2>=0.000
     309 -> 313        0.63998
     311 -> 315       -0.27616

 Excited State   5:      Singlet-A      2.3112 eV  536.46 nm  f=0.0000  <S**2>=0.000
     312 -> 313        0.70628

 The electronic state is 1-A.
 Alpha  occ. eigenvalues --  -46.88245 -46.87322 -19.26988 -19.24692 -19.20059
 Alpha  occ. eigenvalues --  -19.19260 -19.18680 -19.18450 -19.17941 -19.17545
 Alpha  occ. eigenvalues --  -14.42848 -14.42158 -14.41871 -14.41020 -14.39834
 Alpha  occ. eigenvalues --  -14.39018 -14.39007 -14.38246 -10.39972 -10.37895
 Alpha  occ. eigenvalues --  -10.35891 -10.35135 -10.34903 -10.33688 -10.32101
 Alpha  occ. eigenvalues --  -10.31814 -10.31357 -10.30996 -10.30938 -10.30928
 Alpha  occ. eigenvalues --  -10.30644 -10.30607 -10.30332 -10.30057 -10.30055
 Alpha  occ. eigenvalues --  -10.29993 -10.29853 -10.29662 -10.29560 -10.29163
 Alpha  occ. eigenvalues --  -10.29148 -10.29130 -10.29064 -10.28839 -10.28827
 Alpha  occ. eigenvalues --  -10.28488 -10.28290 -10.28264 -10.28215 -10.28127
 Alpha  occ. eigenvalues --  -10.28022 -10.28018 -10.27878 -10.27873 -10.27858
 Alpha  occ. eigenvalues --  -10.27817 -10.27755 -10.27729 -10.27650 -10.27336
 Alpha  occ. eigenvalues --  -10.27267 -10.27236 -10.27137 -10.27127 -10.27117
 Alpha  occ. eigenvalues --  -10.27075 -10.26855 -10.26562 -10.26524 -10.26411
 Alpha  occ. eigenvalues --  -10.26342 -10.26248 -10.26224 -10.26111 -10.25918
 Alpha  occ. eigenvalues --  -10.25754 -10.25650 -10.25613 -10.25544 -10.25274
 Alpha  occ. eigenvalues --  -10.25214 -10.25170 -10.25094 -10.24518 -10.24498
 Alpha  occ. eigenvalues --  -10.24350  -3.16943  -3.16072  -1.91826  -1.91412
 Alpha  occ. eigenvalues --   -1.91255  -1.90955  -1.90543  -1.90380  -1.17371
 Alpha  occ. eigenvalues --   -1.15113  -1.09161  -1.08096  -1.07663  -1.07580
 Alpha  occ. eigenvalues --   -1.06708  -1.05682  -1.04995  -1.04177  -1.04136
 Alpha  occ. eigenvalues --   -1.03658  -1.03321  -1.02832  -1.02704  -1.01766
 Alpha  occ. eigenvalues --   -0.92453  -0.91523  -0.89926  -0.89571  -0.89166
 Alpha  occ. eigenvalues --   -0.88760  -0.88678  -0.88241  -0.88076  -0.87922
 Alpha  occ. eigenvalues --   -0.87699  -0.87453  -0.87333  -0.86835  -0.85382
 Alpha  occ. eigenvalues --   -0.84611  -0.84337  -0.83541  -0.83391  -0.83070
 Alpha  occ. eigenvalues --   -0.82667  -0.82222  -0.82047  -0.81035  -0.80791
 Alpha  occ. eigenvalues --   -0.79589  -0.79208  -0.78317  -0.77605  -0.77338
 Alpha  occ. eigenvalues --   -0.76803  -0.76341  -0.76329  -0.75287  -0.75128
 Alpha  occ. eigenvalues --   -0.74218  -0.73173  -0.72353  -0.72078  -0.71132
 Alpha  occ. eigenvalues --   -0.70289  -0.69472  -0.69276  -0.68434  -0.68072
 Alpha  occ. eigenvalues --   -0.67623  -0.67182  -0.66872  -0.65703  -0.65301
 Alpha  occ. eigenvalues --   -0.65045  -0.64842  -0.64674  -0.64398  -0.64032
 Alpha  occ. eigenvalues --   -0.63715  -0.62818  -0.61104  -0.60861  -0.60196
 Alpha  occ. eigenvalues --   -0.60036  -0.59419  -0.59415  -0.58959  -0.58583
 Alpha  occ. eigenvalues --   -0.58163  -0.57961  -0.57746  -0.57004  -0.56742
 Alpha  occ. eigenvalues --   -0.56595  -0.56481  -0.55950  -0.55852  -0.55815
 Alpha  occ. eigenvalues --   -0.55243  -0.55077  -0.54889  -0.54502  -0.54294
 Alpha  occ. eigenvalues --   -0.53713  -0.53683  -0.53659  -0.53500  -0.53445
 Alpha  occ. eigenvalues --   -0.53179  -0.52835  -0.52762  -0.52717  -0.52326
 Alpha  occ. eigenvalues --   -0.52311  -0.52229  -0.52023  -0.51851  -0.51621
 Alpha  occ. eigenvalues --   -0.51508  -0.51180  -0.50991  -0.50605  -0.50409
 Alpha  occ. eigenvalues --   -0.50327  -0.50222  -0.49950  -0.49674  -0.49662
 Alpha  occ. eigenvalues --   -0.49560  -0.49489  -0.49137  -0.49052  -0.48901
 Alpha  occ. eigenvalues --   -0.48860  -0.48733  -0.48697  -0.48118  -0.48094
 Alpha  occ. eigenvalues --   -0.47941  -0.47844  -0.47714  -0.47204  -0.47139
 Alpha  occ. eigenvalues --   -0.46980  -0.46790  -0.46639  -0.46577  -0.46309
 Alpha  occ. eigenvalues --   -0.46246  -0.46137  -0.45912  -0.45594  -0.45534
 Alpha  occ. eigenvalues --   -0.45088  -0.45018  -0.44902  -0.44841  -0.44561
 Alpha  occ. eigenvalues --   -0.44485  -0.44442  -0.44157  -0.43963  -0.43928
 Alpha  occ. eigenvalues --   -0.43784  -0.43757  -0.43693  -0.43463  -0.43412
 Alpha  occ. eigenvalues --   -0.43266  -0.43062  -0.43024  -0.42520  -0.42463
 Alpha  occ. eigenvalues --   -0.42419  -0.42267  -0.42141  -0.41917  -0.41642
 Alpha  occ. eigenvalues --   -0.41537  -0.41271  -0.41240  -0.41206  -0.41110
 Alpha  occ. eigenvalues --   -0.41050  -0.40959  -0.40653  -0.40583  -0.40436
 Alpha  occ. eigenvalues --   -0.40305  -0.40084  -0.39890  -0.39819  -0.39167
 Alpha  occ. eigenvalues --   -0.38840  -0.38144  -0.38037  -0.37742  -0.37691
 Alpha  occ. eigenvalues --   -0.37404  -0.37181  -0.36937  -0.36769  -0.36660
 Alpha  occ. eigenvalues --   -0.36073  -0.35191  -0.34715  -0.34575  -0.33891
 Alpha  occ. eigenvalues --   -0.33628  -0.32989  -0.32585  -0.31788  -0.31476
 Alpha  occ. eigenvalues --   -0.31004  -0.30576  -0.30531  -0.29883  -0.29744
 Alpha  occ. eigenvalues --   -0.29420  -0.29006  -0.28844  -0.24516  -0.23667
 Alpha  occ. eigenvalues --   -0.21544  -0.20782
 Alpha virt. eigenvalues --   -0.09205  -0.08445  -0.02178  -0.01356  -0.00502
 Alpha virt. eigenvalues --    0.00291   0.01735   0.02494   0.02644   0.03544
 Alpha virt. eigenvalues --    0.04117   0.04318   0.05207   0.05768   0.06240

 Mulliken charges:
               1
     1  Mg   0.819435
     2  C   -0.004331
     3  C   -0.092537
     4  C   -0.046161
     5  C   -0.061967
     6  N   -0.253591
     7  C   -0.057238
     8  C   -0.013577
     9  C   -0.087167
    10  C    0.046946
    11  C    0.104545
    12  C    0.047334
    13  C   -0.073030
    14  H    0.039393
    15  N   -0.432499
    16  C    0.167515
    17  C   -0.177428
    18  C   -0.004913
    19  C    0.148344
    20  C    0.110193
    21  C    0.010698
    22  O   -0.249367
    23  C    0.063012
    24  N   -0.337185
    25  C    0.041362
    26  C   -0.028148
    27  C   -0.024192
    28  C    0.072458
    29  C    0.075887
    30  C    0.035119
    31  C   -0.005744
    32  N   -0.309857
    33  C    0.080299
    34  C   -0.168594
    35  C    0.008587
    36  C    0.081391
    37  C    0.127823
    38  C    0.043193
    39  O   -0.187162
    40  C   -0.007223
    41  C    0.221662
    42  O   -0.259928
    43  O   -0.302173
    44  C    0.154799
    45  H   -0.017333
    46  H   -0.016623
    47  H   -0.040519
    48  H    0.001087
    49  H   -0.003271
    50  H    0.025829
    51  H    0.017015
    52  H    0.017677
    53  H    0.012609
    54  H    0.046223
    55  H    0.018504
    56  H    0.018877
    57  H    0.006750
    58  H    0.027727
    59  H    0.038919
    60  H    0.038619
    61  H    0.035978
    62  H    0.029723
    63  H    0.016016
    64  H    0.010656
    65  H    0.023808
    66  H    0.012914
    67  H    0.005738
    68  H    0.007429
    69  H    0.006610
    70  H    0.008170
    71  H    0.020047
    72  H    0.026877
    73  H    0.049310
    74  H    0.010676
    75  H    0.046649
    76  H    0.037491
    77  H    0.046128
    78  H    0.048769
    79  H    0.056937
    80  Mg   0.836668
    81  C   -0.015442
    82  C   -0.088368
    83  C   -0.046285
    84  C   -0.066108
    85  N   -0.254118
    86  C   -0.049647
    87  C   -0.019123
    88  C   -0.090959
    89  C    0.045087
    90  C    0.112695
    91  C    0.082056
    92  C   -0.130780
    93  H    0.065717
    94  N   -0.423309
    95  C    0.162201
    96  C   -0.175196
    97  C   -0.008708
    98  C    0.151900
    99  C    0.099626
   100  C    0.014952
   101  O   -0.254083
   102  C    0.061510
   103  N   -0.350316
   104  C    0.037230
   105  C   -0.019533
   106  C   -0.034780
   107  C    0.089367
   108  C    0.073969
   109  C    0.034924
   110  C   -0.007531
   111  N   -0.324232
   112  C    0.079006
   113  C   -0.163885
   114  C    0.002899
   115  C    0.095618
   116  C    0.131554
   117  C    0.041498
   118  O   -0.185976
   119  C    0.002922
   120  C    0.211178
   121  O   -0.254002
   122  O   -0.310849
   123  C    0.149858
   124  H   -0.019743
   125  H   -0.016598
   126  H   -0.041221
   127  H    0.001869
   128  H   -0.004852
   129  H    0.022330
   130  H    0.013627
   131  H    0.018590
   132  H    0.008406
   133  H    0.041466
   134  H    0.034877
   135  H    0.026400
   136  H    0.008037
   137  H    0.025494
   138  H    0.037804
   139  H    0.037859
   140  H    0.035426
   141  H    0.033034
   142  H    0.013738
   143  H    0.011900
   144  H    0.024371
   145  H    0.011523
   146  H    0.005053
   147  H    0.005581
   148  H    0.003380
   149  H    0.010532
   150  H    0.017383
   151  H    0.030591
   152  H    0.046287
   153  H    0.007719
   154  H    0.046394
   155  H    0.033037
   156  H    0.042157
   157  H    0.058509
   158  H    0.051832
 Sum of Mulliken charges =  -0.00000

 Dipole moment (field-independent basis, Debye):
    X=              4.5186    Y=              6.7388    Z=             -2.2283  Tot=              8.4140
 Quadrupole moment (field-independent basis, Debye-Ang):
   XX=           -488.5776   YY=           -550.2955   ZZ=           -471.7850
   XY=             26.0160   XZ=            -29.5198   YZ=            -10.2880

 Normal termination of Gaussian 16 at Fri Sep 10 18:51:32 2021.
