 Gaussian 16, Revision A.03,
 Gaussian 16:  ES64L-G16RevA.03 25-Dec-2016

 -----------------------------------
 #p cam-b3lyp/Def2SVP td=(nstates=5)
 -----------------------------------

 --------------------------------
 TDDFT excited states in gaussian
 --------------------------------
 Symbolic Z-matrix:
 Charge =  0 Multiplicity = 1

                         Standard orientation:
 ---------------------------------------------------------------------
 Center     Atomic      Atomic             Coordinates (Angstroms)
 Number     Number       Type             X           Y           Z
 ---------------------------------------------------------------------
      1         12           0        5.054961    1.246679    0.263497
      2          6           0        6.116321   -2.112599   -0.369739
      3          6           0        5.836054    1.947489   -2.983321
      4          6           0        4.556190    4.309199    0.918337
      5          6           0        5.436908    0.570260    3.660883
      6          7           0        5.864064   -0.008054   -1.371020
      7          6           0        6.171903   -1.294767   -1.500539
      8          6           0        6.486850   -1.709914   -2.968815
      9          6           0        6.916188   -0.287105   -3.546122
     10          6           0        6.131750    0.605425   -2.600621
     11          6           0        8.402969    0.012606   -3.384389
     12          6           0        5.228040   -2.272972   -3.710498
     13          6           0        5.516189   -2.999124   -5.027702
     14          1           0        4.701739   -4.150740   -5.385194
     15          7           0        4.712540    2.775022   -0.940565
     16          6           0        5.087763    2.883980   -2.237724
     17          6           0        4.600112    4.203465   -2.693615
     18          6           0        4.077671    4.931360   -1.503944
     19          6           0        4.456746    4.033195   -0.443293
     20          6           0        4.613405    4.634922   -4.127986
     21          6           0        3.361235    6.235259   -1.346787
     22          8           0        3.203346    6.791461   -0.206487
     23          6           0        2.920781    6.896631   -2.588411
     24          7           0        5.211905    2.367627    2.017486
     25          6           0        4.881187    3.663425    2.040210
     26          6           0        4.801444    4.182027    3.445426
     27          6           0        4.910103    2.903184    4.395430
     28          6           0        5.127505    1.820472    3.309731
     29          6           0        5.873938    5.205638    3.842904
     30          6           0        3.773311    2.695140    5.427341
     31          6           0        2.481851    2.371767    4.709944
     32          7           0        5.493326   -0.501390    1.473099
     33          6           0        5.626974   -0.549347    2.868274
     34          6           0        6.031817   -1.923730    3.216470
     35          6           0        6.122242   -2.579689    1.990344
     36          6           0        5.820180   -1.665647    0.940782
     37          6           0        6.320626   -2.401112    4.525336
     38          6           0        6.427761   -3.833721    1.321077
     39          8           0        6.658783   -4.983695    1.697483
     40          6           0        6.554914   -3.550144   -0.240731
     41          6           0        5.750055   -4.598108   -0.959954
     42          8           0        4.506908   -4.632864   -0.856308
     43          8           0        6.537818   -5.239764   -1.836453
     44          6           0        5.793715   -6.273300   -2.604742
     45          1           0        6.263568    2.338904   -3.908506
     46          1           0        4.283455    5.329037    1.197595
     47          1           0        5.492503    0.263233    4.706874
     48          1           0        7.308922   -2.418042   -3.074531
     49          1           0        6.575940   -0.144509   -4.571607
     50          1           0        8.899466   -0.747951   -2.781923
     51          1           0        8.452166    0.982566   -2.889163
     52          1           0        8.878800    0.147784   -4.356031
     53          1           0        4.629294   -1.442174   -4.083780
     54          1           0        4.655419   -2.929639   -3.054587
     55          1           0        6.575991   -3.234395   -5.129562
     56          1           0        5.311168   -2.311822   -5.848544
     57          1           0        5.206200    3.959731   -4.743823
     58          1           0        5.149704    5.582704   -4.170429
     59          1           0        3.607209    4.763688   -4.527136
     60          1           0        3.787438    7.086515   -3.221971
     61          1           0        2.349253    7.770357   -2.277271
     62          1           0        2.278711    6.212658   -3.144177
     63          1           0        3.849731    4.680486    3.624885
     64          1           0        5.817807    2.918115    4.999188
     65          1           0        5.465617    6.151707    4.199179
     66          1           0        6.526985    5.360102    2.984439
     67          1           0        6.582256    4.857208    4.594102
     68          1           0        3.604569    3.609544    5.995087
     69          1           0        3.979386    1.895913    6.139396
     70          1           0        2.098552    3.356009    4.443144
     71          1           0        1.794444    1.853354    5.379220
     72          1           0        2.666812    1.831414    3.781346
     73          1           0        5.843939   -3.377975    4.605815
     74          1           0        5.950456   -1.715718    5.287447
     75          1           0        7.409319   -2.438752    4.490890
     76          1           0        7.615141   -3.609249   -0.484755
     77          1           0        6.317146   -7.218652   -2.461347
     78          1           0        5.701201   -5.895572   -3.623157
     79          1           0        4.801112   -6.529124   -2.232409
     80         12           0       -5.217885   -1.323478    0.097861
     81          6           0       -5.834511    2.054466   -0.945346
     82          6           0       -4.673305   -0.097467    3.233927
     83          6           0       -4.231662   -4.216366    0.949942
     84          6           0       -4.687808   -2.115021   -3.254478
     85          7           0       -5.276602    0.731432    0.914046
     86          6           0       -5.582928    1.928391    0.436766
     87          6           0       -5.700542    3.039633    1.514195
     88          6           0       -4.770406    2.378492    2.644075
     89          6           0       -4.939462    0.907426    2.269843
     90          6           0       -3.301544    2.741555    2.502677
     91          6           0       -7.173713    3.227687    2.020587
     92          6           0       -7.414626    4.496700    2.841141
     93          1           0       -8.698611    5.179182    2.706732
     94          7           0       -5.027497   -2.136925    1.898041
     95          6           0       -4.835045   -1.490405    3.066903
     96          6           0       -4.738805   -2.538134    4.095089
     97          6           0       -4.725310   -3.862165    3.415765
     98          6           0       -4.638090   -3.446662    2.030186
     99          6           0       -4.750168   -2.238289    5.565934
    100          6           0       -4.769084   -5.269595    3.929019
    101          8           0       -4.506476   -6.270567    3.172758
    102          6           0       -5.036894   -5.435703    5.365048
    103          7           0       -4.349289   -2.886295   -0.963021
    104          6           0       -4.066435   -4.055968   -0.363180
    105          6           0       -3.707115   -5.115998   -1.376888
    106          6           0       -4.043717   -4.477435   -2.803950
    107          6           0       -4.474418   -3.064256   -2.353603
    108          6           0       -2.252898   -5.586490   -1.360391
    109          6           0       -4.998943   -5.282096   -3.727386
    110          6           0       -6.387709   -5.314165   -3.131002
    111          7           0       -5.426701   -0.300457   -1.793659
    112          6           0       -5.125556   -0.808884   -3.076198
    113          6           0       -5.319878    0.294830   -4.038730
    114          6           0       -5.701382    1.383710   -3.240414
    115          6           0       -5.722397    0.992026   -1.874535
    116          6           0       -5.097758    0.222868   -5.442869
    117          6           0       -6.080803    2.778246   -3.241544
    118          8           0       -6.318711    3.613074   -4.113436
    119          6           0       -6.061318    3.308471   -1.743255
    120          6           0       -7.335843    4.070487   -1.503597
    121          8           0       -8.434069    3.487278   -1.522788
    122          8           0       -7.034288    5.310965   -1.078574
    123          6           0       -8.266151    6.102035   -0.816745
    124          1           0       -4.261287    0.203999    4.197388
    125          1           0       -3.987127   -5.256496    1.177550
    126          1           0       -4.637654   -2.307446   -4.328314
    127          1           0       -5.300252    4.002282    1.219492
    128          1           0       -5.164178    2.566372    3.639559
    129          1           0       -3.107989    3.290608    1.593161
    130          1           0       -2.765275    1.801637    2.498600
    131          1           0       -2.959140    3.280042    3.390997
    132          1           0       -7.390331    2.467553    2.782171
    133          1           0       -7.865756    3.189932    1.201882
    134          1           0       -6.587898    5.211318    2.747387
    135          1           0       -7.418895    4.229291    3.900609
    136          1           0       -4.600669   -1.168929    5.759627
    137          1           0       -3.865213   -2.718746    5.997058
    138          1           0       -5.640785   -2.623045    6.067370
    139          1           0       -4.276080   -4.910329    5.937417
    140          1           0       -5.117936   -6.512677    5.524535
    141          1           0       -5.994091   -4.957026    5.600081
    142          1           0       -4.311037   -6.004326   -1.238122
    143          1           0       -3.139308   -4.349918   -3.416836
    144          1           0       -2.148909   -6.677859   -1.211433
    145          1           0       -1.727753   -5.045100   -0.584731
    146          1           0       -1.676036   -5.334961   -2.248737
    147          1           0       -4.668579   -6.321152   -3.800720
    148          1           0       -5.055184   -4.890017   -4.737389
    149          1           0       -6.328917   -6.137508   -2.412844
    150          1           0       -7.130575   -5.513964   -3.900579
    151          1           0       -6.594583   -4.397948   -2.565848
    152          1           0       -5.929191    0.728285   -5.915909
    153          1           0       -5.014489   -0.808267   -5.779885
    154          1           0       -4.146862    0.757186   -5.517539
    155          1           0       -5.179334    3.940157   -1.630745
    156          1           0       -8.192472    7.015437   -1.415027
    157          1           0       -8.316212    6.222107    0.281811
    158          1           0       -9.207255    5.694854   -1.167423
 ---------------------------------------------------------------------

 SCF Done:  E(RCAM-B3LYP) =  -4069.81178885     A.U. after   19 cycles

 Excitation energies and oscillator strengths:

 Excited State   1:      Singlet-A      1.6590 eV  747.36 nm  f=0.0390  <S**2>=0.000
     309 -> 315       -0.11012
     310 -> 316       -0.12946
     311 -> 313       -0.44496
     312 -> 314        0.52348
 This state for optimization and/or second-order correction.
 Total Energy, E(TD-HF/TD-DFT) =  -4069.75082307
 Copying the excited state density for this state as the 1-particle RhoCI density.

 Excited State   2:      Singlet-A      1.6946 eV  731.66 nm  f=0.6786  <S**2>=0.000
     309 -> 315        0.13655
     310 -> 316       -0.11563
     311 -> 313        0.52171
     312 -> 314        0.44349

 Excited State   3:      Singlet-A      2.1834 eV  567.85 nm  f=0.0335  <S**2>=0.000
     309 -> 313        0.25994
     310 -> 314        0.58929
     311 -> 315       -0.10860
     312 -> 316        0.24738

 Excited State   4:      Singlet-A      2.1953 eV  564.78 nm  f=0.1502  <S**2>=0.000
     309 -> 313        0.58542
     310 -> 314       -0.25709
     311 -> 315       -0.25671
     312 -> 316       -0.11374

 Excited State   5:      Singlet-A      2.4870 eV  498.53 nm  f=0.0000  <S**2>=0.000
     312 -> 313        0.70709

 The electronic state is 1-A.
 Alpha  occ. eigenvalues --  -46.87881 -46.87493 -19.26348 -19.26252 -19.19086
 Alpha  occ. eigenvalues --  -19.19058 -19.18872 -19.18531 -19.18232 -19.17934
 Alpha  occ. eigenvalues --  -14.42531 -14.42332 -14.41544 -14.41181 -14.39482
 Alpha  occ. eigenvalues --  -14.39184 -14.38669 -14.38443 -10.39146 -10.38984
 Alpha  occ. eigenvalues --  -10.35501 -10.35207 -10.34453 -10.34112 -10.31743
 Alpha  occ. eigenvalues --  -10.31672 -10.31484 -10.31163 -10.30980 -10.30855
 Alpha  occ. eigenvalues --  -10.30649 -10.30594 -10.30305 -10.30236 -10.30219
 Alpha  occ. eigenvalues --  -10.30024 -10.29951 -10.29711 -10.29706 -10.29331
 Alpha  occ. eigenvalues --  -10.29265 -10.29253 -10.28818 -10.28612 -10.28569
 Alpha  occ. eigenvalues --  -10.28540 -10.28437 -10.28245 -10.28182 -10.27986
 Alpha  occ. eigenvalues --  -10.27865 -10.27851 -10.27804 -10.27653 -10.27651
 Alpha  occ. eigenvalues --  -10.27591 -10.27509 -10.27507 -10.27483 -10.27323
 Alpha  occ. eigenvalues --  -10.27322 -10.27311 -10.27308 -10.27225 -10.27120
 Alpha  occ. eigenvalues --  -10.26927 -10.26779 -10.26564 -10.26414 -10.26400
 Alpha  occ. eigenvalues --  -10.26292 -10.26238 -10.26117 -10.25975 -10.25927
 Alpha  occ. eigenvalues --  -10.25845 -10.25780 -10.25770 -10.25561 -10.25003
 Alpha  occ. eigenvalues --  -10.24964 -10.24904 -10.24879 -10.24728 -10.24583
 Alpha  occ. eigenvalues --  -10.24503  -3.16624  -3.16243  -1.91506  -1.91125
 Alpha  occ. eigenvalues --   -1.91092  -1.90934  -1.90714  -1.90551  -1.16697
 Alpha  occ. eigenvalues --   -1.16544  -1.08689  -1.08548  -1.07274  -1.06843
 Alpha  occ. eigenvalues --   -1.06779  -1.06708  -1.04660  -1.04333  -1.03851
 Alpha  occ. eigenvalues --   -1.03495  -1.03317  -1.02867  -1.02496  -1.01944
 Alpha  occ. eigenvalues --   -0.92049  -0.91838  -0.89650  -0.89321  -0.89260
 Alpha  occ. eigenvalues --   -0.88998  -0.88415  -0.88017  -0.87948  -0.87755
 Alpha  occ. eigenvalues --   -0.87667  -0.87520  -0.87328  -0.86961  -0.85058
 Alpha  occ. eigenvalues --   -0.84845  -0.84082  -0.83674  -0.83033  -0.82752
 Alpha  occ. eigenvalues --   -0.82719  -0.82495  -0.81663  -0.81468  -0.80672
 Alpha  occ. eigenvalues --   -0.80297  -0.78861  -0.78486  -0.77316  -0.77022
 Alpha  occ. eigenvalues --   -0.76991  -0.76737  -0.75997  -0.75695  -0.75011
 Alpha  occ. eigenvalues --   -0.74577  -0.72861  -0.72545  -0.71758  -0.71393
 Alpha  occ. eigenvalues --   -0.70075  -0.69568  -0.68947  -0.68675  -0.67718
 Alpha  occ. eigenvalues --   -0.67441  -0.67286  -0.67052  -0.65366  -0.65125
 Alpha  occ. eigenvalues --   -0.64942  -0.64715  -0.64616  -0.64502  -0.64388
 Alpha  occ. eigenvalues --   -0.64020  -0.62379  -0.62146  -0.60516  -0.60166
 Alpha  occ. eigenvalues --   -0.59876  -0.59645  -0.59077  -0.58827  -0.58589
 Alpha  occ. eigenvalues --   -0.58268  -0.57657  -0.57432  -0.57403  -0.57064
 Alpha  occ. eigenvalues --   -0.56382  -0.56064  -0.56049  -0.55758  -0.55588
 Alpha  occ. eigenvalues --   -0.55456  -0.55307  -0.55074  -0.54631  -0.54320
 Alpha  occ. eigenvalues --   -0.53967  -0.53761  -0.53382  -0.53284  -0.53070
 Alpha  occ. eigenvalues --   -0.53003  -0.52992  -0.52811  -0.52758  -0.52608
 Alpha  occ. eigenvalues --   -0.52506  -0.52236  -0.51995  -0.51783  -0.51679
 Alpha  occ. eigenvalues --   -0.51513  -0.51289  -0.51061  -0.50616  -0.50307
 Alpha  occ. eigenvalues --   -0.50160  -0.49979  -0.49814  -0.49655  -0.49579
 Alpha  occ. eigenvalues --   -0.49330  -0.49283  -0.49166  -0.49060  -0.48958
 Alpha  occ. eigenvalues --   -0.48673  -0.48562  -0.48504  -0.48419  -0.48190
 Alpha  occ. eigenvalues --   -0.48152  -0.47775  -0.47435  -0.47371  -0.46940
 Alpha  occ. eigenvalues --   -0.46898  -0.46626  -0.46548  -0.46448  -0.46398
 Alpha  occ. eigenvalues --   -0.46256  -0.46111  -0.45914  -0.45901  -0.45690
 Alpha  occ. eigenvalues --   -0.45319  -0.44968  -0.44660  -0.44585  -0.44373
 Alpha  occ. eigenvalues --   -0.44322  -0.44253  -0.44161  -0.44082  -0.43977
 Alpha  occ. eigenvalues --   -0.43911  -0.43790  -0.43576  -0.43474  -0.43421
 Alpha  occ. eigenvalues --   -0.43219  -0.43116  -0.42827  -0.42807  -0.42752
 Alpha  occ. eigenvalues --   -0.42743  -0.42369  -0.42133  -0.41804  -0.41786
 Alpha  occ. eigenvalues --   -0.41614  -0.41516  -0.41302  -0.41224  -0.40972
 Alpha  occ. eigenvalues --   -0.40883  -0.40811  -0.40691  -0.40561  -0.40533
 Alpha  occ. eigenvalues --   -0.40305  -0.40299  -0.40080  -0.39626  -0.39243
 Alpha  occ. eigenvalues --   -0.38594  -0.38143  -0.37827  -0.37510  -0.37434
 Alpha  occ. eigenvalues --   -0.37337  -0.37090  -0.37045  -0.36799  -0.36644
 Alpha  occ. eigenvalues --   -0.36287  -0.36040  -0.34370  -0.34092  -0.33840
 Alpha  occ. eigenvalues --   -0.33747  -0.33270  -0.33013  -0.31404  -0.31118
 Alpha  occ. eigenvalues --   -0.31088  -0.30804  -0.30092  -0.29842  -0.29518
 Alpha  occ. eigenvalues --   -0.29395  -0.29170  -0.29067  -0.24165  -0.23871
 Alpha  occ. eigenvalues --   -0.21211  -0.20952
 Alpha virt. eigenvalues --   -0.08850  -0.08632  -0.01837  -0.01508  -0.00121
 Alpha virt. eigenvalues --    0.00135   0.02124   0.02347   0.03015   0.03385
 Alpha virt. eigenvalues --    0.04635   0.04891   0.05032   0.05275   0.06099

 Mulliken charges:
               1
     1  Mg   0.838644
     2  C   -0.002829
     3  C   -0.093718
     4  C   -0.046210
     5  C   -0.064263
     6  N   -0.256727
     7  C   -0.052519
     8  C   -0.014007
     9  C   -0.087063
    10  C    0.046279
    11  C    0.104737
    12  C    0.053436
    13  C   -0.071696
    14  H    0.035522
    15  N   -0.433213
    16  C    0.168451
    17  C   -0.176658
    18  C   -0.003808
    19  C    0.148636
    20  C    0.109998
    21  C    0.012227
    22  O   -0.250189
    23  C    0.062328
    24  N   -0.341007
    25  C    0.041190
    26  C   -0.028181
    27  C   -0.023769
    28  C    0.074421
    29  C    0.076137
    30  C    0.035365
    31  C   -0.004353
    32  N   -0.310445
    33  C    0.080196
    34  C   -0.169857
    35  C    0.008562
    36  C    0.082864
    37  C    0.127329
    38  C    0.046257
    39  O   -0.188129
    40  C   -0.005414
    41  C    0.213033
    42  O   -0.257196
    43  O   -0.304721
    44  C    0.157661
    45  H   -0.017182
    46  H   -0.017103
    47  H   -0.041968
    48  H    0.001080
    49  H   -0.003773
    50  H    0.025538
    51  H    0.016487
    52  H    0.016948
    53  H    0.011299
    54  H    0.043821
    55  H    0.018134
    56  H    0.018204
    57  H    0.006038
    58  H    0.027103
    59  H    0.040680
    60  H    0.037538
    61  H    0.036028
    62  H    0.032604
    63  H    0.015702
    64  H    0.009665
    65  H    0.023024
    66  H    0.013042
    67  H    0.004841
    68  H    0.005931
    69  H    0.004695
    70  H    0.007873
    71  H    0.015752
    72  H    0.029934
    73  H    0.047736
    74  H    0.008519
    75  H    0.046135
    76  H    0.035312
    77  H    0.043237
    78  H    0.046285
    79  H    0.053542
    80  Mg   0.838070
    81  C   -0.017110
    82  C   -0.087891
    83  C   -0.044383
    84  C   -0.064799
    85  N   -0.254673
    86  C   -0.049992
    87  C   -0.015113
    88  C   -0.090568
    89  C    0.046079
    90  C    0.114363
    91  C    0.062563
    92  C   -0.077731
    93  H    0.034304
    94  N   -0.423753
    95  C    0.163463
    96  C   -0.174262
    97  C   -0.006999
    98  C    0.152270
    99  C    0.099251
   100  C    0.016027
   101  O   -0.252210
   102  C    0.061174
   103  N   -0.350010
   104  C    0.038384
   105  C   -0.020448
   106  C   -0.034213
   107  C    0.088883
   108  C    0.072687
   109  C    0.034737
   110  C   -0.007529
   111  N   -0.323898
   112  C    0.078225
   113  C   -0.163813
   114  C    0.001729
   115  C    0.096112
   116  C    0.131662
   117  C    0.041648
   118  O   -0.189206
   119  C    0.001141
   120  C    0.211071
   121  O   -0.251181
   122  O   -0.305556
   123  C    0.152210
   124  H   -0.019942
   125  H   -0.014403
   126  H   -0.041269
   127  H   -0.000516
   128  H   -0.004781
   129  H    0.023122
   130  H    0.014810
   131  H    0.016191
   132  H    0.013744
   133  H    0.037443
   134  H    0.021041
   135  H    0.019377
   136  H    0.008322
   137  H    0.026587
   138  H    0.039546
   139  H    0.038515
   140  H    0.036531
   141  H    0.033316
   142  H    0.013897
   143  H    0.012274
   144  H    0.025214
   145  H    0.016144
   146  H    0.006679
   147  H    0.006183
   148  H    0.002708
   149  H    0.011060
   150  H    0.017212
   151  H    0.030000
   152  H    0.045448
   153  H    0.008201
   154  H    0.045487
   155  H    0.034709
   156  H    0.043508
   157  H    0.049614
   158  H    0.053312
 Sum of Mulliken charges =  -0.00000

 Dipole moment (field-independent basis, Debye):
    X=              3.6022    Y=              2.6782    Z=              0.5677  Tot=              4.5245
 Quadrupole moment (field-independent basis, Debye-Ang):
   XX=           -524.5931   YY=           -541.4361   ZZ=           -453.8598
   XY=             19.1203   XZ=            -54.4687   YZ=             36.4652

 Normal termination of Gaussian 16 at Fri Sep 10 15:04:30 2021.
