 Gaussian 16, Revision A.03,
 Gaussian 16:  ES64L-G16RevA.03 25-Dec-2016

 -----------------------------------
 #p cam-b3lyp/Def2SVP td=(nstates=5)
 -----------------------------------

 --------------------------------
 TDDFT excited states in gaussian
 --------------------------------
 Symbolic Z-matrix:
 Charge =  0 Multiplicity = 1

                         Standard orientation:
 ---------------------------------------------------------------------
 Center     Atomic      Atomic             Coordinates (Angstroms)
 Number     Number       Type             X           Y           Z
 ---------------------------------------------------------------------
      1         12           0        6.768489    0.461800    0.999233
      2          6           0        7.253435   -2.453041   -1.020852
      3          6           0        8.016749    2.287942   -1.598865
      4          6           0        6.775756    2.985862    2.919045
      5          6           0        6.644096   -1.655794    3.764370
      6          7           0        7.505876   -0.122523   -1.004631
      7          6           0        7.582848   -1.265794   -1.678558
      8          6           0        7.974618   -1.075972   -3.174505
      9          6           0        8.720228    0.328899   -3.063143
     10          6           0        8.015488    0.881371   -1.836750
     11          6           0       10.209947    0.205654   -2.759746
     12          6           0        6.722423   -0.987373   -4.110395
     13          6           0        7.013969   -1.129546   -5.607106
     14          1           0        6.044839   -1.816926   -6.447131
     15          7           0        6.848578    2.390573    0.579388
     16          6           0        7.377349    2.956123   -0.532295
     17          6           0        7.194990    4.414967   -0.373555
     18          6           0        6.688927    4.662925    1.005036
     19          6           0        6.776852    3.341648    1.572374
     20          6           0        7.444946    5.399995   -1.474006
     21          6           0        6.213054    5.897103    1.703950
     22          8           0        6.036696    5.936841    2.969609
     23          6           0        6.041245    7.099892    0.869191
     24          7           0        6.936746    0.670853    3.069407
     25          6           0        6.850815    1.872302    3.650889
     26          6           0        6.714790    1.749887    5.139663
     27          6           0        6.480371    0.198454    5.436068
     28          6           0        6.611532   -0.340492    3.990176
     29          6           0        7.907889    2.252410    5.964282
     30          6           0        5.218581   -0.178724    6.252182
     31          6           0        3.976148    0.117486    5.442418
     32          7           0        6.740873   -1.683221    1.329643
     33          6           0        6.709616   -2.345629    2.565325
     34          6           0        6.812758   -3.789384    2.284250
     35          6           0        6.914194   -3.866064    0.896563
     36          6           0        6.903202   -2.552011    0.347531
     37          6           0        6.863110   -4.826304    3.257233
     38          6           0        7.054100   -4.751214   -0.248336
     39          8           0        7.025876   -5.972232   -0.408991
     40          6           0        7.401886   -3.866663   -1.526006
     41          6           0        6.500931   -4.311504   -2.645696
     42          8           0        5.269047   -4.119810   -2.590179
     43          8           0        7.247733   -4.673187   -3.700217
     44          6           0        6.414159   -5.097537   -4.856606
     45          1           0        8.608037    2.933120   -2.251602
     46          1           0        6.667320    3.823281    3.611439
     47          1           0        6.526988   -2.381399    4.571363
     48          1           0        8.658158   -1.830327   -3.564564
     49          1           0        8.526689    0.962074   -3.928796
     50          1           0       10.488208   -0.825398   -2.541975
     51          1           0       10.383028    0.838663   -1.889208
     52          1           0       10.806145    0.634704   -3.565500
     53          1           0        6.332168    0.030206   -4.093240
     54          1           0        5.969898   -1.720711   -3.818426
     55          1           0        8.016678   -1.520347   -5.782489
     56          1           0        7.030766   -0.132780   -6.047986
     57          1           0        7.966568    4.940029   -2.312389
     58          1           0        8.148578    6.137158   -1.087739
     59          1           0        6.529816    5.898037   -1.794665
     60          1           0        6.992195    7.350029    0.398366
     61          1           0        5.610492    7.859207    1.520913
     62          1           0        5.348649    6.871179    0.058666
     63          1           0        5.857795    2.316234    5.501927
     64          1           0        7.303450   -0.238804    6.001770
     65          1           0        7.644956    3.021295    6.691185
     66          1           0        8.668322    2.612490    5.271913
     67          1           0        8.452908    1.475588    6.499930
     68          1           0        5.160597    0.421322    7.159667
     69          1           0        5.194046   -1.228076    6.546305
     70          1           0        3.813001    1.178801    5.626336
     71          1           0        3.135611   -0.475278    5.804827
     72          1           0        4.158672   -0.003869    4.374502
     73          1           0        6.208152   -5.617951    2.893510
     74          1           0        6.544765   -4.467060    4.235600
     75          1           0        7.923180   -5.077969    3.229457
     76          1           0        8.453158   -4.042254   -1.752098
     77          1           0        6.734879   -6.102315   -5.131916
     78          1           0        6.505259   -4.313506   -5.608537
     79          1           0        5.356648   -5.267962   -4.651752
     80         12           0       -6.335126    0.476141   -0.823826
     81          6           0       -8.667990   -1.693137    0.828758
     82          6           0       -8.733170    2.898953   -0.705528
     83          6           0       -4.477635    2.265596   -2.671796
     84          6           0       -4.598788   -2.377369   -1.817952
     85          7           0       -8.394377    0.481641   -0.016526
     86          6           0       -9.151684   -0.381118    0.644130
     87          6           0      -10.469661    0.217517    1.204597
     88          6           0      -10.627766    1.447841    0.184703
     89          6           0       -9.159045    1.652586   -0.180849
     90          6           0      -11.388951    1.087049   -1.080122
     91          6           0      -10.318275    0.714562    2.685150
     92          6           0      -11.636709    1.024973    3.397292
     93          1           0      -11.742438    0.733413    4.824280
     94          7           0       -6.356298    2.432690   -1.155544
     95          6           0       -7.410678    3.266714   -1.037332
     96          6           0       -6.913545    4.599415   -1.412735
     97          6           0       -5.522116    4.455136   -1.920509
     98          6           0       -5.402810    3.011312   -1.955911
     99          6           0       -7.709379    5.854361   -1.200206
    100          6           0       -4.476890    5.451558   -2.321561
    101          8           0       -3.421555    5.100828   -2.958815
    102          6           0       -4.769374    6.862295   -2.028733
    103          7           0       -4.887137    0.009723   -2.240904
    104          6           0       -4.190502    0.977678   -2.861934
    105          6           0       -3.022338    0.403501   -3.627504
    106          6           0       -2.937080   -1.133056   -3.192430
    107          6           0       -4.179991   -1.206642   -2.278566
    108          6           0       -3.114670    0.496600   -5.150389
    109          6           0       -1.576897   -1.631337   -2.631812
    110          6           0       -1.296589   -0.975391   -1.298944
    111          7           0       -6.455666   -1.640992   -0.409983
    112          6           0       -5.646717   -2.663525   -0.952296
    113          6           0       -6.183137   -3.949496   -0.461404
    114          6           0       -7.289665   -3.584281    0.320081
    115          6           0       -7.444839   -2.171837    0.300093
    116          6           0       -5.680689   -5.240136   -0.789887
    117          6           0       -8.368078   -4.073193    1.148752
    118          8           0       -8.690130   -5.173366    1.595566
    119          6           0       -9.383975   -2.879504    1.412295
    120          6           0       -9.699142   -2.853918    2.882846
    121          8           0       -8.814182   -2.585413    3.714336
    122          8           0      -11.031808   -2.935439    3.049356
    123          6           0      -11.394757   -2.902748    4.491233
    124          1           0       -9.487866    3.654906   -0.924290
    125          1           0       -3.743495    2.843132   -3.238334
    126          1           0       -4.054911   -3.306070   -2.003405
    127          1           0      -11.330994   -0.435988    1.135234
    128          1           0      -11.022277    2.328012    0.685702
    129          1           0      -11.596197    0.028801   -1.137590
    130          1           0      -10.755574    1.393730   -1.902207
    131          1           0      -12.297679    1.690719   -1.158337
    132          1           0       -9.866100    1.714700    2.682627
    133          1           0       -9.750037    0.014262    3.265933
    134          1           0      -12.501812    0.621161    2.857416
    135          1           0      -11.792673    2.106397    3.382841
    136          1           0       -8.757296    5.631108   -0.964798
    137          1           0       -7.752062    6.373014   -2.164080
    138          1           0       -7.257921    6.519278   -0.460788
    139          1           0       -5.692800    7.150310   -2.525518
    140          1           0       -3.867783    7.411503   -2.306899
    141          1           0       -4.945220    6.966999   -0.952291
    142          1           0       -2.098972    0.898356   -3.352502
    143          1           0       -3.129529   -1.807681   -4.039593
    144          1           0       -2.259571    1.029220   -5.607762
    145          1           0       -4.046593    0.982740   -5.406761
    146          1           0       -3.202178   -0.457715   -5.666940
    147          1           0       -0.762322   -1.338974   -3.299022
    148          1           0       -1.526502   -2.708738   -2.514946
    149          1           0       -0.867225   -0.010346   -1.584273
    150          1           0       -0.588789   -1.567225   -0.722052
    151          1           0       -2.227280   -0.774433   -0.755733
    152          1           0       -5.662399   -5.810351    0.129358
    153          1           0       -4.692263   -5.179124   -1.240528
    154          1           0       -6.438810   -5.568097   -1.506101
    155          1           0      -10.271760   -3.065097    0.806506
    156          1           0      -11.991099   -3.798392    4.690970
    157          1           0      -11.885090   -1.924535    4.653774
    158          1           0      -10.593880   -3.016763    5.212375
 ---------------------------------------------------------------------

 SCF Done:  E(RCAM-B3LYP) =  -4069.81205563     A.U. after   19 cycles

 Excitation energies and oscillator strengths:

 Excited State   1:      Singlet-A      1.6646 eV  744.82 nm  f=0.0107  <S**2>=0.000
     309 -> 315       -0.10820
     310 -> 316        0.13269
     311 -> 313       -0.43228
     312 -> 314        0.53350
 This state for optimization and/or second-order correction.
 Total Energy, E(TD-HF/TD-DFT) =  -4069.75088192
 Copying the excited state density for this state as the 1-particle RhoCI density.

 Excited State   2:      Singlet-A      1.6891 eV  734.00 nm  f=0.7324  <S**2>=0.000
     309 -> 315        0.13841
     310 -> 316        0.11142
     311 -> 313        0.53232
     312 -> 314        0.43138

 Excited State   3:      Singlet-A      2.1848 eV  567.48 nm  f=0.0826  <S**2>=0.000
     309 -> 313        0.11119
     310 -> 314        0.63317
     312 -> 316       -0.26817

 Excited State   4:      Singlet-A      2.1936 eV  565.22 nm  f=0.1148  <S**2>=0.000
     309 -> 313        0.63101
     310 -> 314       -0.11013
     311 -> 315       -0.27466

 Excited State   5:      Singlet-A      2.6895 eV  461.00 nm  f=0.0000  <S**2>=0.000
     312 -> 313        0.70695

 The electronic state is 1-A.
 Alpha  occ. eigenvalues --  -46.87739 -46.87536 -19.26304 -19.26261 -19.19066
 Alpha  occ. eigenvalues --  -19.19043 -19.18734 -19.18633 -19.18129 -19.17941
 Alpha  occ. eigenvalues --  -14.42397 -14.42380 -14.41388 -14.41224 -14.39341
 Alpha  occ. eigenvalues --  -14.39233 -14.38532 -14.38475 -10.39096 -10.38995
 Alpha  occ. eigenvalues --  -10.35366 -10.35314 -10.34352 -10.34118 -10.31712
 Alpha  occ. eigenvalues --  -10.31678 -10.31358 -10.31188 -10.30919 -10.30859
 Alpha  occ. eigenvalues --  -10.30515 -10.30447 -10.30271 -10.30233 -10.30135
 Alpha  occ. eigenvalues --  -10.29998 -10.29859 -10.29753 -10.29569 -10.29318
 Alpha  occ. eigenvalues --  -10.29280 -10.29188 -10.28723 -10.28626 -10.28581
 Alpha  occ. eigenvalues --  -10.28546 -10.28311 -10.28293 -10.28081 -10.28045
 Alpha  occ. eigenvalues --  -10.27883 -10.27733 -10.27670 -10.27552 -10.27519
 Alpha  occ. eigenvalues --  -10.27418 -10.27398 -10.27380 -10.27373 -10.27367
 Alpha  occ. eigenvalues --  -10.27354 -10.27352 -10.27308 -10.27210 -10.27133
 Alpha  occ. eigenvalues --  -10.26946 -10.26704 -10.26607 -10.26362 -10.26309
 Alpha  occ. eigenvalues --  -10.26196 -10.26081 -10.25953 -10.25940 -10.25808
 Alpha  occ. eigenvalues --  -10.25783 -10.25777 -10.25686 -10.25364 -10.25275
 Alpha  occ. eigenvalues --  -10.24777 -10.24755 -10.24726 -10.24569 -10.24566
 Alpha  occ. eigenvalues --  -10.24395  -3.16482  -3.16286  -1.91363  -1.91168
 Alpha  occ. eigenvalues --   -1.90950  -1.90792  -1.90757  -1.90594  -1.16652
 Alpha  occ. eigenvalues --   -1.16554  -1.08592  -1.08549  -1.07134  -1.06889
 Alpha  occ. eigenvalues --   -1.06851  -1.06663  -1.04529  -1.04380  -1.03700
 Alpha  occ. eigenvalues --   -1.03539  -1.03174  -1.02908  -1.02352  -1.01986
 Alpha  occ. eigenvalues --   -0.91926  -0.91870  -0.89447  -0.89323  -0.89155
 Alpha  occ. eigenvalues --   -0.89048  -0.88215  -0.88042  -0.87811  -0.87661
 Alpha  occ. eigenvalues --   -0.87621  -0.87563  -0.87200  -0.87021  -0.84944
 Alpha  occ. eigenvalues --   -0.84895  -0.83863  -0.83687  -0.82885  -0.82822
 Alpha  occ. eigenvalues --   -0.82603  -0.82543  -0.81560  -0.81483  -0.80551
 Alpha  occ. eigenvalues --   -0.80330  -0.78730  -0.78521  -0.77161  -0.77021
 Alpha  occ. eigenvalues --   -0.76898  -0.76767  -0.75886  -0.75730  -0.74835
 Alpha  occ. eigenvalues --   -0.74658  -0.72714  -0.72567  -0.71620  -0.71463
 Alpha  occ. eigenvalues --   -0.69822  -0.69533  -0.68828  -0.68718  -0.67587
 Alpha  occ. eigenvalues --   -0.67486  -0.67181  -0.67107  -0.65250  -0.65164
 Alpha  occ. eigenvalues --   -0.64808  -0.64640  -0.64575  -0.64533  -0.64201
 Alpha  occ. eigenvalues --   -0.64026  -0.62277  -0.62160  -0.60370  -0.60224
 Alpha  occ. eigenvalues --   -0.59762  -0.59690  -0.58934  -0.58865  -0.58452
 Alpha  occ. eigenvalues --   -0.58299  -0.57559  -0.57445  -0.57250  -0.57099
 Alpha  occ. eigenvalues --   -0.56255  -0.56083  -0.55967  -0.55784  -0.55460
 Alpha  occ. eigenvalues --   -0.55354  -0.55287  -0.55096  -0.54484  -0.54331
 Alpha  occ. eigenvalues --   -0.53863  -0.53814  -0.53236  -0.53174  -0.53106
 Alpha  occ. eigenvalues --   -0.53032  -0.52880  -0.52787  -0.52691  -0.52583
 Alpha  occ. eigenvalues --   -0.52351  -0.52144  -0.51857  -0.51739  -0.51576
 Alpha  occ. eigenvalues --   -0.51564  -0.51147  -0.51063  -0.50486  -0.50380
 Alpha  occ. eigenvalues --   -0.49956  -0.49873  -0.49853  -0.49699  -0.49465
 Alpha  occ. eigenvalues --   -0.49391  -0.49165  -0.49099  -0.49057  -0.48993
 Alpha  occ. eigenvalues --   -0.48557  -0.48452  -0.48401  -0.48380  -0.48250
 Alpha  occ. eigenvalues --   -0.48232  -0.47640  -0.47477  -0.47238  -0.47007
 Alpha  occ. eigenvalues --   -0.46739  -0.46571  -0.46521  -0.46448  -0.46301
 Alpha  occ. eigenvalues --   -0.46135  -0.46111  -0.45953  -0.45786  -0.45700
 Alpha  occ. eigenvalues --   -0.45134  -0.45062  -0.44536  -0.44445  -0.44411
 Alpha  occ. eigenvalues --   -0.44348  -0.44082  -0.44042  -0.44021  -0.43968
 Alpha  occ. eigenvalues --   -0.43913  -0.43843  -0.43463  -0.43425  -0.43335
 Alpha  occ. eigenvalues --   -0.43271  -0.42975  -0.42823  -0.42777  -0.42691
 Alpha  occ. eigenvalues --   -0.42584  -0.42381  -0.41948  -0.41787  -0.41654
 Alpha  occ. eigenvalues --   -0.41547  -0.41494  -0.41329  -0.41090  -0.40874
 Alpha  occ. eigenvalues --   -0.40820  -0.40754  -0.40635  -0.40572  -0.40504
 Alpha  occ. eigenvalues --   -0.40307  -0.40211  -0.40141  -0.39351  -0.39189
 Alpha  occ. eigenvalues --   -0.38403  -0.38189  -0.37723  -0.37553  -0.37254
 Alpha  occ. eigenvalues --   -0.37225  -0.37113  -0.37084  -0.36704  -0.36660
 Alpha  occ. eigenvalues --   -0.36155  -0.36075  -0.34231  -0.34128  -0.33780
 Alpha  occ. eigenvalues --   -0.33762  -0.33133  -0.33051  -0.31266  -0.31192
 Alpha  occ. eigenvalues --   -0.30981  -0.30853  -0.29991  -0.29845  -0.29384
 Alpha  occ. eigenvalues --   -0.29265  -0.29216  -0.29091  -0.24025  -0.23912
 Alpha  occ. eigenvalues --   -0.21068  -0.20992
 Alpha virt. eigenvalues --   -0.08714  -0.08673  -0.01688  -0.01560   0.00006
 Alpha virt. eigenvalues --    0.00069   0.02253   0.02329   0.03177   0.03363
 Alpha virt. eigenvalues --    0.04761   0.04842   0.05090   0.05262   0.06191

 Mulliken charges:
               1
     1  Mg   0.838646
     2  C   -0.003454
     3  C   -0.094070
     4  C   -0.045658
     5  C   -0.063763
     6  N   -0.256797
     7  C   -0.052733
     8  C   -0.013952
     9  C   -0.087013
    10  C    0.046259
    11  C    0.104800
    12  C    0.053473
    13  C   -0.071614
    14  H    0.035196
    15  N   -0.433201
    16  C    0.168561
    17  C   -0.176881
    18  C   -0.003708
    19  C    0.148827
    20  C    0.110092
    21  C    0.012672
    22  O   -0.249590
    23  C    0.062223
    24  N   -0.341164
    25  C    0.041318
    26  C   -0.028194
    27  C   -0.023999
    28  C    0.074821
    29  C    0.076188
    30  C    0.035073
    31  C   -0.004587
    32  N   -0.310365
    33  C    0.080192
    34  C   -0.169711
    35  C    0.008204
    36  C    0.082681
    37  C    0.127335
    38  C    0.045773
    39  O   -0.188718
    40  C   -0.005238
    41  C    0.213095
    42  O   -0.258227
    43  O   -0.304523
    44  C    0.157876
    45  H   -0.017597
    46  H   -0.016707
    47  H   -0.041273
    48  H    0.000843
    49  H   -0.003995
    50  H    0.025431
    51  H    0.016561
    52  H    0.016642
    53  H    0.011354
    54  H    0.043215
    55  H    0.018068
    56  H    0.018275
    57  H    0.005781
    58  H    0.026726
    59  H    0.040411
    60  H    0.037108
    61  H    0.035640
    62  H    0.032498
    63  H    0.016791
    64  H    0.009409
    65  H    0.023235
    66  H    0.012408
    67  H    0.004745
    68  H    0.006429
    69  H    0.004895
    70  H    0.008891
    71  H    0.018913
    72  H    0.028722
    73  H    0.047508
    74  H    0.009417
    75  H    0.045934
    76  H    0.035187
    77  H    0.043111
    78  H    0.046426
    79  H    0.052849
    80  Mg   0.837869
    81  C   -0.017034
    82  C   -0.088051
    83  C   -0.045521
    84  C   -0.064643
    85  N   -0.254595
    86  C   -0.049823
    87  C   -0.015114
    88  C   -0.090456
    89  C    0.045670
    90  C    0.114468
    91  C    0.062570
    92  C   -0.077753
    93  H    0.034674
    94  N   -0.423367
    95  C    0.162780
    96  C   -0.174915
    97  C   -0.008107
    98  C    0.152074
    99  C    0.099463
   100  C    0.015426
   101  O   -0.253931
   102  C    0.061341
   103  N   -0.350189
   104  C    0.037595
   105  C   -0.019522
   106  C   -0.035532
   107  C    0.089238
   108  C    0.074057
   109  C    0.034864
   110  C   -0.008273
   111  N   -0.324196
   112  C    0.078700
   113  C   -0.162591
   114  C    0.002133
   115  C    0.096410
   116  C    0.131224
   117  C    0.042491
   118  O   -0.187871
   119  C    0.000874
   120  C    0.211250
   121  O   -0.250993
   122  O   -0.305680
   123  C    0.152090
   124  H   -0.020088
   125  H   -0.016099
   126  H   -0.039104
   127  H   -0.000810
   128  H   -0.004564
   129  H    0.022350
   130  H    0.014359
   131  H    0.015959
   132  H    0.013928
   133  H    0.037699
   134  H    0.020669
   135  H    0.019461
   136  H    0.008576
   137  H    0.025650
   138  H    0.039502
   139  H    0.038066
   140  H    0.035507
   141  H    0.034062
   142  H    0.014258
   143  H    0.012438
   144  H    0.024218
   145  H    0.011003
   146  H    0.005658
   147  H    0.007652
   148  H    0.006175
   149  H    0.009566
   150  H    0.021876
   151  H    0.028480
   152  H    0.046321
   153  H    0.009976
   154  H    0.046673
   155  H    0.034807
   156  H    0.043781
   157  H    0.049356
   158  H    0.053540
 Sum of Mulliken charges =  -0.00000

 Dipole moment (field-independent basis, Debye):
    X=              0.1311    Y=              6.9007    Z=             -3.2925  Tot=              7.6470
 Quadrupole moment (field-independent basis, Debye-Ang):
   XX=           -432.6614   YY=           -540.6946   ZZ=           -481.4255
   XY=            -25.1858   XZ=            -15.7654   YZ=             -0.1228

 Normal termination of Gaussian 16 at Sat Sep 11 04:33:53 2021.
