 Gaussian 16, Revision A.03,
 Gaussian 16:  ES64L-G16RevA.03 25-Dec-2016

 -----------------------------------
 #p cam-b3lyp/Def2SVP td=(nstates=5)
 -----------------------------------

 --------------------------------
 TDDFT excited states in gaussian
 --------------------------------
 Symbolic Z-matrix:
 Charge =  0 Multiplicity = 1

                         Standard orientation:
 ---------------------------------------------------------------------
 Center     Atomic      Atomic             Coordinates (Angstroms)
 Number     Number       Type             X           Y           Z
 ---------------------------------------------------------------------
      1         12           0       -4.941398   -1.292000    0.470519
      2          6           0       -5.548881    2.232952    0.336764
      3          6           0       -6.030146   -1.451607   -2.759375
      4          6           0       -4.845306   -4.452799    0.708717
      5          6           0       -4.994444   -1.020009    3.944547
      6          7           0       -5.669112    0.262549   -0.927499
      7          6           0       -5.796801    1.584720   -0.875249
      8          6           0       -6.146157    2.226531   -2.251259
      9          6           0       -6.813088    0.961868   -2.956827
     10          6           0       -6.103687   -0.143588   -2.194830
     11          6           0       -8.313354    0.845770   -2.707375
     12          6           0       -4.871864    2.707641   -3.023556
     13          6           0       -5.139979    3.631635   -4.215069
     14          1           0       -4.194198    4.700328   -4.499220
     15          7           0       -4.903340   -2.682001   -0.932798
     16          6           0       -5.376101   -2.569290   -2.197345
     17          6           0       -5.114675   -3.871319   -2.847775
     18          6           0       -4.623995   -4.811796   -1.802389
     19          6           0       -4.798380   -4.017184   -0.613457
     20          6           0       -5.285586   -4.106034   -4.317281
     21          6           0       -4.093496   -6.209268   -1.863833
     22          8           0       -3.941385   -6.925738   -0.815928
     23          6           0       -3.836564   -6.755871   -3.208546
     24          7           0       -5.140320   -2.601148    2.084271
     25          6           0       -4.998478   -3.921365    1.923362
     26          6           0       -4.900433   -4.625017    3.244422
     27          6           0       -4.760501   -3.478281    4.346770
     28          6           0       -4.892063   -2.243758    3.421073
     29          6           0       -6.079933   -5.538576    3.605255
     30          6           0       -3.539267   -3.561173    5.296578
     31          6           0       -2.265560   -3.323061    4.516789
     32          7           0       -5.042240    0.325987    1.913777
     33          6           0       -5.074141    0.208813    3.310890
     34          6           0       -5.253109    1.567726    3.854392
     35          6           0       -5.330004    2.384349    2.727867
     36          6           0       -5.233200    1.583024    1.554495
     37          6           0       -5.382263    1.904468    5.230748
     38          6           0       -5.496141    3.744597    2.242089
     39          8           0       -5.533849    4.856068    2.771903
     40          6           0       -5.766733    3.687064    0.673875
     41          6           0       -4.869472    4.702466    0.020277
     42          8           0       -3.630116    4.556316    0.022095
     43          8           0       -5.613601    5.552918   -0.703287
     44          6           0       -4.781678    6.568705   -1.402025
     45          1           0       -6.570289   -1.657924   -3.685453
     46          1           0       -4.703926   -5.527660    0.839571
     47          1           0       -4.935366   -0.847560    5.020755
     48          1           0       -6.863138    3.046218   -2.201506
     49          1           0       -6.566111    0.910082   -4.017036
     50          1           0       -8.654049    1.580796   -1.978277
     51          1           0       -8.468249   -0.165118   -2.329743
     52          1           0       -8.867483    0.903707   -3.644585
     53          1           0       -4.425002    1.859969   -3.543003
     54          1           0       -4.168312    3.190225   -2.344252
     55          1           0       -6.159383    4.018210   -4.198187
     56          1           0       -5.091133    3.036187   -5.126801
     57          1           0       -5.814986   -3.282835   -4.795428
     58          1           0       -5.954146   -4.959576   -4.427748
     59          1           0       -4.337263   -4.315365   -4.812453
     60          1           0       -4.761865   -6.743400   -3.784923
     61          1           0       -3.377040   -7.731448   -3.053830
     62          1           0       -3.141427   -6.097535   -3.730397
     63          1           0       -4.020392   -5.265763    3.281837
     64          1           0       -5.618565   -3.450041    5.018784
     65          1           0       -5.788936   -6.569219    3.809707
     66          1           0       -6.804251   -5.490593    2.792635
     67          1           0       -6.679066   -5.199400    4.449895
     68          1           0       -3.466151   -4.556193    5.734225
     69          1           0       -3.580335   -2.841430    6.114218
     70          1           0       -2.046363   -4.306472    4.102436
     71          1           0       -1.467647   -2.993431    5.183039
     72          1           0       -2.432542   -2.646176    3.678678
     73          1           0       -4.765844    2.789606    5.387358
     74          1           0       -5.064375    1.082007    5.871144
     75          1           0       -6.454092    2.091979    5.293039
     76          1           0       -6.821365    3.919212    0.529028
     77          1           0       -5.153067    7.548828   -1.102586
     78          1           0       -4.812623    6.318253   -2.462554
     79          1           0       -3.739990    6.638232   -1.086763
     80         12           0        5.554293   -0.115131   -0.266164
     81          6           0        3.907833    3.068311   -0.082135
     82          6           0        3.617869   -0.791346   -2.991526
     83          6           0        6.656899   -3.089282   -0.187828
     84          6           0        6.499555    0.337594    3.057576
     85          7           0        4.000594    1.065844   -1.307102
     86          6           0        3.502651    2.287043   -1.184353
     87          6           0        2.575732    2.723899   -2.350341
     88          6           0        2.125413    1.268374   -2.857818
     89          6           0        3.335456    0.461656   -2.391243
     90          6           0        0.893250    0.736936   -2.144610
     91          6           0        3.349749    3.507746   -3.467704
     92          6           0        2.459112    4.230021   -4.481049
     93          1           0        2.910948    5.511548   -5.015836
     94          7           0        5.565998   -1.517856   -1.670013
     95          6           0        4.721759   -1.628267   -2.717072
     96          6           0        5.136313   -2.839262   -3.442188
     97          6           0        6.189491   -3.525541   -2.645597
     98          6           0        6.162958   -2.731267   -1.433774
     99          6           0        4.601049   -3.199371   -4.797635
    100          6           0        7.065447   -4.709603   -2.922905
    101          8           0        7.742788   -5.278093   -1.995082
    102          6           0        7.034565   -5.241330   -4.293235
    103          7           0        6.267072   -1.314495    1.275209
    104          6           0        6.734414   -2.551059    1.029388
    105          6           0        7.444424   -3.115839    2.236577
    106          6           0        7.567890   -1.901266    3.269617
    107          6           0        6.794881   -0.820214    2.482746
    108          6           0        6.756791   -4.297325    2.920404
    109          6           0        8.991680   -1.561118    3.789043
    110          6           0        9.837331   -1.018911    2.659319
    111          7           0        5.432838    1.484190    1.181403
    112          6           0        5.867198    1.453649    2.524715
    113          6           0        5.467073    2.735302    3.140902
    114          6           0        4.802140    3.418592    2.111608
    115          6           0        4.771092    2.610962    0.942731
    116          6           0        5.685220    3.110509    4.496544
    117          6           0        4.110126    4.635121    1.751228
    118          8           0        3.903432    5.713796    2.305725
    119          6           0        3.389490    4.411133    0.352332
    120          6           0        3.694397    5.596300   -0.522273
    121          8           0        4.857787    5.820032   -0.900507
    122          8           0        2.538903    6.141642   -0.943932
    123          6           0        2.789315    7.314217   -1.823809
    124          1           0        2.905152   -1.193967   -3.711820
    125          1           0        7.147553   -4.064071   -0.137457
    126          1           0        6.843262    0.595312    4.061625
    127          1           0        1.707473    3.297960   -2.049780
    128          1           0        2.040509    1.236488   -3.940937
    129          1           0        0.592365    1.377319   -1.328810
    130          1           0        1.166712   -0.242849   -1.775445
    131          1           0        0.083674    0.573653   -2.861720
    132          1           0        3.845060    2.788151   -4.132220
    133          1           0        4.042369    4.203238   -3.035051
    134          1           0        1.419506    4.301420   -4.138895
    135          1           0        2.401788    3.622660   -5.387610
    136          1           0        3.721016   -2.597347   -5.055541
    137          1           0        4.218774   -4.223570   -4.728694
    138          1           0        5.365369   -3.159121   -5.576650
    139          1           0        6.017112   -5.530416   -4.545577
    140          1           0        7.791314   -6.027812   -4.318643
    141          1           0        7.315000   -4.439929   -4.985864
    142          1           0        8.438490   -3.457728    1.975717
    143          1           0        6.995739   -2.089421    4.189989
    144          1           0        7.397825   -5.196629    2.986833
    145          1           0        5.844706   -4.519396    2.382523
    146          1           0        6.389590   -4.099096    3.925923
    147          1           0        9.491361   -2.465718    4.144245
    148          1           0        8.994152   -0.849258    4.607721
    149          1           0       10.195384   -1.925359    2.162072
    150          1           0       10.664773   -0.429418    3.049012
    151          1           0        9.223349   -0.467672    1.937636
    152          1           0        6.023018    4.138250    4.484637
    153          1           0        6.410985    2.458225    4.977748
    154          1           0        4.678791    2.973842    4.901113
    155          1           0        2.321054    4.309888    0.546728
    156          1           0        2.250430    8.161337   -1.388280
    157          1           0        2.489405    6.994940   -2.839608
    158          1           0        3.799652    7.704207   -1.863685
 ---------------------------------------------------------------------

 SCF Done:  E(RCAM-B3LYP) =  -4069.81140530     A.U. after   19 cycles

 Excitation energies and oscillator strengths:

 Excited State   1:      Singlet-A      1.6557 eV  748.81 nm  f=0.0020  <S**2>=0.000
     309 -> 315        0.11499
     310 -> 316       -0.12350
     311 -> 313        0.46588
     312 -> 314        0.50521
 This state for optimization and/or second-order correction.
 Total Energy, E(TD-HF/TD-DFT) =  -4069.75055783
 Copying the excited state density for this state as the 1-particle RhoCI density.

 Excited State   2:      Singlet-A      1.6971 eV  730.55 nm  f=0.7150  <S**2>=0.000
     309 -> 315        0.13242
     310 -> 316        0.12092
     311 -> 313        0.50324
     312 -> 314       -0.46416

 Excited State   3:      Singlet-A      2.1825 eV  568.08 nm  f=0.0371  <S**2>=0.000
     309 -> 313        0.25197
     310 -> 314        0.59271
     311 -> 315       -0.10515
     312 -> 316        0.24860

 Excited State   4:      Singlet-A      2.1944 eV  564.99 nm  f=0.1486  <S**2>=0.000
     309 -> 313        0.58910
     310 -> 314       -0.24905
     311 -> 315       -0.25803
     312 -> 316       -0.10988

 Excited State   5:      Singlet-A      2.4404 eV  508.04 nm  f=0.0000  <S**2>=0.000
     312 -> 313        0.70693

 The electronic state is 1-A.
 Alpha  occ. eigenvalues --  -46.87974 -46.87458 -19.26428 -19.26025 -19.19171
 Alpha  occ. eigenvalues --  -19.18984 -19.18871 -19.18555 -19.18292 -19.17773
 Alpha  occ. eigenvalues --  -14.42633 -14.42289 -14.41614 -14.41160 -14.39580
 Alpha  occ. eigenvalues --  -14.39154 -14.38753 -14.38390 -10.39231 -10.38790
 Alpha  occ. eigenvalues --  -10.35620 -10.35237 -10.34515 -10.33942 -10.31815
 Alpha  occ. eigenvalues --  -10.31579 -10.31485 -10.31103 -10.31084 -10.30805
 Alpha  occ. eigenvalues --  -10.30735 -10.30666 -10.30372 -10.30192 -10.30147
 Alpha  occ. eigenvalues --  -10.30066 -10.29969 -10.29791 -10.29693 -10.29426
 Alpha  occ. eigenvalues --  -10.29253 -10.29202 -10.28973 -10.28833 -10.28538
 Alpha  occ. eigenvalues --  -10.28490 -10.28446 -10.28320 -10.28187 -10.27950
 Alpha  occ. eigenvalues --  -10.27905 -10.27899 -10.27794 -10.27754 -10.27693
 Alpha  occ. eigenvalues --  -10.27627 -10.27575 -10.27573 -10.27475 -10.27367
 Alpha  occ. eigenvalues --  -10.27353 -10.27304 -10.27274 -10.27258 -10.27217
 Alpha  occ. eigenvalues --  -10.27004 -10.26711 -10.26608 -10.26490 -10.26407
 Alpha  occ. eigenvalues --  -10.26301 -10.26290 -10.26177 -10.26006 -10.25933
 Alpha  occ. eigenvalues --  -10.25745 -10.25719 -10.25644 -10.25545 -10.25252
 Alpha  occ. eigenvalues --  -10.24986 -10.24947 -10.24790 -10.24654 -10.24603
 Alpha  occ. eigenvalues --  -10.24489  -3.16717  -3.16208  -1.91599  -1.91185
 Alpha  occ. eigenvalues --   -1.91091  -1.91027  -1.90679  -1.90516  -1.16778
 Alpha  occ. eigenvalues --   -1.16329  -1.08746  -1.08368  -1.07385  -1.06810
 Alpha  occ. eigenvalues --   -1.06791  -1.06652  -1.04763  -1.04281  -1.03928
 Alpha  occ. eigenvalues --   -1.03459  -1.03400  -1.02840  -1.02577  -1.01907
 Alpha  occ. eigenvalues --   -0.92134  -0.91744  -0.89663  -0.89399  -0.89308
 Alpha  occ. eigenvalues --   -0.88914  -0.88427  -0.88046  -0.88011  -0.87856
 Alpha  occ. eigenvalues --   -0.87584  -0.87483  -0.87455  -0.86957  -0.85186
 Alpha  occ. eigenvalues --   -0.84786  -0.84067  -0.83702  -0.83141  -0.82834
 Alpha  occ. eigenvalues --   -0.82782  -0.82443  -0.81741  -0.81352  -0.80764
 Alpha  occ. eigenvalues --   -0.80222  -0.78968  -0.78454  -0.77390  -0.77109
 Alpha  occ. eigenvalues --   -0.76949  -0.76679  -0.76092  -0.75601  -0.75037
 Alpha  occ. eigenvalues --   -0.74615  -0.72931  -0.72497  -0.71833  -0.71365
 Alpha  occ. eigenvalues --   -0.70035  -0.69598  -0.69065  -0.68619  -0.67806
 Alpha  occ. eigenvalues --   -0.67443  -0.67398  -0.67013  -0.65484  -0.65039
 Alpha  occ. eigenvalues --   -0.65014  -0.64788  -0.64560  -0.64428  -0.64414
 Alpha  occ. eigenvalues --   -0.64019  -0.62445  -0.62022  -0.60611  -0.60166
 Alpha  occ. eigenvalues --   -0.59998  -0.59565  -0.59147  -0.58782  -0.58661
 Alpha  occ. eigenvalues --   -0.58206  -0.57732  -0.57459  -0.57278  -0.57031
 Alpha  occ. eigenvalues --   -0.56469  -0.56143  -0.56003  -0.55688  -0.55636
 Alpha  occ. eigenvalues --   -0.55474  -0.55248  -0.55040  -0.54662  -0.54266
 Alpha  occ. eigenvalues --   -0.54106  -0.53685  -0.53464  -0.53408  -0.53076
 Alpha  occ. eigenvalues --   -0.53037  -0.52950  -0.52930  -0.52681  -0.52561
 Alpha  occ. eigenvalues --   -0.52495  -0.52242  -0.52036  -0.51821  -0.51672
 Alpha  occ. eigenvalues --   -0.51453  -0.51346  -0.50979  -0.50767  -0.50335
 Alpha  occ. eigenvalues --   -0.50182  -0.50093  -0.49791  -0.49700  -0.49694
 Alpha  occ. eigenvalues --   -0.49378  -0.49291  -0.49272  -0.48978  -0.48862
 Alpha  occ. eigenvalues --   -0.48747  -0.48622  -0.48586  -0.48330  -0.48201
 Alpha  occ. eigenvalues --   -0.48142  -0.47867  -0.47460  -0.47394  -0.46959
 Alpha  occ. eigenvalues --   -0.46938  -0.46759  -0.46515  -0.46514  -0.46346
 Alpha  occ. eigenvalues --   -0.46306  -0.46082  -0.45962  -0.45876  -0.45583
 Alpha  occ. eigenvalues --   -0.45341  -0.45026  -0.44731  -0.44682  -0.44300
 Alpha  occ. eigenvalues --   -0.44288  -0.44277  -0.44276  -0.44174  -0.43910
 Alpha  occ. eigenvalues --   -0.43897  -0.43730  -0.43642  -0.43564  -0.43320
 Alpha  occ. eigenvalues --   -0.43183  -0.43170  -0.42843  -0.42789  -0.42703
 Alpha  occ. eigenvalues --   -0.42630  -0.42384  -0.42164  -0.41860  -0.41775
 Alpha  occ. eigenvalues --   -0.41732  -0.41432  -0.41307  -0.41253  -0.41059
 Alpha  occ. eigenvalues --   -0.41013  -0.40775  -0.40715  -0.40551  -0.40505
 Alpha  occ. eigenvalues --   -0.40488  -0.40302  -0.40021  -0.39568  -0.39272
 Alpha  occ. eigenvalues --   -0.38624  -0.38175  -0.37979  -0.37475  -0.37464
 Alpha  occ. eigenvalues --   -0.37460  -0.37079  -0.36988  -0.36859  -0.36508
 Alpha  occ. eigenvalues --   -0.36348  -0.36001  -0.34453  -0.34045  -0.33925
 Alpha  occ. eigenvalues --   -0.33588  -0.33351  -0.32969  -0.31513  -0.31203
 Alpha  occ. eigenvalues --   -0.31113  -0.30761  -0.30151  -0.29669  -0.29620
 Alpha  occ. eigenvalues --   -0.29475  -0.29137  -0.28994  -0.24251  -0.23824
 Alpha  occ. eigenvalues --   -0.21295  -0.20915
 Alpha virt. eigenvalues --   -0.08941  -0.08588  -0.01919  -0.01487  -0.00233
 Alpha virt. eigenvalues --    0.00163   0.02058   0.02441   0.02802   0.03411
 Alpha virt. eigenvalues --    0.04521   0.04926   0.04952   0.05460   0.05933

 Mulliken charges:
               1
     1  Mg   0.837155
     2  C   -0.003624
     3  C   -0.095203
     4  C   -0.045546
     5  C   -0.063532
     6  N   -0.256749
     7  C   -0.052961
     8  C   -0.013639
     9  C   -0.086768
    10  C    0.045622
    11  C    0.104743
    12  C    0.053748
    13  C   -0.071520
    14  H    0.034999
    15  N   -0.433156
    16  C    0.167693
    17  C   -0.177974
    18  C   -0.004239
    19  C    0.148488
    20  C    0.110249
    21  C    0.012070
    22  O   -0.249044
    23  C    0.062813
    24  N   -0.341082
    25  C    0.041120
    26  C   -0.028220
    27  C   -0.024162
    28  C    0.074968
    29  C    0.076045
    30  C    0.034999
    31  C   -0.004500
    32  N   -0.310717
    33  C    0.080622
    34  C   -0.168881
    35  C    0.008943
    36  C    0.082922
    37  C    0.127051
    38  C    0.046756
    39  O   -0.186796
    40  C   -0.005562
    41  C    0.213500
    42  O   -0.257639
    43  O   -0.304718
    44  C    0.157138
    45  H   -0.017648
    46  H   -0.016479
    47  H   -0.040754
    48  H    0.001573
    49  H   -0.004706
    50  H    0.025841
    51  H    0.016793
    52  H    0.016811
    53  H    0.008999
    54  H    0.043121
    55  H    0.019125
    56  H    0.017467
    57  H    0.005609
    58  H    0.027300
    59  H    0.037890
    60  H    0.037597
    61  H    0.036059
    62  H    0.029886
    63  H    0.016820
    64  H    0.009853
    65  H    0.023528
    66  H    0.012545
    67  H    0.005046
    68  H    0.006713
    69  H    0.005125
    70  H    0.008949
    71  H    0.018574
    72  H    0.028582
    73  H    0.048936
    74  H    0.009482
    75  H    0.046346
    76  H    0.035489
    77  H    0.043909
    78  H    0.045514
    79  H    0.054458
    80  Mg   0.837551
    81  C   -0.016729
    82  C   -0.087853
    83  C   -0.045707
    84  C   -0.065380
    85  N   -0.254572
    86  C   -0.049028
    87  C   -0.015984
    88  C   -0.091078
    89  C    0.045887
    90  C    0.113064
    91  C    0.062598
    92  C   -0.077337
    93  H    0.033478
    94  N   -0.423431
    95  C    0.162779
    96  C   -0.175077
    97  C   -0.008143
    98  C    0.152002
    99  C    0.099737
   100  C    0.015319
   101  O   -0.253574
   102  C    0.061347
   103  N   -0.350083
   104  C    0.037353
   105  C   -0.019690
   106  C   -0.034785
   107  C    0.089141
   108  C    0.073791
   109  C    0.034835
   110  C   -0.007584
   111  N   -0.324308
   112  C    0.078858
   113  C   -0.163293
   114  C    0.003107
   115  C    0.095899
   116  C    0.131415
   117  C    0.043188
   118  O   -0.186448
   119  C    0.000351
   120  C    0.210527
   121  O   -0.252312
   122  O   -0.303226
   123  C    0.152733
   124  H   -0.021021
   125  H   -0.016048
   126  H   -0.040835
   127  H    0.004453
   128  H   -0.006115
   129  H    0.029255
   130  H    0.012996
   131  H    0.014548
   132  H    0.012994
   133  H    0.037589
   134  H    0.021905
   135  H    0.018064
   136  H    0.007593
   137  H    0.025214
   138  H    0.039032
   139  H    0.037814
   140  H    0.035911
   141  H    0.033520
   142  H    0.014016
   143  H    0.012065
   144  H    0.024707
   145  H    0.011934
   146  H    0.005149
   147  H    0.005859
   148  H    0.003476
   149  H    0.010742
   150  H    0.017609
   151  H    0.030347
   152  H    0.045976
   153  H    0.007864
   154  H    0.047747
   155  H    0.041594
   156  H    0.044024
   157  H    0.048318
   158  H    0.052592
 Sum of Mulliken charges =  -0.00000

 Dipole moment (field-independent basis, Debye):
    X=             -4.7736    Y=             -4.0310    Z=             -5.9364  Tot=              8.6184
 Quadrupole moment (field-independent basis, Debye-Ang):
   XX=           -512.2761   YY=           -562.6366   ZZ=           -448.0114
   XY=             -2.6746   XZ=             28.7168   YZ=            -30.0604

 Normal termination of Gaussian 16 at Fri Sep 10 21:59:23 2021.
