 Gaussian 16, Revision A.03,
 Gaussian 16:  ES64L-G16RevA.03 25-Dec-2016

 -----------------------------------
 #p cam-b3lyp/Def2SVP td=(nstates=5)
 -----------------------------------

 --------------------------------
 TDDFT excited states in gaussian
 --------------------------------
 Symbolic Z-matrix:
 Charge =  0 Multiplicity = 1

                         Standard orientation:
 ---------------------------------------------------------------------
 Center     Atomic      Atomic             Coordinates (Angstroms)
 Number     Number       Type             X           Y           Z
 ---------------------------------------------------------------------
      1         12           0       -4.307385   -1.092074   -0.020443
      2          6           0       -4.776031    2.447864    0.227405
      3          6           0       -5.130179   -0.819984   -3.320752
      4          6           0       -4.343748   -4.259984   -0.160596
      5          6           0       -4.637948   -1.229872    3.446169
      6          7           0       -4.861226    0.647905   -1.271994
      7          6           0       -4.945718    1.959080   -1.069878
      8          6           0       -5.157005    2.773937   -2.380885
      9          6           0       -5.807813    1.632838   -3.284401
     10          6           0       -5.203628    0.414243   -2.609189
     11          6           0       -7.326748    1.556058   -3.168460
     12          6           0       -3.806896    3.284726   -2.987540
     13          6           0       -3.942503    4.354055   -4.075428
     14          1           0       -2.939067    5.404955   -4.153351
     15          7           0       -4.202799   -2.307029   -1.574726
     16          6           0       -4.565019   -2.024606   -2.849214
     17          6           0       -4.297129   -3.251249   -3.630407
     18          6           0       -3.928358   -4.329746   -2.671789
     19          6           0       -4.172147   -3.673940   -1.412479
     20          6           0       -4.354120   -3.302924   -5.126345
     21          6           0       -3.444608   -5.732744   -2.860769
     22          8           0       -3.405275   -6.574021   -1.898854
     23          6           0       -3.096903   -6.127877   -4.237728
     24          7           0       -4.685539   -2.572187    1.402195
     25          6           0       -4.577892   -3.869240    1.093893
     26          6           0       -4.614548   -4.727594    2.323455
     27          6           0       -4.525617   -3.726479    3.564267
     28          6           0       -4.536178   -2.386656    2.787716
     29          6           0       -5.851584   -5.623088    2.477876
     30          6           0       -3.390867   -3.976015    4.589203
     31          6           0       -2.049359   -3.705366    3.945617
     32          7           0       -4.469700    0.347165    1.596125
     33          6           0       -4.621218    0.067484    2.961956
     34          6           0       -4.796116    1.359447    3.650657
     35          6           0       -4.750473    2.305952    2.628947
     36          6           0       -4.585476    1.645158    1.378180
     37          6           0       -5.026639    1.536891    5.043426
     38          6           0       -4.827394    3.720136    2.300277
     39          8           0       -4.869270    4.761871    2.956424
     40          6           0       -4.969196    3.860379    0.720388
     41          6           0       -3.985414    4.904212    0.266633
     42          8           0       -2.756438    4.702988    0.347215
     43          8           0       -4.636428    5.866882   -0.404177
     44          6           0       -3.713971    6.919378   -0.907643
     45          1           0       -5.598849   -0.890932   -4.304244
     46          1           0       -4.251977   -5.348062   -0.150458
     47          1           0       -4.662013   -1.188492    4.536656
     48          1           0       -5.846052    3.613594   -2.288071
     49          1           0       -5.475970    1.695428   -4.320589
     50          1           0       -7.700248    2.214545   -2.384359
     51          1           0       -7.548190    0.515710   -2.929434
     52          1           0       -7.799033    1.749192   -4.132007
     53          1           0       -3.349008    2.484953   -3.569574
     54          1           0       -3.145244    3.651460   -2.202015
     55          1           0       -4.945421    4.781625   -4.091218
     56          1           0       -3.839596    3.868776   -5.046054
     57          1           0       -4.812549   -2.405960   -5.540886
     58          1           0       -5.041166   -4.106358   -5.391239
     59          1           0       -3.376125   -3.495009   -5.567889
     60          1           0       -3.970320   -6.005649   -4.878627
     61          1           0       -2.686725   -7.134666   -4.167163
     62          1           0       -2.338016   -5.444658   -4.620156
     63          1           0       -3.763955   -5.407404    2.351297
     64          1           0       -5.434786   -3.738984    4.165873
     65          1           0       -5.615320   -6.682752    2.577855
     66          1           0       -6.504027   -5.446838    1.623157
     67          1           0       -6.506102   -5.359230    3.308178
     68          1           0       -3.389624   -5.018014    4.907296
     69          1           0       -3.473825   -3.356685    5.482399
     70          1           0       -1.831731   -4.641899    3.433390
     71          1           0       -1.298087   -3.493084    4.707022
     72          1           0       -2.122264   -2.927445    3.185347
     73          1           0       -4.394215    2.368580    5.353752
     74          1           0       -4.792257    0.631072    5.602141
     75          1           0       -6.092601    1.764004    5.044345
     76          1           0       -5.999309    4.155440    0.523084
     77          1           0       -4.073781    7.873093   -0.521379
     78          1           0       -3.665956    6.797497   -1.989883
     79          1           0       -2.700124    6.904045   -0.506123
     80         12           0        4.669791   -0.429080    0.177419
     81          6           0        3.738824    3.032534    0.349302
     82          6           0        4.305545   -0.204743   -3.206597
     83          6           0        5.044876   -3.576219    0.028140
     84          6           0        3.855047   -0.672559    3.557155
     85          7           0        4.093288    1.251043   -1.140556
     86          6           0        3.822358    2.536051   -0.968255
     87          6           0        3.709239    3.351612   -2.284177
     88          6           0        3.335462    2.149221   -3.280887
     89          6           0        3.979052    0.991897   -2.519912
     90          6           0        1.841476    1.887313   -3.374323
     91          6           0        5.066062    4.029764   -2.685606
     92          6           0        4.955327    5.088538   -3.784918
     93          1           0        5.830321    6.255735   -3.717794
     94          7           0        5.150735   -1.593819   -1.355760
     95          6           0        4.952074   -1.337839   -2.665839
     96          6           0        5.460804   -2.514605   -3.387356
     97          6           0        5.825091   -3.555934   -2.388537
     98          6           0        5.323945   -2.943499   -1.174503
     99          6           0        5.636340   -2.542027   -4.877943
    100          6           0        6.499872   -4.888808   -2.508219
    101          8           0        6.500838   -5.732125   -1.543000
    102          6           0        7.078678   -5.215178   -3.819690
    103          7           0        4.279351   -1.961178    1.527454
    104          6           0        4.584409   -3.237034    1.232393
    105          6           0        4.471477   -4.120861    2.451608
    106          6           0        4.260547   -3.125701    3.685606
    107          6           0        4.195977   -1.785102    2.921390
    108          6           0        3.339139   -5.147297    2.426595
    109          6           0        5.256134   -3.253580    4.870987
    110          6           0        6.637825   -2.823894    4.433161
    111          7           0        4.108098    0.947553    1.745038
    112          6           0        3.785977    0.631212    3.083034
    113          6           0        3.357061    1.885183    3.735740
    114          6           0        3.438061    2.847428    2.717898
    115          6           0        3.866480    2.232495    1.510503
    116          6           0        2.916579    2.013180    5.083226
    117          6           0        3.248349    4.241568    2.387611
    118          8           0        2.978805    5.257078    3.027784
    119          6           0        3.313215    4.399882    0.807383
    120          6           0        4.220419    5.557864    0.493423
    121          8           0        5.432757    5.502715    0.765089
    122          8           0        3.554748    6.445335   -0.267917
    123          6           0        4.416496    7.606773   -0.614685
    124          1           0        4.001041   -0.304455   -4.248816
    125          1           0        5.264289   -4.645945    0.060152
    126          1           0        3.678918   -0.646523    4.634641
    127          1           0        2.923472    4.097472   -2.290218
    128          1           0        3.809191    2.278253   -4.250578
    129          1           0        1.283707    2.477362   -2.662367
    130          1           0        1.714698    0.831713   -3.172652
    131          1           0        1.495108    2.041873   -4.400219
    132          1           0        5.697175    3.292233   -3.197961
    133          1           0        5.550629    4.450571   -1.826107
    134          1           0        3.916858    5.396162   -3.957805
    135          1           0        5.262865    4.638797   -4.732105
    136          1           0        5.129522   -1.695971   -5.358288
    137          1           0        5.101505   -3.423961   -5.246727
    138          1           0        6.684144   -2.613287   -5.177433
    139          1           0        6.298821   -5.182663   -4.576801
    140          1           0        7.593660   -6.168047   -3.682879
    141          1           0        7.806240   -4.439612   -4.083795
    142          1           0        5.383353   -4.684415    2.606524
    143          1           0        3.277325   -3.265581    4.158397
    144          1           0        3.690274   -6.187904    2.560431
    145          1           0        2.804965   -5.043513    1.491491
    146          1           0        2.552367   -4.984963    3.161339
    147          1           0        5.340283   -4.297179    5.183980
    148          1           0        4.965132   -2.678154    5.743453
    149          1           0        7.035740   -3.723424    3.954000
    150          1           0        7.239602   -2.535439    5.292647
    151          1           0        6.582481   -2.040212    3.668680
    152          1           0        3.385501    2.903406    5.480839
    153          1           0        3.171006    1.132987    5.669989
    154          1           0        1.838304    2.105412    4.928007
    155          1           0        2.295678    4.569222    0.453066
    156          1           0        3.887186    8.506632   -0.286392
    157          1           0        4.624875    7.511581   -1.696934
    158          1           0        5.356445    7.709257   -0.085114
 ---------------------------------------------------------------------

 SCF Done:  E(RCAM-B3LYP) =  -4069.81104497     A.U. after   19 cycles

 Excitation energies and oscillator strengths:

 Excited State   1:      Singlet-A      1.6472 eV  752.70 nm  f=0.0096  <S**2>=0.000
     309 -> 315       -0.11475
     310 -> 316        0.12082
     311 -> 313       -0.47147
     312 -> 314        0.50067
 This state for optimization and/or second-order correction.
 Total Energy, E(TD-HF/TD-DFT) =  -4069.75051166
 Copying the excited state density for this state as the 1-particle RhoCI density.

 Excited State   2:      Singlet-A      1.7056 eV  726.94 nm  f=0.6885  <S**2>=0.000
     309 -> 315        0.13265
     310 -> 316        0.12387
     311 -> 313        0.49799
     312 -> 314        0.46904

 Excited State   3:      Singlet-A      2.1805 eV  568.61 nm  f=0.0115  <S**2>=0.000
     309 -> 313       -0.32998
     310 -> 314        0.55428
     311 -> 315        0.13644
     312 -> 316       -0.23092

 Excited State   4:      Singlet-A      2.1965 eV  564.45 nm  f=0.1617  <S**2>=0.000
     309 -> 313        0.54920
     310 -> 314        0.32515
     311 -> 315       -0.24293
     312 -> 316       -0.14503

 Excited State   5:      Singlet-A      2.3490 eV  527.81 nm  f=0.0000  <S**2>=0.000
     312 -> 313        0.70708

 The electronic state is 1-A.
 Alpha  occ. eigenvalues --  -46.87863 -46.87408 -19.26277 -19.26045 -19.19012
 Alpha  occ. eigenvalues --  -19.18865 -19.18854 -19.18501 -19.18168 -19.17664
 Alpha  occ. eigenvalues --  -14.42526 -14.42253 -14.41518 -14.41108 -14.39468
 Alpha  occ. eigenvalues --  -14.39102 -14.38643 -14.38327 -10.39078 -10.38771
 Alpha  occ. eigenvalues --  -10.35500 -10.35185 -10.34391 -10.33835 -10.31658
 Alpha  occ. eigenvalues --  -10.31516 -10.31475 -10.31041 -10.30989 -10.30778
 Alpha  occ. eigenvalues --  -10.30630 -10.30562 -10.30284 -10.30127 -10.30082
 Alpha  occ. eigenvalues --  -10.29979 -10.29931 -10.29687 -10.29628 -10.29321
 Alpha  occ. eigenvalues --  -10.29205 -10.29135 -10.28863 -10.28732 -10.28513
 Alpha  occ. eigenvalues --  -10.28480 -10.28423 -10.28218 -10.28127 -10.27921
 Alpha  occ. eigenvalues --  -10.27841 -10.27803 -10.27722 -10.27644 -10.27587
 Alpha  occ. eigenvalues --  -10.27582 -10.27521 -10.27466 -10.27437 -10.27331
 Alpha  occ. eigenvalues --  -10.27310 -10.27212 -10.27210 -10.27179 -10.27163
 Alpha  occ. eigenvalues --  -10.26882 -10.26629 -10.26502 -10.26473 -10.26318
 Alpha  occ. eigenvalues --  -10.26303 -10.26261 -10.26090 -10.25984 -10.25859
 Alpha  occ. eigenvalues --  -10.25802 -10.25698 -10.25525 -10.25494 -10.25179
 Alpha  occ. eigenvalues --  -10.24876 -10.24849 -10.24844 -10.24576 -10.24575
 Alpha  occ. eigenvalues --  -10.24430  -3.16606  -3.16158  -1.91487  -1.91074
 Alpha  occ. eigenvalues --   -1.91041  -1.90916  -1.90630  -1.90466  -1.16626
 Alpha  occ. eigenvalues --   -1.16338  -1.08619  -1.08257  -1.07264  -1.06757
 Alpha  occ. eigenvalues --   -1.06635  -1.06634  -1.04654  -1.04241  -1.03829
 Alpha  occ. eigenvalues --   -1.03410  -1.03295  -1.02784  -1.02474  -1.01849
 Alpha  occ. eigenvalues --   -0.92022  -0.91683  -0.89598  -0.89295  -0.89262
 Alpha  occ. eigenvalues --   -0.88926  -0.88364  -0.87999  -0.87914  -0.87756
 Alpha  occ. eigenvalues --   -0.87503  -0.87444  -0.87342  -0.86904  -0.85082
 Alpha  occ. eigenvalues --   -0.84775  -0.84016  -0.83656  -0.83037  -0.82736
 Alpha  occ. eigenvalues --   -0.82729  -0.82427  -0.81623  -0.81324  -0.80652
 Alpha  occ. eigenvalues --   -0.80187  -0.78861  -0.78395  -0.77303  -0.77015
 Alpha  occ. eigenvalues --   -0.76920  -0.76663  -0.75985  -0.75585  -0.74965
 Alpha  occ. eigenvalues --   -0.74567  -0.72837  -0.72441  -0.71737  -0.71330
 Alpha  occ. eigenvalues --   -0.70005  -0.69562  -0.68962  -0.68599  -0.67699
 Alpha  occ. eigenvalues --   -0.67345  -0.67331  -0.66993  -0.65377  -0.65027
 Alpha  occ. eigenvalues --   -0.64912  -0.64689  -0.64522  -0.64406  -0.64344
 Alpha  occ. eigenvalues --   -0.63976  -0.62324  -0.62004  -0.60509  -0.60112
 Alpha  occ. eigenvalues --   -0.59892  -0.59555  -0.59049  -0.58735  -0.58560
 Alpha  occ. eigenvalues --   -0.58157  -0.57610  -0.57364  -0.57215  -0.56976
 Alpha  occ. eigenvalues --   -0.56366  -0.56014  -0.55951  -0.55624  -0.55580
 Alpha  occ. eigenvalues --   -0.55396  -0.55213  -0.55000  -0.54570  -0.54240
 Alpha  occ. eigenvalues --   -0.53999  -0.53690  -0.53362  -0.53299  -0.52992
 Alpha  occ. eigenvalues --   -0.52967  -0.52904  -0.52838  -0.52656  -0.52535
 Alpha  occ. eigenvalues --   -0.52472  -0.52207  -0.51945  -0.51709  -0.51571
 Alpha  occ. eigenvalues --   -0.51438  -0.51251  -0.50927  -0.50654  -0.50293
 Alpha  occ. eigenvalues --   -0.50122  -0.49993  -0.49765  -0.49652  -0.49591
 Alpha  occ. eigenvalues --   -0.49266  -0.49265  -0.49172  -0.48942  -0.48838
 Alpha  occ. eigenvalues --   -0.48640  -0.48522  -0.48485  -0.48297  -0.48147
 Alpha  occ. eigenvalues --   -0.48087  -0.47767  -0.47367  -0.47360  -0.46898
 Alpha  occ. eigenvalues --   -0.46874  -0.46653  -0.46478  -0.46422  -0.46338
 Alpha  occ. eigenvalues --   -0.46211  -0.46035  -0.45857  -0.45819  -0.45537
 Alpha  occ. eigenvalues --   -0.45273  -0.44972  -0.44617  -0.44596  -0.44277
 Alpha  occ. eigenvalues --   -0.44225  -0.44222  -0.44177  -0.44062  -0.43885
 Alpha  occ. eigenvalues --   -0.43854  -0.43675  -0.43532  -0.43468  -0.43298
 Alpha  occ. eigenvalues --   -0.43139  -0.43086  -0.42768  -0.42682  -0.42665
 Alpha  occ. eigenvalues --   -0.42609  -0.42341  -0.42097  -0.41757  -0.41746
 Alpha  occ. eigenvalues --   -0.41634  -0.41369  -0.41240  -0.41209  -0.40972
 Alpha  occ. eigenvalues --   -0.40900  -0.40743  -0.40652  -0.40519  -0.40492
 Alpha  occ. eigenvalues --   -0.40373  -0.40268  -0.40030  -0.39551  -0.39237
 Alpha  occ. eigenvalues --   -0.38558  -0.38138  -0.37874  -0.37451  -0.37400
 Alpha  occ. eigenvalues --   -0.37355  -0.37040  -0.36962  -0.36738  -0.36495
 Alpha  occ. eigenvalues --   -0.36242  -0.35973  -0.34349  -0.33994  -0.33775
 Alpha  occ. eigenvalues --   -0.33560  -0.33244  -0.32918  -0.31395  -0.31099
 Alpha  occ. eigenvalues --   -0.31060  -0.30713  -0.30027  -0.29564  -0.29506
 Alpha  occ. eigenvalues --   -0.29365  -0.29078  -0.28907  -0.24145  -0.23771
 Alpha  occ. eigenvalues --   -0.21194  -0.20863
 Alpha virt. eigenvalues --   -0.08834  -0.08527  -0.01817  -0.01438  -0.00117
 Alpha virt. eigenvalues --    0.00216   0.02167   0.02518   0.02897   0.03525
 Alpha virt. eigenvalues --    0.04621   0.04963   0.05092   0.05484   0.06029

 Mulliken charges:
               1
     1  Mg   0.838632
     2  C   -0.003157
     3  C   -0.094929
     4  C   -0.045606
     5  C   -0.064098
     6  N   -0.256601
     7  C   -0.052933
     8  C   -0.013689
     9  C   -0.086850
    10  C    0.045887
    11  C    0.104796
    12  C    0.053606
    13  C   -0.071257
    14  H    0.034706
    15  N   -0.433135
    16  C    0.168157
    17  C   -0.177675
    18  C   -0.003939
    19  C    0.148739
    20  C    0.110316
    21  C    0.012657
    22  O   -0.249170
    23  C    0.062534
    24  N   -0.341057
    25  C    0.041074
    26  C   -0.028293
    27  C   -0.023919
    28  C    0.074839
    29  C    0.076087
    30  C    0.035165
    31  C   -0.005026
    32  N   -0.310633
    33  C    0.080602
    34  C   -0.169512
    35  C    0.009083
    36  C    0.083175
    37  C    0.127030
    38  C    0.047106
    39  O   -0.186477
    40  C   -0.005784
    41  C    0.213716
    42  O   -0.256853
    43  O   -0.305067
    44  C    0.156814
    45  H   -0.017843
    46  H   -0.016664
    47  H   -0.041455
    48  H    0.001436
    49  H   -0.004798
    50  H    0.025778
    51  H    0.016680
    52  H    0.016564
    53  H    0.009797
    54  H    0.043452
    55  H    0.018878
    56  H    0.017126
    57  H    0.005389
    58  H    0.027030
    59  H    0.038374
    60  H    0.037140
    61  H    0.036202
    62  H    0.030765
    63  H    0.016545
    64  H    0.009760
    65  H    0.023380
    66  H    0.012699
    67  H    0.004846
    68  H    0.006422
    69  H    0.004758
    70  H    0.009001
    71  H    0.016040
    72  H    0.030160
    73  H    0.048874
    74  H    0.008748
    75  H    0.046253
    76  H    0.035212
    77  H    0.043790
    78  H    0.045038
    79  H    0.055633
    80  Mg   0.837266
    81  C   -0.015595
    82  C   -0.088206
    83  C   -0.045583
    84  C   -0.065404
    85  N   -0.254397
    86  C   -0.048854
    87  C   -0.015054
    88  C   -0.090810
    89  C    0.045630
    90  C    0.113096
    91  C    0.062660
    92  C   -0.077150
    93  H    0.034185
    94  N   -0.423317
    95  C    0.162504
    96  C   -0.175728
    97  C   -0.008249
    98  C    0.151645
    99  C    0.099883
   100  C    0.015113
   101  O   -0.253601
   102  C    0.061451
   103  N   -0.350125
   104  C    0.037262
   105  C   -0.019688
   106  C   -0.034627
   107  C    0.089451
   108  C    0.073408
   109  C    0.034827
   110  C   -0.007536
   111  N   -0.324663
   112  C    0.079240
   113  C   -0.162455
   114  C    0.004674
   115  C    0.095562
   116  C    0.130776
   117  C    0.046136
   118  O   -0.185339
   119  C   -0.001055
   120  C    0.210510
   121  O   -0.252183
   122  O   -0.304576
   123  C    0.152376
   124  H   -0.021548
   125  H   -0.015989
   126  H   -0.041097
   127  H    0.000870
   128  H   -0.005753
   129  H    0.028027
   130  H    0.013386
   131  H    0.012841
   132  H    0.013446
   133  H    0.037816
   134  H    0.020147
   135  H    0.018700
   136  H    0.007598
   137  H    0.024549
   138  H    0.039043
   139  H    0.037493
   140  H    0.035813
   141  H    0.033530
   142  H    0.013870
   143  H    0.011512
   144  H    0.024640
   145  H    0.012993
   146  H    0.005060
   147  H    0.005638
   148  H    0.003148
   149  H    0.010791
   150  H    0.017496
   151  H    0.030488
   152  H    0.045892
   153  H    0.006863
   154  H    0.050552
   155  H    0.043777
   156  H    0.043531
   157  H    0.048291
   158  H    0.053061
 Sum of Mulliken charges =  -0.00000

 Dipole moment (field-independent basis, Debye):
    X=             -3.2084    Y=             -2.2700    Z=             -7.5869  Tot=              8.5444
 Quadrupole moment (field-independent basis, Debye-Ang):
   XX=           -512.5157   YY=           -549.9366   ZZ=           -450.1346
   XY=              4.4505   XZ=             -0.3239   YZ=            -49.0803

 Normal termination of Gaussian 16 at Fri Sep 10 04:05:49 2021.
