 Gaussian 16, Revision A.03,
 Gaussian 16:  ES64L-G16RevA.03 25-Dec-2016

 -----------------------------------
 #p cam-b3lyp/Def2SVP td=(nstates=5)
 -----------------------------------

 --------------------------------
 TDDFT excited states in gaussian
 --------------------------------
 Symbolic Z-matrix:
 Charge =  0 Multiplicity = 1

                         Standard orientation:
 ---------------------------------------------------------------------
 Center     Atomic      Atomic             Coordinates (Angstroms)
 Number     Number       Type             X           Y           Z
 ---------------------------------------------------------------------
      1         12           0        8.097201   -0.497809    0.048420
      2          6           0        8.195404    2.759752   -1.431737
      3          6           0        8.956548    0.980845    3.001074
      4          6           0        8.460872   -3.401051    1.271347
      5          6           0        8.367655   -1.806822   -3.170120
      6          7           0        8.495874    1.611386    0.589717
      7          6           0        8.441340    2.771562   -0.056957
      8          6           0        8.595366    4.008037    0.878340
      9          6           0        9.378395    3.316588    2.082816
     10          6           0        8.888273    1.890464    1.904277
     11          6           0       10.894448    3.339349    1.916784
     12          6           0        7.212996    4.576408    1.344963
     13          6           0        7.261023    5.965698    1.987553
     14          1           0        6.157042    6.884203    1.753201
     15          7           0        8.150138   -1.098114    1.929824
     16          6           0        8.508059   -0.357698    3.006375
     17          6           0        8.383637   -1.253205    4.176532
     18          6           0        8.107364   -2.626634    3.671101
     19          6           0        8.256317   -2.432665    2.251394
     20          6           0        8.476859   -0.774287    5.592759
     21          6           0        7.773962   -3.912504    4.359224
     22          8           0        7.800948   -5.036530    3.750610
     23          6           0        7.497412   -3.831455    5.804905
     24          7           0        8.595214   -2.341536   -0.794367
     25          6           0        8.627492   -3.453535   -0.051804
     26          6           0        8.726208   -4.680153   -0.909478
     27          6           0        8.509271   -4.187125   -2.412680
     28          6           0        8.398720   -2.665243   -2.148251
     29          6           0       10.044986   -5.459635   -0.813350
     30          6           0        7.384899   -4.878355   -3.224102
     31          6           0        6.036458   -4.520361   -2.640452
     32          7           0        8.077395    0.295121   -1.971955
     33          6           0        8.228207   -0.429004   -3.163414
     34          6           0        8.255386    0.551463   -4.264328
     35          6           0        8.134359    1.786982   -3.631326
     36          6           0        8.064099    1.592374   -2.222254
     37          6           0        8.437371    0.251408   -5.643198
     38          6           0        8.072829    3.227822   -3.815852
     39          8           0        7.994034    3.974399   -4.792533
     40          6           0        8.232488    3.922609   -2.391911
     41          6           0        7.156627    4.967427   -2.272795
     42          8           0        5.953322    4.642470   -2.210930
     43          8           0        7.719452    6.157417   -2.012615
     44          6           0        6.704731    7.233110   -1.853304
     45          1           0        9.450463    1.299494    3.921103
     46          1           0        8.480874   -4.427817    1.642546
     47          1           0        8.364569   -2.146649   -4.207406
     48          1           0        9.192667    4.820146    0.463450
     49          1           0        9.063604    3.707135    3.050340
     50          1           0       11.182054    3.713178    0.934208
     51          1           0       11.216275    2.305039    2.039758
     52          1           0       11.364483    3.897724    2.726761
     53          1           0        6.851720    3.992762    2.191661
     54          1           0        6.500987    4.585658    0.518958
     55          1           0        8.214964    6.459135    1.799335
     56          1           0        7.228677    5.842576    3.070140
     57          1           0        8.849533    0.247870    5.646163
     58          1           0        9.247991   -1.370380    6.080343
     59          1           0        7.533130   -0.886220    6.126780
     60          1           0        8.366906   -3.416217    6.314913
     61          1           0        7.191163   -4.831743    6.109018
     62          1           0        6.680673   -3.127984    5.969263
     63          1           0        7.949348   -5.399589   -0.653887
     64          1           0        9.402170   -4.328027   -3.022230
     65          1           0        9.916501   -6.504076   -0.528149
     66          1           0       10.693650   -4.938997   -0.109458
     67          1           0       10.651538   -5.445136   -1.718503
     68          1           0        7.483779   -5.961570   -3.162334
     69          1           0        7.385288   -4.604925   -4.279320
     70          1           0        5.926680   -5.234623   -1.825216
     71          1           0        5.251650   -4.654740   -3.385589
     72          1           0        6.045141   -3.522831   -2.200742
     73          1           0        7.716718    0.862853   -6.186119
     74          1           0        8.285412   -0.809434   -5.840999
     75          1           0        9.474200    0.557602   -5.781352
     76          1           0        9.230843    4.358187   -2.365829
     77          1           0        6.956784    8.019984   -2.564312
     78          1           0        6.692075    7.492832   -0.794631
     79          1           0        5.689626    6.988669   -2.168182
     80         12           0       -7.770939   -0.940582    0.194721
     81          6           0      -10.018780    1.843594   -0.078566
     82          6           0       -5.355881    1.290247    1.103271
     83          6           0       -5.659649   -3.301785    0.008781
     84          6           0       -9.988099   -2.747711   -1.796310
     85          7           0       -7.805086    1.256775    0.445128
     86          6           0       -8.731390    2.200802    0.373610
     87          6           0       -8.273111    3.591871    0.887885
     88          6           0       -6.690823    3.417097    0.676450
     89          6           0       -6.596642    1.896345    0.781931
     90          6           0       -6.219426    3.829950   -0.707999
     91          6           0       -8.629199    3.817416    2.399285
     92          6           0       -8.490765    5.262305    2.883916
     93          1           0       -9.439228    5.756903    3.878029
     94          7           0       -5.948177   -1.097056    0.963879
     95          6           0       -5.114944   -0.088113    1.294100
     96          6           0       -3.889569   -0.727019    1.798478
     97          6           0       -4.004194   -2.195369    1.585093
     98          6           0       -5.226242   -2.254268    0.808427
     99          6           0       -2.795131    0.038991    2.483208
    100          6           0       -3.147953   -3.353637    1.999190
    101          8           0       -3.311084   -4.523448    1.501433
    102          6           0       -2.052892   -3.058002    2.934564
    103          7           0       -7.707927   -2.690680   -0.925786
    104          6           0       -6.701996   -3.570503   -0.777738
    105          6           0       -7.009078   -4.872982   -1.477488
    106          6           0       -8.541122   -4.769760   -1.924432
    107          6           0       -8.842297   -3.326531   -1.464244
    108          6           0       -6.144114   -5.193371   -2.696329
    109          6           0       -9.488990   -5.907796   -1.456384
    110          6           0       -9.659449   -5.852878    0.044724
    111          7           0       -9.745333   -0.618546   -0.621435
    112          6           0      -10.479269   -1.495429   -1.449993
    113          6           0      -11.716541   -0.790080   -1.842514
    114          6           0      -11.604918    0.466729   -1.228966
    115          6           0      -10.374904    0.546855   -0.521747
    116          6           0      -12.729865   -1.302820   -2.700643
    117          6           0      -12.243037    1.747714   -1.027513
    118          8           0      -13.339672    2.226499   -1.313690
    119          6           0      -11.186624    2.741963   -0.378013
    120          6           0      -11.851890    3.435451    0.779143
    121          8           0      -12.204313    2.792329    1.783532
    122          8           0      -11.765861    4.766673    0.603577
    123          6           0      -12.402064    5.498213    1.731366
    124          1           0       -4.471933    1.924522    1.175596
    125          1           0       -5.017484   -4.185548    0.000455
    126          1           0      -10.775680   -3.278684   -2.335236
    127          1           0       -8.635111    4.432411    0.308032
    128          1           0       -6.130484    3.890381    1.478556
    129          1           0       -7.046342    4.062153   -1.362542
    130          1           0       -5.658617    2.987498   -1.091163
    131          1           0       -5.507426    4.656820   -0.632755
    132          1           0       -7.864935    3.336037    3.022909
    133          1           0       -9.615742    3.456448    2.616259
    134          1           0       -8.403505    5.970013    2.050554
    135          1           0       -7.542792    5.359667    3.418594
    136          1           0       -2.914608    1.120774    2.345845
    137          1           0       -1.862493   -0.199788    1.960665
    138          1           0       -2.688709   -0.229157    3.536504
    139          1           0       -1.393074   -2.314019    2.494577
    140          1           0       -1.610453   -4.025019    3.181542
    141          1           0       -2.477147   -2.607094    3.838614
    142          1           0       -6.896049   -5.711364   -0.801140
    143          1           0       -8.647731   -4.779230   -3.019142
    144          1           0       -5.616753   -6.162538   -2.614686
    145          1           0       -5.437090   -4.386223   -2.834811
    146          1           0       -6.672718   -5.203287   -3.648003
    147          1           0       -9.051058   -6.882871   -1.683542
    148          1           0      -10.466414   -5.876444   -1.926128
    149          1           0       -8.777740   -6.385921    0.412872
    150          1           0      -10.577503   -6.354158    0.344607
    151          1           0       -9.597527   -4.821310    0.410358
    152          1           0      -13.679088   -1.050083   -2.247197
    153          1           0      -12.627839   -2.377209   -2.838649
    154          1           0      -12.508642   -0.748472   -3.616626
    155          1           0      -10.877820    3.444086   -1.153412
    156          1           0      -13.151985    6.166132    1.296396
    157          1           0      -11.570698    5.969297    2.288741
    158          1           0      -13.006456    4.924025    2.423792
 ---------------------------------------------------------------------

 SCF Done:  E(RCAM-B3LYP) =  -4069.81182352     A.U. after   19 cycles

 Excitation energies and oscillator strengths:

 Excited State   1:      Singlet-A      1.6728 eV  741.18 nm  f=0.2550  <S**2>=0.000
     310 -> 316        0.14733
     311 -> 313       -0.35918
     312 -> 314        0.58471
 This state for optimization and/or second-order correction.
 Total Energy, E(TD-HF/TD-DFT) =  -4069.75034937
 Copying the excited state density for this state as the 1-particle RhoCI density.

 Excited State   2:      Singlet-A      1.6820 eV  737.14 nm  f=0.5240  <S**2>=0.000
     309 -> 315        0.15032
     311 -> 313        0.58412
     312 -> 314        0.35887

 Excited State   3:      Singlet-A      2.1858 eV  567.24 nm  f=0.0553  <S**2>=0.000
     309 -> 313        0.14787
     310 -> 314        0.62552
     312 -> 316       -0.26546

 Excited State   4:      Singlet-A      2.1933 eV  565.29 nm  f=0.1374  <S**2>=0.000
     309 -> 313        0.62350
     310 -> 314       -0.14678
     311 -> 315       -0.27137

 Excited State   5:      Singlet-A      2.7336 eV  453.56 nm  f=0.0000  <S**2>=0.000
     312 -> 313        0.70701

 The electronic state is 1-A.
 Alpha  occ. eigenvalues --  -46.87914 -46.87585 -19.26439 -19.26298 -19.19178
 Alpha  occ. eigenvalues --  -19.19107 -19.18914 -19.18636 -19.18289 -19.17983
 Alpha  occ. eigenvalues --  -14.42569 -14.42420 -14.41557 -14.41284 -14.39519
 Alpha  occ. eigenvalues --  -14.39275 -14.38703 -14.38526 -10.39234 -10.39035
 Alpha  occ. eigenvalues --  -10.35547 -10.35313 -10.34510 -10.34161 -10.31843
 Alpha  occ. eigenvalues --  -10.31712 -10.31526 -10.31231 -10.31033 -10.30945
 Alpha  occ. eigenvalues --  -10.30686 -10.30617 -10.30324 -10.30308 -10.30286
 Alpha  occ. eigenvalues --  -10.30064 -10.30021 -10.29823 -10.29742 -10.29365
 Alpha  occ. eigenvalues --  -10.29358 -10.29327 -10.28890 -10.28718 -10.28644
 Alpha  occ. eigenvalues --  -10.28606 -10.28483 -10.28328 -10.28247 -10.28055
 Alpha  occ. eigenvalues --  -10.27925 -10.27906 -10.27843 -10.27697 -10.27601
 Alpha  occ. eigenvalues --  -10.27586 -10.27574 -10.27523 -10.27522 -10.27450
 Alpha  occ. eigenvalues --  -10.27409 -10.27390 -10.27377 -10.27306 -10.27287
 Alpha  occ. eigenvalues --  -10.26983 -10.26878 -10.26634 -10.26511 -10.26350
 Alpha  occ. eigenvalues --  -10.26337 -10.26236 -10.26123 -10.26080 -10.25940
 Alpha  occ. eigenvalues --  -10.25913 -10.25861 -10.25787 -10.25498 -10.25323
 Alpha  occ. eigenvalues --  -10.24947 -10.24893 -10.24798 -10.24730 -10.24678
 Alpha  occ. eigenvalues --  -10.24615  -3.16657  -3.16335  -1.91539  -1.91217
 Alpha  occ. eigenvalues --   -1.91125  -1.90967  -1.90806  -1.90642  -1.16788
 Alpha  occ. eigenvalues --   -1.16591  -1.08749  -1.08592  -1.07313  -1.06891
 Alpha  occ. eigenvalues --   -1.06888  -1.06799  -1.04701  -1.04418  -1.03871
 Alpha  occ. eigenvalues --   -1.03587  -1.03346  -1.02964  -1.02523  -1.02036
 Alpha  occ. eigenvalues --   -0.92092  -0.91914  -0.89611  -0.89424  -0.89322
 Alpha  occ. eigenvalues --   -0.89072  -0.88374  -0.88151  -0.87980  -0.87792
 Alpha  occ. eigenvalues --   -0.87723  -0.87608  -0.87386  -0.87041  -0.85112
 Alpha  occ. eigenvalues --   -0.84925  -0.84019  -0.83810  -0.83067  -0.82856
 Alpha  occ. eigenvalues --   -0.82771  -0.82578  -0.81716  -0.81533  -0.80717
 Alpha  occ. eigenvalues --   -0.80373  -0.78909  -0.78558  -0.77329  -0.77071
 Alpha  occ. eigenvalues --   -0.77058  -0.76830  -0.76048  -0.75763  -0.74990
 Alpha  occ. eigenvalues --   -0.74732  -0.72883  -0.72625  -0.71782  -0.71504
 Alpha  occ. eigenvalues --   -0.69981  -0.69692  -0.68998  -0.68754  -0.67755
 Alpha  occ. eigenvalues --   -0.67530  -0.67357  -0.67131  -0.65417  -0.65200
 Alpha  occ. eigenvalues --   -0.64971  -0.64738  -0.64698  -0.64584  -0.64363
 Alpha  occ. eigenvalues --   -0.64135  -0.62428  -0.62216  -0.60547  -0.60264
 Alpha  occ. eigenvalues --   -0.59931  -0.59719  -0.59099  -0.58920  -0.58617
 Alpha  occ. eigenvalues --   -0.58354  -0.57713  -0.57489  -0.57413  -0.57166
 Alpha  occ. eigenvalues --   -0.56424  -0.56131  -0.56119  -0.55824  -0.55633
 Alpha  occ. eigenvalues --   -0.55440  -0.55380  -0.55182  -0.54634  -0.54425
 Alpha  occ. eigenvalues --   -0.54030  -0.53836  -0.53407  -0.53346  -0.53155
 Alpha  occ. eigenvalues --   -0.53070  -0.53038  -0.52874  -0.52834  -0.52588
 Alpha  occ. eigenvalues --   -0.52510  -0.52340  -0.52021  -0.51818  -0.51749
 Alpha  occ. eigenvalues --   -0.51586  -0.51309  -0.51133  -0.50681  -0.50397
 Alpha  occ. eigenvalues --   -0.50120  -0.50027  -0.49902  -0.49794  -0.49635
 Alpha  occ. eigenvalues --   -0.49412  -0.49333  -0.49220  -0.49127  -0.49029
 Alpha  occ. eigenvalues --   -0.48715  -0.48557  -0.48554  -0.48486  -0.48307
 Alpha  occ. eigenvalues --   -0.48262  -0.47809  -0.47520  -0.47406  -0.47041
 Alpha  occ. eigenvalues --   -0.46905  -0.46688  -0.46637  -0.46480  -0.46468
 Alpha  occ. eigenvalues --   -0.46270  -0.46197  -0.46017  -0.45943  -0.45757
 Alpha  occ. eigenvalues --   -0.45290  -0.45137  -0.44697  -0.44618  -0.44445
 Alpha  occ. eigenvalues --   -0.44402  -0.44248  -0.44208  -0.44137  -0.44051
 Alpha  occ. eigenvalues --   -0.44009  -0.43866  -0.43619  -0.43500  -0.43491
 Alpha  occ. eigenvalues --   -0.43313  -0.43138  -0.42869  -0.42834  -0.42832
 Alpha  occ. eigenvalues --   -0.42744  -0.42483  -0.42110  -0.41899  -0.41818
 Alpha  occ. eigenvalues --   -0.41661  -0.41598  -0.41389  -0.41254  -0.40988
 Alpha  occ. eigenvalues --   -0.40934  -0.40911  -0.40662  -0.40650  -0.40626
 Alpha  occ. eigenvalues --   -0.40424  -0.40385  -0.40161  -0.39510  -0.39362
 Alpha  occ. eigenvalues --   -0.38563  -0.38281  -0.37893  -0.37589  -0.37418
 Alpha  occ. eigenvalues --   -0.37396  -0.37195  -0.37126  -0.36847  -0.36714
 Alpha  occ. eigenvalues --   -0.36310  -0.36149  -0.34400  -0.34180  -0.33921
 Alpha  occ. eigenvalues --   -0.33804  -0.33302  -0.33101  -0.31443  -0.31195
 Alpha  occ. eigenvalues --   -0.31149  -0.30897  -0.30149  -0.29889  -0.29563
 Alpha  occ. eigenvalues --   -0.29436  -0.29250  -0.29138  -0.24195  -0.23960
 Alpha  occ. eigenvalues --   -0.21240  -0.21041
 Alpha virt. eigenvalues --   -0.08887  -0.08716  -0.01860  -0.01608  -0.00171
 Alpha virt. eigenvalues --    0.00049   0.02088   0.02278   0.02975   0.03289
 Alpha virt. eigenvalues --    0.04592   0.04804   0.04949   0.05223   0.06024

 Mulliken charges:
               1
     1  Mg   0.838123
     2  C   -0.003314
     3  C   -0.094510
     4  C   -0.045659
     5  C   -0.063705
     6  N   -0.256806
     7  C   -0.052662
     8  C   -0.013948
     9  C   -0.086930
    10  C    0.046128
    11  C    0.104768
    12  C    0.053593
    13  C   -0.071583
    14  H    0.035286
    15  N   -0.433186
    16  C    0.168212
    17  C   -0.177373
    18  C   -0.004011
    19  C    0.148564
    20  C    0.110189
    21  C    0.012222
    22  O   -0.249056
    23  C    0.062574
    24  N   -0.341147
    25  C    0.041245
    26  C   -0.028285
    27  C   -0.024055
    28  C    0.074870
    29  C    0.076073
    30  C    0.035026
    31  C   -0.004561
    32  N   -0.310471
    33  C    0.080346
    34  C   -0.169605
    35  C    0.008367
    36  C    0.082838
    37  C    0.127311
    38  C    0.046034
    39  O   -0.188393
    40  C   -0.005277
    41  C    0.212968
    42  O   -0.257777
    43  O   -0.304572
    44  C    0.157784
    45  H   -0.017536
    46  H   -0.016415
    47  H   -0.041158
    48  H    0.001083
    49  H   -0.004248
    50  H    0.025595
    51  H    0.016670
    52  H    0.016778
    53  H    0.010636
    54  H    0.043573
    55  H    0.018345
    56  H    0.017881
    57  H    0.005794
    58  H    0.027155
    59  H    0.039064
    60  H    0.037475
    61  H    0.036112
    62  H    0.030849
    63  H    0.016996
    64  H    0.009624
    65  H    0.023590
    66  H    0.012491
    67  H    0.004916
    68  H    0.006823
    69  H    0.004789
    70  H    0.009319
    71  H    0.018703
    72  H    0.028306
    73  H    0.047560
    74  H    0.009377
    75  H    0.046192
    76  H    0.035342
    77  H    0.043232
    78  H    0.046277
    79  H    0.053170
    80  Mg   0.837806
    81  C   -0.016826
    82  C   -0.087754
    83  C   -0.045384
    84  C   -0.064875
    85  N   -0.254572
    86  C   -0.049847
    87  C   -0.015117
    88  C   -0.090463
    89  C    0.045676
    90  C    0.114240
    91  C    0.062569
    92  C   -0.077726
    93  H    0.034469
    94  N   -0.423568
    95  C    0.162857
    96  C   -0.174141
    97  C   -0.007752
    98  C    0.152206
    99  C    0.099108
   100  C    0.015704
   101  O   -0.253100
   102  C    0.061134
   103  N   -0.350023
   104  C    0.037593
   105  C   -0.019881
   106  C   -0.034740
   107  C    0.088870
   108  C    0.073597
   109  C    0.034760
   110  C   -0.007635
   111  N   -0.324066
   112  C    0.078368
   113  C   -0.163243
   114  C    0.002206
   115  C    0.096090
   116  C    0.131505
   117  C    0.042290
   118  O   -0.188125
   119  C    0.000940
   120  C    0.211222
   121  O   -0.251158
   122  O   -0.305567
   123  C    0.152102
   124  H   -0.018946
   125  H   -0.015527
   126  H   -0.040617
   127  H   -0.000643
   128  H   -0.004476
   129  H    0.022404
   130  H    0.015060
   131  H    0.016743
   132  H    0.013750
   133  H    0.037541
   134  H    0.020903
   135  H    0.019444
   136  H    0.009018
   137  H    0.027171
   138  H    0.039087
   139  H    0.038697
   140  H    0.036539
   141  H    0.033316
   142  H    0.014284
   143  H    0.012405
   144  H    0.025013
   145  H    0.012029
   146  H    0.005652
   147  H    0.006152
   148  H    0.003545
   149  H    0.010883
   150  H    0.017745
   151  H    0.030127
   152  H    0.045815
   153  H    0.008387
   154  H    0.046942
   155  H    0.035110
   156  H    0.043817
   157  H    0.049444
   158  H    0.053435
 Sum of Mulliken charges =  -0.00000

 Dipole moment (field-independent basis, Debye):
    X=              6.3080    Y=              1.8647    Z=              4.3093  Tot=              7.8637
 Quadrupole moment (field-independent basis, Debye-Ang):
   XX=           -564.0106   YY=           -491.5888   ZZ=           -497.4661
   XY=             16.3517   XZ=             36.1428   YZ=             53.8793

 Normal termination of Gaussian 16 at Sun Sep 12 07:44:11 2021.
