 Gaussian 16, Revision A.03,
 Gaussian 16:  ES64L-G16RevA.03 25-Dec-2016

 -----------------------------------
 #p cam-b3lyp/Def2SVP td=(nstates=5)
 -----------------------------------

 --------------------------------
 TDDFT excited states in gaussian
 --------------------------------
 Symbolic Z-matrix:
 Charge =  0 Multiplicity = 1

                         Standard orientation:
 ---------------------------------------------------------------------
 Center     Atomic      Atomic             Coordinates (Angstroms)
 Number     Number       Type             X           Y           Z
 ---------------------------------------------------------------------
      1         12           0        4.263555    0.012908    0.249988
      2          6           0        4.029483   -3.214419   -1.280301
      3          6           0        5.295300    1.207945   -2.774983
      4          6           0        4.911961    2.767372    1.681462
      5          6           0        4.320519   -1.615154    3.330870
      6          7           0        4.580835   -0.975915   -1.705058
      7          6           0        4.397677   -2.206252   -2.173989
      8          6           0        4.560398   -2.308737   -3.720079
      9          6           0        5.489753   -1.035716   -3.960317
     10          6           0        5.072947   -0.201106   -2.762142
     11          6           0        6.980367   -1.340426   -3.852033
     12          6           0        3.194001   -2.170649   -4.472158
     13          6           0        3.215587   -2.581843   -5.947219
     14          1           0        2.041221   -3.230514   -6.510636
     15          7           0        4.522908    1.819661   -0.505807
     16          6           0        4.931203    2.121130   -1.761872
     17          6           0        4.967791    3.597601   -1.835200
     18          6           0        4.730772    4.127314   -0.463588
     19          6           0        4.738560    2.910015    0.306802
     20          6           0        5.159580    4.353413   -3.114151
     21          6           0        4.539686    5.511903    0.069826
     22          8           0        4.579643    5.770189    1.321331
     23          6           0        4.390720    6.585897   -0.928868
     24          7           0        4.794219    0.505346    2.207930
     25          6           0        4.961009    1.779823    2.577893
     26          6           0        5.055952    1.907456    4.069414
     27          6           0        4.674321    0.474199    4.660923
     28          6           0        4.495995   -0.291802    3.326865
     29          6           0        6.422887    2.338677    4.618548
     30          6           0        3.525152    0.425140    5.698914
     31          6           0        2.215845    0.783545    5.032312
     32          7           0        4.012866   -2.026650    0.948846
     33          6           0        4.098884   -2.480813    2.272859
     34          6           0        3.966744   -3.948875    2.235427
     35          6           0        3.828746   -4.250166    0.881904
     36          6           0        3.898258   -3.049042    0.119827
     37          6           0        4.041047   -4.821164    3.357045
     38          6           0        3.663430   -5.309781   -0.099801
     39          8           0        3.451388   -6.521793   -0.040161
     40          6           0        3.908858   -4.694104   -1.547743
     41          6           0        2.786773   -5.159023   -2.435485
     42          8           0        1.615958   -4.772874   -2.241973
     43          8           0        3.297572   -5.787786   -3.505197
     44          6           0        2.238027   -6.248699   -4.441722
     45          1           0        5.850210    1.647175   -3.606304
     46          1           0        5.027762    3.706802    2.225980
     47          1           0        4.244186   -2.182831    4.260046
     48          1           0        5.067297   -3.210137   -4.064976
     49          1           0        5.240709   -0.519119   -4.887046
     50          1           0        7.154632   -2.356935   -3.499526
     51          1           0        7.374184   -0.617044   -3.137807
     52          1           0        7.487028   -1.136183   -4.795620
     53          1           0        2.946940   -1.114288   -4.577629
     54          1           0        2.410906   -2.725785   -3.954556
     55          1           0        4.116861   -3.145112   -6.190821
     56          1           0        3.288896   -1.678335   -6.552611
     57          1           0        5.472831    3.696365   -3.924526
     58          1           0        6.006433    5.022848   -2.964459
     59          1           0        4.276603    4.932491   -3.384985
     60          1           0        5.275996    6.611464   -1.564621
     61          1           0        4.174533    7.492770   -0.365222
     62          1           0        3.551026    6.346684   -1.582044
     63          1           0        4.350520    2.647934    4.444225
     64          1           0        5.515280    0.005913    5.172949
     65          1           0        6.384372    3.240346    5.230280
     66          1           0        7.099800    2.467402    3.774446
     67          1           0        6.943015    1.577356    5.199301
     68          1           0        3.694779    1.157701    6.487283
     69          1           0        3.413430   -0.550794    6.171482
     70          1           0        2.223863    1.872791    5.049944
     71          1           0        1.376420    0.389954    5.606474
     72          1           0        2.203733    0.474659    3.986879
     73          1           0        3.238433   -5.547894    3.231975
     74          1           0        3.936475   -4.272632    4.292876
     75          1           0        5.040612   -5.235064    3.225089
     76          1           0        4.877191   -5.062496   -1.884997
     77          1           0        2.376464   -7.321009   -4.580360
     78          1           0        2.305509   -5.611599   -5.323739
     79          1           0        1.215302   -6.220355   -4.064138
     80         12           0       -3.611596    1.073611    0.283166
     81          6           0       -6.341715   -1.255602    0.267325
     82          6           0       -5.384139    2.937199   -1.957317
     83          6           0       -1.046690    2.907756   -0.069818
     84          6           0       -1.626019   -1.475797    1.588403
     85          7           0       -5.595431    0.775111   -0.648271
     86          6           0       -6.568859   -0.115470   -0.531394
     87          6           0       -7.887899    0.275333   -1.250395
     88          6           0       -7.276608    1.277391   -2.346332
     89          6           0       -6.022868    1.723818   -1.596985
     90          6           0       -6.845394    0.579669   -3.625615
     91          6           0       -8.893195    1.011261   -0.296565
     92          6           0      -10.316284    1.146339   -0.842762
     93          1           0      -11.432753    1.058723    0.094416
     94          7           0       -3.436876    2.910153   -0.448371
     95          6           0       -4.258497    3.516048   -1.331039
     96          6           0       -3.684435    4.850220   -1.564710
     97          6           0       -2.367791    4.921755   -0.874745
     98          6           0       -2.219997    3.545527   -0.445526
     99          6           0       -4.413504    5.930749   -2.309263
    100          6           0       -1.395846    6.040408   -0.650831
    101          8           0       -0.204180    5.823261   -0.231760
    102          6           0       -1.849466    7.387819   -1.025261
    103          7           0       -1.576284    0.707799    0.497691
    104          6           0       -0.676010    1.693513    0.337030
    105          6           0        0.692802    1.264302    0.808733
    106          6           0        0.472969   -0.137391    1.546644
    107          6           0       -1.037193   -0.327305    1.284432
    108          6           0        1.752283    1.104591   -0.281400
    109          6           0        0.989881   -0.252699    3.006846
    110          6           0        0.175943    0.641120    3.914571
    111          7           0       -3.937849   -0.935035    1.009081
    112          6           0       -2.963101   -1.838138    1.486967
    113          6           0       -3.650245   -3.117782    1.756764
    114          6           0       -4.983303   -2.875389    1.392489
    115          6           0       -5.113484   -1.545274    0.909408
    116          6           0       -3.032248   -4.311059    2.226098
    117          6           0       -6.307838   -3.445601    1.296775
    118          8           0       -6.823296   -4.507981    1.642323
    119          6           0       -7.221105   -2.462096    0.445272
    120          6           0       -8.519941   -2.279915    1.181728
    121          8           0       -8.545164   -1.711390    2.287515
    122          8           0       -9.538576   -2.609225    0.366676
    123          6           0      -10.848629   -2.434397    1.048581
    124          1           0       -5.752787    3.478624   -2.829006
    125          1           0       -0.150215    3.532107   -0.068587
    126          1           0       -1.096039   -2.289005    2.088910
    127          1           0       -8.398426   -0.545032   -1.740419
    128          1           0       -7.937504    2.122381   -2.521135
    129          1           0       -6.912369   -0.494789   -3.540767
    130          1           0       -5.820400    0.882661   -3.794812
    131          1           0       -7.417263    0.963297   -4.475395
    132          1           0       -8.615213    2.071134   -0.232307
    133          1           0       -8.919051    0.539872    0.666640
    134          1           0      -10.489101    0.495299   -1.708334
    135          1           0      -10.441625    2.157156   -1.238418
    136          1           0       -5.287076    5.533783   -2.840946
    137          1           0       -3.745455    6.277285   -3.105179
    138          1           0       -4.674209    6.778795   -1.672463
    139          1           0       -2.113172    7.399934   -2.080146
    140          1           0       -1.052243    8.063094   -0.708516
    141          1           0       -2.765696    7.615628   -0.469180
    142          1           0        1.097848    1.975292    1.518334
    143          1           0        0.988036   -0.957548    1.025232
    144          1           0        2.650964    1.727074   -0.111191
    145          1           0        1.299682    1.342845   -1.234773
    146          1           0        2.101974    0.085856   -0.439832
    147          1           0        2.023018    0.097400    3.071615
    148          1           0        0.968350   -1.265972    3.393904
    149          1           0        0.648344    1.619545    3.785706
    150          1           0        0.243893    0.302860    4.946566
    151          1           0       -0.858019    0.725053    3.560246
    152          1           0       -3.682314   -4.719245    2.988529
    153          1           0       -2.035228   -4.115821    2.615467
    154          1           0       -3.004963   -4.893348    1.301188
    155          1           0       -7.366788   -2.916894   -0.535294
    156          1           0      -11.372341   -3.393242    0.985061
    157          1           0      -11.327012   -1.565722    0.558379
    158          1           0      -10.838120   -2.269709    2.119657
 ---------------------------------------------------------------------

 SCF Done:  E(RCAM-B3LYP) =  -4069.68928914     A.U. after   19 cycles

 Excitation energies and oscillator strengths:

 Excited State   1:      Singlet-A      1.6241 eV  763.41 nm  f=0.0008  <S**2>=0.000
     309 -> 315        0.11597
     310 -> 316       -0.11175
     311 -> 313        0.49299
     312 -> 314       -0.47999
 This state for optimization and/or second-order correction.
 Total Energy, E(TD-HF/TD-DFT) =  -4069.62960494
 Copying the excited state density for this state as the 1-particle RhoCI density.

 Excited State   2:      Singlet-A      1.7102 eV  724.99 nm  f=0.6605  <S**2>=0.000
     309 -> 315        0.12696
     310 -> 316        0.12750
     311 -> 313        0.47363
     312 -> 314        0.48795

 Excited State   3:      Singlet-A      2.1512 eV  576.34 nm  f=0.0712  <S**2>=0.000
     309 -> 313        0.58875
     311 -> 315       -0.24833
     312 -> 313        0.26157

 Excited State   4:      Singlet-A      2.1827 eV  568.04 nm  f=0.1195  <S**2>=0.000
     310 -> 314        0.63474
     312 -> 316       -0.26616

 Excited State   5:      Singlet-A      2.2381 eV  553.96 nm  f=0.0114  <S**2>=0.000
     309 -> 313       -0.24280
     311 -> 315        0.10166
     312 -> 313        0.65025

 The electronic state is 1-A.
 Alpha  occ. eigenvalues --  -46.87736 -46.87487 -19.26354 -19.26226 -19.19113
 Alpha  occ. eigenvalues --  -19.19032 -19.18647 -19.18549 -19.18241 -19.17894
 Alpha  occ. eigenvalues --  -14.42434 -14.42330 -14.41540 -14.41193 -14.39188
 Alpha  occ. eigenvalues --  -14.39148 -14.38618 -14.38416 -10.39163 -10.38957
 Alpha  occ. eigenvalues --  -10.35326 -10.35176 -10.34464 -10.34066 -10.31730
 Alpha  occ. eigenvalues --  -10.31647 -10.31511 -10.31099 -10.30960 -10.30916
 Alpha  occ. eigenvalues --  -10.30669 -10.30554 -10.30193 -10.30174 -10.30122
 Alpha  occ. eigenvalues --  -10.30072 -10.29999 -10.29775 -10.29676 -10.29307
 Alpha  occ. eigenvalues --  -10.29303 -10.29176 -10.28811 -10.28606 -10.28597
 Alpha  occ. eigenvalues --  -10.28564 -10.28434 -10.28276 -10.28178 -10.28000
 Alpha  occ. eigenvalues --  -10.27874 -10.27848 -10.27792 -10.27628 -10.27613
 Alpha  occ. eigenvalues --  -10.27495 -10.27439 -10.27395 -10.27361 -10.27357
 Alpha  occ. eigenvalues --  -10.27355 -10.27326 -10.27279 -10.27219 -10.27212
 Alpha  occ. eigenvalues --  -10.26896 -10.26784 -10.26587 -10.26400 -10.26285
 Alpha  occ. eigenvalues --  -10.26097 -10.26039 -10.25963 -10.25898 -10.25894
 Alpha  occ. eigenvalues --  -10.25884 -10.25686 -10.25434 -10.25337 -10.25155
 Alpha  occ. eigenvalues --  -10.24933 -10.24913 -10.24707 -10.24576 -10.23698
 Alpha  occ. eigenvalues --  -10.22121  -3.16477  -3.16237  -1.91359  -1.91119
 Alpha  occ. eigenvalues --   -1.90951  -1.90797  -1.90708  -1.90544  -1.16705
 Alpha  occ. eigenvalues --   -1.16518  -1.08703  -1.08495  -1.06929  -1.06903
 Alpha  occ. eigenvalues --   -1.06815  -1.06730  -1.04662  -1.04333  -1.03883
 Alpha  occ. eigenvalues --   -1.03499  -1.03356  -1.02882  -1.02504  -1.01962
 Alpha  occ. eigenvalues --   -0.92054  -0.91834  -0.90718  -0.89343  -0.89209
 Alpha  occ. eigenvalues --   -0.89032  -0.88667  -0.88068  -0.87965  -0.87748
 Alpha  occ. eigenvalues --   -0.87598  -0.87511  -0.87209  -0.86995  -0.85799
 Alpha  occ. eigenvalues --   -0.85008  -0.84801  -0.83547  -0.83036  -0.82641
 Alpha  occ. eigenvalues --   -0.82550  -0.82385  -0.81660  -0.81450  -0.80601
 Alpha  occ. eigenvalues --   -0.80325  -0.78897  -0.78507  -0.77902  -0.77170
 Alpha  occ. eigenvalues --   -0.76903  -0.76622  -0.75958  -0.75734  -0.75379
 Alpha  occ. eigenvalues --   -0.74500  -0.72859  -0.72603  -0.71731  -0.71681
 Alpha  occ. eigenvalues --   -0.70673  -0.69917  -0.68960  -0.68744  -0.67665
 Alpha  occ. eigenvalues --   -0.67513  -0.67205  -0.67098  -0.65983  -0.65304
 Alpha  occ. eigenvalues --   -0.65065  -0.64906  -0.64657  -0.64558  -0.64430
 Alpha  occ. eigenvalues --   -0.64166  -0.62397  -0.62222  -0.60516  -0.60275
 Alpha  occ. eigenvalues --   -0.59877  -0.59660  -0.59063  -0.58919  -0.58578
 Alpha  occ. eigenvalues --   -0.58368  -0.57743  -0.57567  -0.57386  -0.57320
 Alpha  occ. eigenvalues --   -0.56810  -0.56542  -0.56134  -0.56048  -0.55804
 Alpha  occ. eigenvalues --   -0.55652  -0.55420  -0.55313  -0.55081  -0.54772
 Alpha  occ. eigenvalues --   -0.54224  -0.53897  -0.53820  -0.53780  -0.53197
 Alpha  occ. eigenvalues --   -0.53087  -0.53040  -0.52964  -0.52796  -0.52744
 Alpha  occ. eigenvalues --   -0.52577  -0.52368  -0.52007  -0.51628  -0.51590
 Alpha  occ. eigenvalues --   -0.51518  -0.51371  -0.51097  -0.50478  -0.50325
 Alpha  occ. eigenvalues --   -0.50241  -0.49839  -0.49783  -0.49739  -0.49535
 Alpha  occ. eigenvalues --   -0.49388  -0.49299  -0.49098  -0.49050  -0.48977
 Alpha  occ. eigenvalues --   -0.48785  -0.48606  -0.48428  -0.48385  -0.48288
 Alpha  occ. eigenvalues --   -0.48062  -0.47572  -0.47481  -0.47402  -0.47189
 Alpha  occ. eigenvalues --   -0.46952  -0.46855  -0.46606  -0.46462  -0.46381
 Alpha  occ. eigenvalues --   -0.46267  -0.46129  -0.46050  -0.45822  -0.45651
 Alpha  occ. eigenvalues --   -0.45477  -0.45265  -0.44712  -0.44598  -0.44429
 Alpha  occ. eigenvalues --   -0.44364  -0.44282  -0.44146  -0.44025  -0.43891
 Alpha  occ. eigenvalues --   -0.43861  -0.43787  -0.43723  -0.43520  -0.43429
 Alpha  occ. eigenvalues --   -0.43212  -0.43007  -0.42877  -0.42763  -0.42689
 Alpha  occ. eigenvalues --   -0.42497  -0.42296  -0.42143  -0.41782  -0.41619
 Alpha  occ. eigenvalues --   -0.41515  -0.41428  -0.41208  -0.41116  -0.40840
 Alpha  occ. eigenvalues --   -0.40695  -0.40643  -0.40600  -0.40488  -0.40338
 Alpha  occ. eigenvalues --   -0.40231  -0.40112  -0.39764  -0.38930  -0.38282
 Alpha  occ. eigenvalues --   -0.38076  -0.37868  -0.37564  -0.37522  -0.37140
 Alpha  occ. eigenvalues --   -0.37050  -0.36953  -0.36744  -0.36561  -0.36220
 Alpha  occ. eigenvalues --   -0.35275  -0.34708  -0.34271  -0.33860  -0.33728
 Alpha  occ. eigenvalues --   -0.33670  -0.33196  -0.33003  -0.31202  -0.31160
 Alpha  occ. eigenvalues --   -0.30964  -0.30799  -0.30098  -0.29792  -0.29447
 Alpha  occ. eigenvalues --   -0.29213  -0.29147  -0.29014  -0.24078  -0.23857
 Alpha  occ. eigenvalues --   -0.21228  -0.20934
 Alpha virt. eigenvalues --   -0.08842  -0.08622  -0.01883  -0.01536   0.00018
 Alpha virt. eigenvalues --    0.00092   0.02058   0.02414   0.03388   0.04500
 Alpha virt. eigenvalues --    0.04898   0.04997   0.05299   0.05478   0.06299

 Mulliken charges:
               1
     1  Mg   0.619498
     2  C    0.002038
     3  C   -0.089206
     4  C   -0.038633
     5  C   -0.064444
     6  N   -0.244668
     7  C   -0.052072
     8  C   -0.013202
     9  C   -0.086521
    10  C    0.046427
    11  C    0.105071
    12  C    0.052168
    13  C   -0.071676
    14  H    0.036113
    15  N   -0.451419
    16  C    0.178951
    17  C   -0.175671
    18  C    0.001345
    19  C    0.138146
    20  C    0.111448
    21  C    0.023361
    22  O   -0.248022
    23  C    0.060757
    24  N   -0.324290
    25  C    0.036207
    26  C   -0.026313
    27  C   -0.023251
    28  C    0.048790
    29  C    0.078662
    30  C    0.126343
    31  C   -0.042200
    32  N   -0.303488
    33  C    0.081743
    34  C   -0.174875
    35  C    0.009463
    36  C    0.076565
    37  C    0.127484
    38  C    0.045171
    39  O   -0.188027
    40  C   -0.008991
    41  C    0.212877
    42  O   -0.258170
    43  O   -0.304597
    44  C    0.157476
    45  H   -0.018475
    46  H   -0.016832
    47  H   -0.043841
    48  H    0.000660
    49  H   -0.004227
    50  H    0.025704
    51  H    0.017141
    52  H    0.016737
    53  H    0.012396
    54  H    0.044254
    55  H    0.018155
    56  H    0.017956
    57  H    0.004947
    58  H    0.027127
    59  H    0.042248
    60  H    0.032971
    61  H    0.037169
    62  H    0.039971
    63  H    0.017416
    64  H    0.008076
    65  H    0.023380
    66  H    0.012216
    67  H    0.005058
    68  H   -0.008377
    69  H   -0.009323
    70  H   -0.001316
    71  H    0.018525
    72  H   -0.039768
    73  H    0.046085
    74  H    0.008661
    75  H    0.046977
    76  H    0.035638
    77  H    0.043399
    78  H    0.046430
    79  H    0.053804
    80  Mg   0.839597
    81  C   -0.017322
    82  C   -0.087930
    83  C   -0.048649
    84  C   -0.064752
    85  N   -0.254475
    86  C   -0.048975
    87  C   -0.015207
    88  C   -0.090424
    89  C    0.045289
    90  C    0.114618
    91  C    0.062553
    92  C   -0.077650
    93  H    0.034572
    94  N   -0.422724
    95  C    0.161831
    96  C   -0.176035
    97  C   -0.009452
    98  C    0.150391
    99  C    0.100016
   100  C    0.014341
   101  O   -0.255098
   102  C    0.061058
   103  N   -0.351071
   104  C    0.042657
   105  C   -0.008517
   106  C   -0.033787
   107  C    0.101685
   108  C    0.034353
   109  C   -0.009647
   110  C    0.054227
   111  N   -0.324918
   112  C    0.079080
   113  C   -0.160284
   114  C    0.002101
   115  C    0.097411
   116  C    0.132901
   117  C    0.043244
   118  O   -0.187077
   119  C    0.000726
   120  C    0.211199
   121  O   -0.251268
   122  O   -0.305558
   123  C    0.152120
   124  H   -0.020798
   125  H   -0.016638
   126  H   -0.035707
   127  H   -0.000689
   128  H   -0.004901
   129  H    0.022664
   130  H    0.014218
   131  H    0.015362
   132  H    0.013945
   133  H    0.037645
   134  H    0.020679
   135  H    0.019340
   136  H    0.008251
   137  H    0.023904
   138  H    0.039048
   139  H    0.036784
   140  H    0.035449
   141  H    0.034821
   142  H    0.018276
   143  H    0.040534
   144  H    0.139790
   145  H    0.021561
   146  H    0.052804
   147  H    0.073736
   148  H    0.010085
   149  H    0.010208
   150  H    0.008118
   151  H    0.009552
   152  H    0.044484
   153  H    0.010067
   154  H    0.053093
   155  H    0.035368
   156  H    0.043828
   157  H    0.049234
   158  H    0.053432
 Sum of Mulliken charges =  -0.00000

 Dipole moment (field-independent basis, Debye):
    X=              1.2928    Y=              5.4978    Z=             -6.7436  Tot=              8.7962
 Quadrupole moment (field-independent basis, Debye-Ang):
   XX=           -477.5638   YY=           -546.8534   ZZ=           -471.2734
   XY=            -31.4540   XZ=             14.6738   YZ=            -12.2994

 Normal termination of Gaussian 16 at Thu Sep  9 10:32:01 2021.
