 Gaussian 16, Revision A.03,
 Gaussian 16:  ES64L-G16RevA.03 25-Dec-2016

 -----------------------------------
 #p cam-b3lyp/Def2SVP td=(nstates=5)
 -----------------------------------

 --------------------------------
 TDDFT excited states in gaussian
 --------------------------------
 Symbolic Z-matrix:
 Charge =  0 Multiplicity = 1

                         Standard orientation:
 ---------------------------------------------------------------------
 Center     Atomic      Atomic             Coordinates (Angstroms)
 Number     Number       Type             X           Y           Z
 ---------------------------------------------------------------------
      1         12           0        6.451736   -1.046270    0.126007
      2          6           0        7.155152    2.233084   -1.124294
      3          6           0        7.561584    0.036418    3.165593
      4          6           0        6.268498   -4.045524    1.139675
      5          6           0        6.484309   -2.152693   -3.178601
      6          7           0        7.232287    0.909483    0.808951
      7          6           0        7.395180    2.102379    0.245358
      8          6           0        7.772721    3.220096    1.262976
      9          6           0        8.410912    2.312775    2.408175
     10          6           0        7.665870    1.017949    2.135665
     11          6           0        9.905455    2.066660    2.228541
     12          6           0        6.518092    3.999798    1.782303
     13          6           0        6.820561    5.307516    2.519690
     14          1           0        5.906261    6.428376    2.361340
     15          7           0        6.387417   -1.777030    1.960319
     16          6           0        6.873148   -1.193200    3.082146
     17          6           0        6.581899   -2.130461    4.188219
     18          6           0        6.057677   -3.390120    3.591105
     19          6           0        6.243921   -3.127499    2.186925
     20          6           0        6.758165   -1.777984    5.633363
     21          6           0        5.490176   -4.637467    4.191270
     22          8           0        5.310412   -5.701414    3.505502
     23          6           0        5.229354   -4.608754    5.641852
     24          7           0        6.602349   -2.886243   -0.848391
     25          6           0        6.426231   -4.034555   -0.185560
     26          6           0        6.298672   -5.194777   -1.127660
     27          6           0        6.180917   -4.565515   -2.590505
     28          6           0        6.353140   -3.071884   -2.219460
     29          6           0        7.450171   -6.209311   -1.099705
     30          6           0        4.950333   -4.978188   -3.436544
     31          6           0        3.689792   -4.419221   -2.815503
     32          7           0        6.584646   -0.123022   -1.833839
     33          6           0        6.602198   -0.776788   -3.074386
     34          6           0        6.813410    0.256846   -4.104463
     35          6           0        6.921319    1.445741   -3.385624
     36          6           0        6.812319    1.168703   -1.992906
     37          6           0        6.940589    0.026218   -5.502701
     38          6           0        7.127976    2.882498   -3.468572
     39          8           0        7.191419    3.697689   -4.389946
     40          6           0        7.409454    3.433762   -2.001362
     41          6           0        6.545172    4.648346   -1.798605
     42          8           0        5.302349    4.547785   -1.747173
     43          8           0        7.317739    5.692518   -1.461874
     44          6           0        6.519142    6.923239   -1.217497
     45          1           0        8.103355    0.192706    4.100473
     46          1           0        6.097127   -5.081859    1.438138
     47          1           0        6.421298   -2.412173   -4.236973
     48          1           0        8.511136    3.935030    0.899608
     49          1           0        8.171117    2.685622    3.403768
     50          1           0       10.260015    2.449178    1.271520
     51          1           0       10.029995    0.984646    2.275764
     52          1           0       10.468425    2.470104    3.070607
     53          1           0        6.052691    3.434788    2.589909
     54          1           0        5.822404    4.198608    0.966326
     55          1           0        7.849856    5.628206    2.356535
     56          1           0        6.762962    5.116545    3.591330
     57          1           0        7.313390   -0.848631    5.754085
     58          1           0        7.404315   -2.539135    6.070226
     59          1           0        5.808530   -1.750949    6.167961
     60          1           0        6.159237   -4.398299    6.170602
     61          1           0        4.742454   -5.554127    5.878599
     62          1           0        4.556430   -3.779841    5.863267
     63          1           0        5.401394   -5.774470   -0.914885
     64          1           0        7.034027   -4.825680   -3.217555
     65          1           0        7.129847   -7.229478   -0.886731
     66          1           0        8.181998   -5.868391   -0.367930
     67          1           0        8.051462   -6.243413   -2.007837
     68          1           0        4.846898   -6.062634   -3.451492
     69          1           0        5.004262   -4.635899   -4.470073
     70          1           0        3.447464   -5.156522   -2.050979
     71          1           0        2.895759   -4.353450   -3.560081
     72          1           0        3.881674   -3.473967   -2.307408
     73          1           0        6.347042    0.796989   -5.994211
     74          1           0        6.595513   -0.971666   -5.772429
     75          1           0        8.016553    0.144520   -5.629827
     76          1           0        8.471090    3.674434   -1.955242
     77          1           0        6.914431    7.698087   -1.874452
     78          1           0        6.551800    7.105598   -0.143214
     79          1           0        5.477220    6.893368   -1.538192
     80         12           0       -6.620084    1.024920    0.341932
     81          6           0       -6.974955   -2.436360   -0.537104
     82          6           0       -5.696538    1.597091   -2.891373
     83          6           0       -5.865393    3.988829    1.186368
     84          6           0       -6.452027    0.017964    3.674123
     85          7           0       -6.402352   -0.325971   -1.395862
     86          6           0       -6.624059   -1.611361   -1.626000
     87          6           0       -6.538843   -2.021201   -3.120775
     88          6           0       -5.590368   -0.834662   -3.641739
     89          6           0       -5.938157    0.230042   -2.603414
     90          6           0       -4.109006   -1.152034   -3.522688
     91          6           0       -7.938402   -1.991052   -3.829537
     92          6           0       -7.980658   -2.673055   -5.198787
     93          1           0       -9.195471   -3.385958   -5.584100
     94          7           0       -6.365042    2.650783   -0.767153
     95          6           0       -6.012009    2.700767   -2.068755
     96          6           0       -5.937890    4.129607   -2.410925
     97          6           0       -6.114999    4.920626   -1.162861
     98          6           0       -6.100930    3.860663   -0.174744
     99          6           0       -5.797138    4.622179   -3.821941
    100          6           0       -6.258760    6.389248   -0.900801
    101          8           0       -6.162480    6.874855    0.281467
    102          6           0       -6.422389    7.252587   -2.079516
    103          7           0       -6.005224    1.865045    2.141508
    104          6           0       -5.793888    3.188476    2.250143
    105          6           0       -5.628995    3.597797    3.694330
    106          6           0       -6.015905    2.305894    4.553897
    107          6           0       -6.262292    1.302562    3.405851
    108          6           0       -4.233660    4.076187    4.095014
    109          6           0       -7.120894    2.482398    5.631174
    110          6           0       -8.451665    2.751329    4.966263
    111          7           0       -6.879700   -0.828386    1.421710
    112          6           0       -6.738756   -1.032594    2.811858
    113          6           0       -6.899011   -2.480463    3.057671
    114          6           0       -7.100762   -3.025487    1.780668
    115          6           0       -7.048410   -1.993031    0.805580
    116          6           0       -6.802188   -3.125142    4.323034
    117          6           0       -7.335541   -4.240879    1.034746
    118          8           0       -7.558787   -5.413543    1.332644
    119          6           0       -7.138554   -3.930746   -0.511669
    120          6           0       -8.304998   -4.520637   -1.255964
    121          8           0       -9.454532   -4.079345   -1.081493
    122          8           0       -7.845041   -5.355382   -2.205709
    123          6           0       -8.964404   -5.956963   -2.978324
    124          1           0       -5.177825    1.848525   -3.816898
    125          1           0       -5.709668    5.009331    1.543892
    126          1           0       -6.510613   -0.362502    4.696124
    127          1           0       -6.068700   -2.980161   -3.302781
    128          1           0       -5.879387   -0.505847   -4.636581
    129          1           0       -3.936601   -2.078919   -2.996096
    130          1           0       -3.673039   -0.322614   -2.981360
    131          1           0       -3.641474   -1.145645   -4.511480
    132          1           0       -8.167303   -0.959426   -4.126337
    133          1           0       -8.696008   -2.407795   -3.194730
    134          1           0       -7.096291   -3.297136   -5.375902
    135          1           0       -7.924425   -1.902925   -5.971935
    136          1           0       -5.524406    3.809451   -4.506395
    137          1           0       -4.932889    5.294913   -3.841062
    138          1           0       -6.677670    5.168127   -4.167301
    139          1           0       -5.567502    7.127970   -2.739894
    140          1           0       -6.598813    8.255204   -1.685154
    141          1           0       -7.303357    6.918054   -2.638612
    142          1           0       -6.306375    4.404131    3.947496
    143          1           0       -5.157014    1.924625    5.125533
    144          1           0       -4.228980    5.094179    4.528333
    145          1           0       -3.593980    4.030882    3.223647
    146          1           0       -3.709683    3.432989    4.799965
    147          1           0       -6.904854    3.352285    6.256297
    148          1           0       -7.220379    1.627711    6.291939
    149          1           0       -8.417534    3.827557    4.772203
    150          1           0       -9.272037    2.496519    5.634162
    151          1           0       -8.517081    2.243524    3.996986
    152          1           0       -7.614311   -3.838276    4.372075
    153          1           0       -6.852118   -2.407821    5.139565
    154          1           0       -5.811446   -3.579017    4.235384
    155          1           0       -6.190775   -4.375841   -0.816923
    156          1           0       -8.848162   -7.043363   -2.915838
    157          1           0       -8.911036   -5.501748   -3.985141
    158          1           0       -9.967721   -5.828893   -2.589217
 ---------------------------------------------------------------------

 SCF Done:  E(RCAM-B3LYP) =  -4069.81186406     A.U. after   19 cycles

 Excitation energies and oscillator strengths:

 Excited State   1:      Singlet-A      1.6676 eV  743.51 nm  f=0.0780  <S**2>=0.000
     309 -> 315        0.10835
     310 -> 316        0.13340
     311 -> 313        0.43104
     312 -> 314        0.53427
 This state for optimization and/or second-order correction.
 Total Energy, E(TD-HF/TD-DFT) =  -4069.75058270
 Copying the excited state density for this state as the 1-particle RhoCI density.

 Excited State   2:      Singlet-A      1.6876 eV  734.67 nm  f=0.6606  <S**2>=0.000
     309 -> 315        0.13816
     310 -> 316       -0.11098
     311 -> 313        0.53328
     312 -> 314       -0.43034

 Excited State   3:      Singlet-A      2.1859 eV  567.20 nm  f=0.0580  <S**2>=0.000
     309 -> 313        0.17405
     310 -> 314        0.61881
     312 -> 316       -0.26246

 Excited State   4:      Singlet-A      2.1934 eV  565.27 nm  f=0.1344  <S**2>=0.000
     309 -> 313        0.61677
     310 -> 314       -0.17265
     311 -> 315       -0.26831

 Excited State   5:      Singlet-A      2.6485 eV  468.12 nm  f=0.0000  <S**2>=0.000
     312 -> 313        0.70710

 The electronic state is 1-A.
 Alpha  occ. eigenvalues --  -46.87855 -46.87551 -19.26346 -19.26269 -19.19088
 Alpha  occ. eigenvalues --  -19.19076 -19.18849 -19.18599 -19.18239 -19.17950
 Alpha  occ. eigenvalues --  -14.42506 -14.42385 -14.41508 -14.41255 -14.39459
 Alpha  occ. eigenvalues --  -14.39239 -14.38649 -14.38493 -10.39146 -10.39005
 Alpha  occ. eigenvalues --  -10.35481 -10.35275 -10.34458 -10.34128 -10.31735
 Alpha  occ. eigenvalues --  -10.31685 -10.31466 -10.31196 -10.30960 -10.30905
 Alpha  occ. eigenvalues --  -10.30633 -10.30568 -10.30294 -10.30261 -10.30252
 Alpha  occ. eigenvalues --  -10.30036 -10.29982 -10.29800 -10.29690 -10.29322
 Alpha  occ. eigenvalues --  -10.29310 -10.29292 -10.28796 -10.28605 -10.28572
 Alpha  occ. eigenvalues --  -10.28563 -10.28422 -10.28291 -10.28165 -10.28014
 Alpha  occ. eigenvalues --  -10.27890 -10.27854 -10.27783 -10.27639 -10.27563
 Alpha  occ. eigenvalues --  -10.27548 -10.27524 -10.27503 -10.27461 -10.27448
 Alpha  occ. eigenvalues --  -10.27375 -10.27352 -10.27310 -10.27303 -10.27221
 Alpha  occ. eigenvalues --  -10.26951 -10.26748 -10.26591 -10.26429 -10.26287
 Alpha  occ. eigenvalues --  -10.26279 -10.26261 -10.26088 -10.26082 -10.25933
 Alpha  occ. eigenvalues --  -10.25871 -10.25835 -10.25770 -10.25478 -10.25331
 Alpha  occ. eigenvalues --  -10.24896 -10.24843 -10.24778 -10.24764 -10.24679
 Alpha  occ. eigenvalues --  -10.24585  -3.16598  -3.16301  -1.91480  -1.91183
 Alpha  occ. eigenvalues --   -1.91066  -1.90908  -1.90772  -1.90609  -1.16696
 Alpha  occ. eigenvalues --   -1.16562  -1.08698  -1.08560  -1.07248  -1.06861
 Alpha  occ. eigenvalues --   -1.06851  -1.06710  -1.04637  -1.04382  -1.03818
 Alpha  occ. eigenvalues --   -1.03555  -1.03293  -1.02933  -1.02470  -1.02004
 Alpha  occ. eigenvalues --   -0.92032  -0.91881  -0.89583  -0.89405  -0.89237
 Alpha  occ. eigenvalues --   -0.89034  -0.88347  -0.88137  -0.87940  -0.87728
 Alpha  occ. eigenvalues --   -0.87694  -0.87574  -0.87321  -0.86996  -0.85032
 Alpha  occ. eigenvalues --   -0.84889  -0.84000  -0.83799  -0.83009  -0.82819
 Alpha  occ. eigenvalues --   -0.82698  -0.82541  -0.81645  -0.81503  -0.80652
 Alpha  occ. eigenvalues --   -0.80340  -0.78852  -0.78519  -0.77276  -0.77038
 Alpha  occ. eigenvalues --   -0.76989  -0.76803  -0.75979  -0.75728  -0.74954
 Alpha  occ. eigenvalues --   -0.74716  -0.72836  -0.72594  -0.71727  -0.71476
 Alpha  occ. eigenvalues --   -0.69975  -0.69685  -0.68924  -0.68718  -0.67696
 Alpha  occ. eigenvalues --   -0.67498  -0.67264  -0.67091  -0.65340  -0.65164
 Alpha  occ. eigenvalues --   -0.64913  -0.64677  -0.64669  -0.64554  -0.64330
 Alpha  occ. eigenvalues --   -0.64117  -0.62359  -0.62188  -0.60493  -0.60228
 Alpha  occ. eigenvalues --   -0.59857  -0.59682  -0.59046  -0.58891  -0.58563
 Alpha  occ. eigenvalues --   -0.58324  -0.57648  -0.57458  -0.57366  -0.57139
 Alpha  occ. eigenvalues --   -0.56369  -0.56097  -0.56035  -0.55791  -0.55570
 Alpha  occ. eigenvalues --   -0.55402  -0.55344  -0.55165  -0.54587  -0.54407
 Alpha  occ. eigenvalues --   -0.53944  -0.53798  -0.53354  -0.53271  -0.53126
 Alpha  occ. eigenvalues --   -0.53034  -0.52974  -0.52801  -0.52799  -0.52542
 Alpha  occ. eigenvalues --   -0.52510  -0.52333  -0.51992  -0.51795  -0.51665
 Alpha  occ. eigenvalues --   -0.51546  -0.51259  -0.51105  -0.50612  -0.50350
 Alpha  occ. eigenvalues --   -0.50091  -0.49964  -0.49866  -0.49772  -0.49562
 Alpha  occ. eigenvalues --   -0.49374  -0.49272  -0.49149  -0.49090  -0.48996
 Alpha  occ. eigenvalues --   -0.48652  -0.48517  -0.48491  -0.48454  -0.48292
 Alpha  occ. eigenvalues --   -0.48224  -0.47747  -0.47486  -0.47348  -0.47007
 Alpha  occ. eigenvalues --   -0.46857  -0.46610  -0.46604  -0.46443  -0.46419
 Alpha  occ. eigenvalues --   -0.46225  -0.46167  -0.45995  -0.45888  -0.45731
 Alpha  occ. eigenvalues --   -0.45257  -0.45120  -0.44642  -0.44555  -0.44417
 Alpha  occ. eigenvalues --   -0.44367  -0.44204  -0.44139  -0.44072  -0.44020
 Alpha  occ. eigenvalues --   -0.43982  -0.43826  -0.43557  -0.43465  -0.43438
 Alpha  occ. eigenvalues --   -0.43282  -0.43086  -0.42840  -0.42805  -0.42760
 Alpha  occ. eigenvalues --   -0.42721  -0.42464  -0.42073  -0.41877  -0.41763
 Alpha  occ. eigenvalues --   -0.41583  -0.41568  -0.41357  -0.41194  -0.40922
 Alpha  occ. eigenvalues --   -0.40881  -0.40860  -0.40631  -0.40616  -0.40590
 Alpha  occ. eigenvalues --   -0.40406  -0.40276  -0.40121  -0.39511  -0.39355
 Alpha  occ. eigenvalues --   -0.38526  -0.38265  -0.37795  -0.37551  -0.37379
 Alpha  occ. eigenvalues --   -0.37316  -0.37173  -0.37089  -0.36776  -0.36688
 Alpha  occ. eigenvalues --   -0.36253  -0.36126  -0.34346  -0.34148  -0.33837
 Alpha  occ. eigenvalues --   -0.33773  -0.33246  -0.33068  -0.31379  -0.31160
 Alpha  occ. eigenvalues --   -0.31091  -0.30865  -0.30099  -0.29856  -0.29505
 Alpha  occ. eigenvalues --   -0.29385  -0.29212  -0.29103  -0.24139  -0.23927
 Alpha  occ. eigenvalues --   -0.21186  -0.21007
 Alpha virt. eigenvalues --   -0.08832  -0.08680  -0.01805  -0.01577  -0.00106
 Alpha virt. eigenvalues --    0.00089   0.02136   0.02308   0.03053   0.03323
 Alpha virt. eigenvalues --    0.04666   0.04840   0.05032   0.05253   0.06135

 Mulliken charges:
               1
     1  Mg   0.838628
     2  C   -0.002968
     3  C   -0.094078
     4  C   -0.045796
     5  C   -0.064134
     6  N   -0.256815
     7  C   -0.052502
     8  C   -0.014010
     9  C   -0.087012
    10  C    0.046411
    11  C    0.104773
    12  C    0.053448
    13  C   -0.071985
    14  H    0.036478
    15  N   -0.433231
    16  C    0.168533
    17  C   -0.177033
    18  C   -0.003814
    19  C    0.148794
    20  C    0.110153
    21  C    0.012478
    22  O   -0.249182
    23  C    0.062403
    24  N   -0.341130
    25  C    0.041295
    26  C   -0.028310
    27  C   -0.023899
    28  C    0.074723
    29  C    0.076084
    30  C    0.035168
    31  C   -0.004458
    32  N   -0.310353
    33  C    0.080178
    34  C   -0.170236
    35  C    0.008213
    36  C    0.082744
    37  C    0.127450
    38  C    0.045812
    39  O   -0.188834
    40  C   -0.005198
    41  C    0.212821
    42  O   -0.257390
    43  O   -0.304720
    44  C    0.157716
    45  H   -0.017409
    46  H   -0.016523
    47  H   -0.041815
    48  H    0.000966
    49  H   -0.003902
    50  H    0.025495
    51  H    0.016479
    52  H    0.016824
    53  H    0.011201
    54  H    0.044044
    55  H    0.017893
    56  H    0.018039
    57  H    0.005947
    58  H    0.027075
    59  H    0.039677
    60  H    0.037362
    61  H    0.036184
    62  H    0.031458
    63  H    0.016819
    64  H    0.009489
    65  H    0.023539
    66  H    0.012649
    67  H    0.004767
    68  H    0.006647
    69  H    0.004298
    70  H    0.009417
    71  H    0.017097
    72  H    0.028858
    73  H    0.046899
    74  H    0.008790
    75  H    0.046141
    76  H    0.035246
    77  H    0.042917
    78  H    0.046681
    79  H    0.053536
    80  Mg   0.837984
    81  C   -0.016815
    82  C   -0.087324
    83  C   -0.045225
    84  C   -0.065052
    85  N   -0.254553
    86  C   -0.049821
    87  C   -0.015115
    88  C   -0.090507
    89  C    0.045637
    90  C    0.114120
    91  C    0.062533
    92  C   -0.077760
    93  H    0.034508
    94  N   -0.423681
    95  C    0.162936
    96  C   -0.173687
    97  C   -0.007638
    98  C    0.152374
    99  C    0.098961
   100  C    0.015819
   101  O   -0.253435
   102  C    0.061123
   103  N   -0.350014
   104  C    0.037684
   105  C   -0.019864
   106  C   -0.034593
   107  C    0.088804
   108  C    0.073672
   109  C    0.034834
   110  C   -0.007584
   111  N   -0.324013
   112  C    0.078285
   113  C   -0.163409
   114  C    0.002216
   115  C    0.096061
   116  C    0.131502
   117  C    0.042259
   118  O   -0.188236
   119  C    0.000946
   120  C    0.211210
   121  O   -0.251141
   122  O   -0.305599
   123  C    0.152101
   124  H   -0.018603
   125  H   -0.015676
   126  H   -0.041029
   127  H   -0.000825
   128  H   -0.004289
   129  H    0.022216
   130  H    0.015597
   131  H    0.016601
   132  H    0.013913
   133  H    0.037494
   134  H    0.020697
   135  H    0.019691
   136  H    0.009214
   137  H    0.027538
   138  H    0.039561
   139  H    0.039054
   140  H    0.036124
   141  H    0.033675
   142  H    0.014172
   143  H    0.011850
   144  H    0.024680
   145  H    0.012586
   146  H    0.004950
   147  H    0.005781
   148  H    0.003308
   149  H    0.010850
   150  H    0.017638
   151  H    0.030377
   152  H    0.045731
   153  H    0.008053
   154  H    0.046844
   155  H    0.035088
   156  H    0.043709
   157  H    0.049484
   158  H    0.053446
 Sum of Mulliken charges =  -0.00000

 Dipole moment (field-independent basis, Debye):
    X=              4.3874    Y=              1.5561    Z=              0.7566  Tot=              4.7163
 Quadrupole moment (field-independent basis, Debye-Ang):
   XX=           -521.6068   YY=           -540.8359   ZZ=           -456.7402
   XY=            -19.6168   XZ=             56.6184   YZ=             36.4892

 Normal termination of Gaussian 16 at Sat Sep  4 07:38:22 2021.
