 Gaussian 16, Revision A.03,
 Gaussian 16:  ES64L-G16RevA.03 25-Dec-2016

 -----------------------------------
 #p cam-b3lyp/Def2SVP td=(nstates=5)
 -----------------------------------

 --------------------------------
 TDDFT excited states in gaussian
 --------------------------------
 Symbolic Z-matrix:
 Charge =  0 Multiplicity = 1

                         Standard orientation:
 ---------------------------------------------------------------------
 Center     Atomic      Atomic             Coordinates (Angstroms)
 Number     Number       Type             X           Y           Z
 ---------------------------------------------------------------------
      1         12           0       -6.407168   -0.842675    0.054187
      2          6           0       -6.692419    2.041968    2.154112
      3          6           0       -7.350378    1.146112   -2.553138
      4          6           0       -6.603380   -3.458248   -1.728198
      5          6           0       -6.601622   -2.782413    2.943004
      6          7           0       -6.926524    1.306286   -0.059318
      7          6           0       -6.938745    2.314775    0.806690
      8          6           0       -7.163702    3.702720    0.135588
      9          6           0       -7.905773    3.223282   -1.191615
     10          6           0       -7.334434    1.820215   -1.296013
     11          6           0       -9.420612    3.126873   -1.041716
     12          6           0       -5.816345    4.429965   -0.192247
     13          6           0       -5.944244    5.914784   -0.544820
     14          1           0       -4.894891    6.828544   -0.119086
     15          7           0       -6.425655   -1.056345   -1.909700
     16          6           0       -6.825655   -0.136845   -2.820636
     17          6           0       -6.650039   -0.771604   -4.144616
     18          6           0       -6.295196   -2.200596   -3.920650
     19          6           0       -6.454937   -2.303369   -2.492610
     20          6           0       -6.770768   -0.024994   -5.437577
     21          6           0       -5.888456   -3.301873   -4.847949
     22          8           0       -5.850705   -4.524654   -4.476525
     23          6           0       -5.617148   -2.917703   -6.245034
     24          7           0       -6.798256   -2.842840    0.505877
     25          6           0       -6.766594   -3.783762   -0.444201
     26          6           0       -6.794533   -5.160776    0.149929
     27          6           0       -6.606181   -4.967111    1.723705
     28          6           0       -6.583357   -3.419334    1.769946
     29          6           0       -8.066311   -5.978318   -0.115056
     30          6           0       -5.443849   -5.742245    2.393458
     31          6           0       -4.118278   -5.199273    1.908545
     32          7           0       -6.432823   -0.470266    2.192340
     33          6           0       -6.541641   -1.425499    3.213301
     34          6           0       -6.625067   -0.688299    4.487524
     35          6           0       -6.575347    0.653718    4.115554
     36          6           0       -6.494131    0.749302    2.696907
     37          6           0       -6.789379   -1.267991    5.776475
     38          6           0       -6.596763    2.029617    4.584917
     39          8           0       -6.560950    2.568871    5.691901
     40          6           0       -6.796235    2.985178    3.326767
     41          6           0       -5.782250    4.091641    3.431098
     42          8           0       -4.562255    3.853986    3.319309
     43          8           0       -6.412600    5.275974    3.407499
     44          6           0       -5.461433    6.417235    3.477917
     45          1           0       -7.861878    1.614074   -3.396537
     46          1           0       -6.564334   -4.389423   -2.297256
     47          1           0       -6.578911   -3.322219    3.891449
     48          1           0       -7.806682    4.380393    0.697513
     49          1           0       -7.614045    3.816656   -2.057943
     50          1           0       -9.729157    3.279693   -0.007613
     51          1           0       -9.682436    2.121634   -1.372524
     52          1           0       -9.922050    3.808645   -1.729120
     53          1           0       -5.422175    4.048872   -1.134297
     54          1           0       -5.105977    4.313845    0.627033
     55          1           0       -6.924967    6.306007   -0.272724
     56          1           0       -5.904962    6.012820   -1.629737
     57          1           0       -7.201613    0.964512   -5.289941
     58          1           0       -7.506385   -0.553950   -6.043202
     59          1           0       -5.822209    0.025576   -5.972376
     60          1           0       -6.509125   -2.458484   -6.671699
     61          1           0       -5.253906   -3.818016   -6.739344
     62          1           0       -4.842229   -2.150679   -6.256189
     63          1           0       -5.977608   -5.769559   -0.235352
     64          1           0       -7.489448   -5.277241    2.282573
     65          1           0       -7.877998   -6.935623   -0.601689
     66          1           0       -8.743901   -5.364756   -0.708102
     67          1           0       -8.672616   -6.179459    0.767755
     68          1           0       -5.480278   -6.795003    2.115394
     69          1           0       -5.459873   -5.685978    3.481957
     70          1           0       -3.967674   -5.728599    0.968352
     71          1           0       -3.326977   -5.435598    2.620728
     72          1           0       -4.184350   -4.136036    1.676928
     73          1           0       -6.105035   -0.737936    6.438808
     74          1           0       -6.576647   -2.336671    5.760064
     75          1           0       -7.842089   -1.054572    5.961162
     76          1           0       -7.817989    3.360189    3.376830
     77          1           0       -5.758261    7.030425    4.328873
     78          1           0       -5.463824    6.883854    2.492693
     79          1           0       -4.433924    6.172336    3.749187
     80         12           0        6.813802   -0.430849    0.026438
     81          6           0        5.002136    1.841491   -2.079131
     82          6           0        9.062467    2.080320    0.548072
     83          6           0        8.665020   -2.532646    1.517367
     84          6           0        5.101757   -3.030122   -1.541488
     85          7           0        6.910776    1.647843   -0.723175
     86          6           0        6.133884    2.420105   -1.467742
     87          6           0        6.551526    3.914849   -1.497353
     88          6           0        8.105397    3.737623   -1.132723
     89          6           0        8.025985    2.425105   -0.355766
     90          6           0        8.988159    3.519275   -2.350263
     91          6           0        5.800921    4.766753   -0.414361
     92          6           0        5.926819    6.282004   -0.587299
     93          1           0        4.783409    7.119949   -0.236682
     94          7           0        8.318790   -0.148480    1.288912
     95          6           0        9.111719    0.939799    1.379408
     96          6           0       10.078267    0.645547    2.448698
     97          6           0        9.895489   -0.770097    2.869694
     98          6           0        8.946018   -1.221275    1.872177
     99          6           0       10.996952    1.684264    3.023605
    100          6           0       10.488135   -1.586672    3.977934
    101          8           0       10.367588   -2.862233    4.013128
    102          6           0       11.292801   -0.859162    4.970260
    103          7           0        7.033699   -2.490687   -0.149789
    104          6           0        7.870588   -3.168010    0.655676
    105          6           0        7.658252   -4.658128    0.533822
    106          6           0        6.333738   -4.832894   -0.345217
    107          6           0        6.047079   -3.350084   -0.668477
    108          6           0        8.802106   -5.442772   -0.108303
    109          6           0        5.191707   -5.690380    0.265653
    110          6           0        4.605538   -4.987446    1.468847
    111          7           0        5.192714   -0.592465   -1.392731
    112          6           0        4.648881   -1.777399   -1.935168
    113          6           0        3.645128   -1.374854   -2.941582
    114          6           0        3.691436    0.027373   -2.931207
    115          6           0        4.670277    0.467338   -1.999646
    116          6           0        2.876514   -2.259201   -3.749838
    117          6           0        3.142357    1.235241   -3.504162
    118          8           0        2.221690    1.488005   -4.280191
    119          6           0        4.055707    2.461301   -3.069449
    120          6           0        3.154117    3.562400   -2.582400
    121          8           0        2.472287    3.412290   -1.553223
    122          8           0        3.408109    4.682395   -3.283436
    123          6           0        2.546106    5.806010   -2.829274
    124          1           0        9.943135    2.721386    0.596548
    125          1           0        9.199155   -3.299118    2.083659
    126          1           0        4.455693   -3.779798   -2.003291
    127          1           0        6.448635    4.396217   -2.462477
    128          1           0        8.454254    4.541121   -0.489257
    129          1           0        8.407413    3.401031   -3.252977
    130          1           0        9.555491    2.620924   -2.144975
    131          1           0        9.721580    4.326402   -2.433747
    132          1           0        6.307942    4.645112    0.551495
    133          1           0        4.764793    4.493481   -0.365512
    134          1           0        6.312761    6.553201   -1.577478
    135          1           0        6.687437    6.648431    0.106393
    136          1           0       11.021153    2.588052    2.402323
    137          1           0       12.014017    1.282745    2.958735
    138          1           0       10.773209    1.912941    4.067785
    139          1           0       12.115961   -0.355796    4.468762
    140          1           0       11.555894   -1.596926    5.730756
    141          1           0       10.671210   -0.076000    5.418467
    142          1           0        7.496268   -5.106483    1.506367
    143          1           0        6.543728   -5.328704   -1.304335
    144          1           0        9.193219   -6.251437    0.537590
    145          1           0        9.589983   -4.747753   -0.366595
    146          1           0        8.568620   -5.895320   -1.070527
    147          1           0        5.585149   -6.644519    0.624797
    148          1           0        4.396245   -5.914152   -0.437312
    149          1           0        5.292811   -5.262602    2.274473
    150          1           0        3.598234   -5.346839    1.669383
    151          1           0        4.654604   -3.898691    1.351160
    152          1           0        1.864627   -1.876381   -3.754733
    153          1           0        2.914946   -3.278509   -3.371279
    154          1           0        3.399812   -2.155736   -4.704150
    155          1           0        4.635930    2.763212   -3.942236
    156          1           0        2.015996    6.178673   -3.711197
    157          1           0        3.223191    6.512117   -2.312830
    158          1           0        1.719281    5.568661   -2.170136
 ---------------------------------------------------------------------

 SCF Done:  E(RCAM-B3LYP) =  -4069.81168569     A.U. after   19 cycles

 Excitation energies and oscillator strengths:

 Excited State   1:      Singlet-A      1.6674 eV  743.60 nm  f=0.1551  <S**2>=0.000
     309 -> 315        0.13618
     310 -> 316       -0.10451
     311 -> 313        0.54481
     312 -> 314       -0.41776
 This state for optimization and/or second-order correction.
 Total Energy, E(TD-HF/TD-DFT) =  -4069.75041132
 Copying the excited state density for this state as the 1-particle RhoCI density.

 Excited State   2:      Singlet-A      1.6877 eV  734.65 nm  f=0.6099  <S**2>=0.000
     309 -> 315        0.10744
     310 -> 316        0.14075
     311 -> 313        0.41699
     312 -> 314        0.54376

 Excited State   3:      Singlet-A      2.1844 eV  567.59 nm  f=0.0346  <S**2>=0.000
     309 -> 313        0.60229
     310 -> 314        0.22626
     311 -> 315       -0.25441

 Excited State   4:      Singlet-A      2.1932 eV  565.32 nm  f=0.1528  <S**2>=0.000
     309 -> 313       -0.22450
     310 -> 314        0.59966
     312 -> 316       -0.26098

 Excited State   5:      Singlet-A      2.6234 eV  472.62 nm  f=0.0000  <S**2>=0.000
     312 -> 313        0.70681

 The electronic state is 1-A.
 Alpha  occ. eigenvalues --  -46.87583 -46.87467 -19.26307 -19.25990 -19.19089
 Alpha  occ. eigenvalues --  -19.18696 -19.18641 -19.18504 -19.18013 -19.17872
 Alpha  occ. eigenvalues --  -14.42423 -14.42126 -14.41286 -14.41140 -14.39276
 Alpha  occ. eigenvalues --  -14.39073 -14.38524 -14.38264 -10.39023 -10.38760
 Alpha  occ. eigenvalues --  -10.35318 -10.35136 -10.34188 -10.34091 -10.31739
 Alpha  occ. eigenvalues --  -10.31414 -10.31240 -10.31089 -10.30951 -10.30579
 Alpha  occ. eigenvalues --  -10.30325 -10.30290 -10.30251 -10.30196 -10.30066
 Alpha  occ. eigenvalues --  -10.29903 -10.29824 -10.29630 -10.29362 -10.29330
 Alpha  occ. eigenvalues --  -10.29317 -10.28933 -10.28652 -10.28584 -10.28424
 Alpha  occ. eigenvalues --  -10.28334 -10.28222 -10.28078 -10.28039 -10.27934
 Alpha  occ. eigenvalues --  -10.27805 -10.27598 -10.27478 -10.27445 -10.27413
 Alpha  occ. eigenvalues --  -10.27408 -10.27396 -10.27393 -10.27307 -10.27262
 Alpha  occ. eigenvalues --  -10.27251 -10.27204 -10.27125 -10.27086 -10.26999
 Alpha  occ. eigenvalues --  -10.26855 -10.26607 -10.26339 -10.26333 -10.26071
 Alpha  occ. eigenvalues --  -10.26055 -10.25979 -10.25962 -10.25959 -10.25859
 Alpha  occ. eigenvalues --  -10.25792 -10.25716 -10.25578 -10.25340 -10.25216
 Alpha  occ. eigenvalues --  -10.24806 -10.24635 -10.24619 -10.24520 -10.24484
 Alpha  occ. eigenvalues --  -10.24463  -3.16332  -3.16208  -1.91214  -1.91089
 Alpha  occ. eigenvalues --   -1.90803  -1.90676  -1.90640  -1.90518  -1.16596
 Alpha  occ. eigenvalues --   -1.16334  -1.08620  -1.08332  -1.06907  -1.06893
 Alpha  occ. eigenvalues --   -1.06880  -1.06324  -1.04423  -1.04258  -1.03590
 Alpha  occ. eigenvalues --   -1.03449  -1.02966  -1.02915  -1.02096  -1.02039
 Alpha  occ. eigenvalues --   -0.91921  -0.91660  -0.89421  -0.89241  -0.89084
 Alpha  occ. eigenvalues --   -0.88869  -0.88148  -0.88015  -0.87728  -0.87612
 Alpha  occ. eigenvalues --   -0.87570  -0.87356  -0.87047  -0.86943  -0.84931
 Alpha  occ. eigenvalues --   -0.84666  -0.83804  -0.83676  -0.82859  -0.82655
 Alpha  occ. eigenvalues --   -0.82586  -0.82338  -0.81542  -0.81290  -0.80380
 Alpha  occ. eigenvalues --   -0.80289  -0.78565  -0.78476  -0.77076  -0.76923
 Alpha  occ. eigenvalues --   -0.76836  -0.76639  -0.75781  -0.75624  -0.74738
 Alpha  occ. eigenvalues --   -0.74629  -0.72630  -0.72471  -0.71517  -0.71377
 Alpha  occ. eigenvalues --   -0.69680  -0.69653  -0.68760  -0.68562  -0.67534
 Alpha  occ. eigenvalues --   -0.67333  -0.67126  -0.66890  -0.65205  -0.64970
 Alpha  occ. eigenvalues --   -0.64703  -0.64590  -0.64551  -0.64323  -0.64133
 Alpha  occ. eigenvalues --   -0.63987  -0.62223  -0.62004  -0.60268  -0.60129
 Alpha  occ. eigenvalues --   -0.59729  -0.59487  -0.58925  -0.58685  -0.58360
 Alpha  occ. eigenvalues --   -0.58201  -0.57497  -0.57280  -0.57168  -0.57015
 Alpha  occ. eigenvalues --   -0.56138  -0.56002  -0.55832  -0.55680  -0.55389
 Alpha  occ. eigenvalues --   -0.55212  -0.55183  -0.55067  -0.54424  -0.54244
 Alpha  occ. eigenvalues --   -0.53844  -0.53575  -0.53160  -0.53076  -0.52997
 Alpha  occ. eigenvalues --   -0.52903  -0.52833  -0.52610  -0.52598  -0.52431
 Alpha  occ. eigenvalues --   -0.52322  -0.52185  -0.51823  -0.51629  -0.51589
 Alpha  occ. eigenvalues --   -0.51292  -0.51141  -0.50902  -0.50402  -0.50238
 Alpha  occ. eigenvalues --   -0.49911  -0.49798  -0.49760  -0.49601  -0.49418
 Alpha  occ. eigenvalues --   -0.49202  -0.49138  -0.49049  -0.48906  -0.48797
 Alpha  occ. eigenvalues --   -0.48499  -0.48316  -0.48300  -0.48272  -0.48184
 Alpha  occ. eigenvalues --   -0.48135  -0.47529  -0.47391  -0.47051  -0.46995
 Alpha  occ. eigenvalues --   -0.46639  -0.46503  -0.46486  -0.46239  -0.46201
 Alpha  occ. eigenvalues --   -0.46056  -0.46020  -0.45874  -0.45766  -0.45535
 Alpha  occ. eigenvalues --   -0.45141  -0.44933  -0.44455  -0.44409  -0.44284
 Alpha  occ. eigenvalues --   -0.44201  -0.44068  -0.44008  -0.43875  -0.43854
 Alpha  occ. eigenvalues --   -0.43789  -0.43711  -0.43498  -0.43321  -0.43203
 Alpha  occ. eigenvalues --   -0.43083  -0.42875  -0.42841  -0.42731  -0.42479
 Alpha  occ. eigenvalues --   -0.42416  -0.42380  -0.41890  -0.41728  -0.41611
 Alpha  occ. eigenvalues --   -0.41404  -0.41388  -0.41225  -0.40926  -0.40845
 Alpha  occ. eigenvalues --   -0.40650  -0.40626  -0.40572  -0.40505  -0.40423
 Alpha  occ. eigenvalues --   -0.40297  -0.40152  -0.39893  -0.39345  -0.39191
 Alpha  occ. eigenvalues --   -0.38279  -0.38195  -0.37581  -0.37425  -0.37193
 Alpha  occ. eigenvalues --   -0.37128  -0.37034  -0.36938  -0.36711  -0.36416
 Alpha  occ. eigenvalues --   -0.36148  -0.35895  -0.34181  -0.33971  -0.33787
 Alpha  occ. eigenvalues --   -0.33445  -0.33103  -0.32871  -0.31200  -0.31036
 Alpha  occ. eigenvalues --   -0.30901  -0.30724  -0.29918  -0.29732  -0.29256
 Alpha  occ. eigenvalues --   -0.29144  -0.29125  -0.29005  -0.23963  -0.23763
 Alpha  occ. eigenvalues --   -0.21045  -0.20813
 Alpha virt. eigenvalues --   -0.08721  -0.08456  -0.01610  -0.01436   0.00041
 Alpha virt. eigenvalues --    0.00264   0.02266   0.02502   0.03348   0.03557
 Alpha virt. eigenvalues --    0.04800   0.05031   0.05226   0.05414   0.06250

 Mulliken charges:
               1
     1  Mg   0.840978
     2  C   -0.002165
     3  C   -0.093121
     4  C   -0.046204
     5  C   -0.064350
     6  N   -0.256712
     7  C   -0.052065
     8  C   -0.014392
     9  C   -0.087223
    10  C    0.046982
    11  C    0.104954
    12  C    0.053234
    13  C   -0.071295
    14  H    0.035238
    15  N   -0.433067
    16  C    0.169408
    17  C   -0.176183
    18  C   -0.003666
    19  C    0.149115
    20  C    0.110127
    21  C    0.012623
    22  O   -0.250637
    23  C    0.061916
    24  N   -0.341166
    25  C    0.041335
    26  C   -0.028031
    27  C   -0.023796
    28  C    0.074799
    29  C    0.076421
    30  C    0.035324
    31  C   -0.004441
    32  N   -0.310378
    33  C    0.080474
    34  C   -0.170031
    35  C    0.008069
    36  C    0.083388
    37  C    0.127357
    38  C    0.046156
    39  O   -0.189322
    40  C   -0.005496
    41  C    0.212414
    42  O   -0.255573
    43  O   -0.305178
    44  C    0.157944
    45  H   -0.017961
    46  H   -0.017522
    47  H   -0.042262
    48  H    0.000191
    49  H   -0.003823
    50  H    0.025070
    51  H    0.016166
    52  H    0.016107
    53  H    0.013333
    54  H    0.045416
    55  H    0.016844
    56  H    0.017909
    57  H    0.005744
    58  H    0.025922
    59  H    0.041786
    60  H    0.036815
    61  H    0.034854
    62  H    0.033913
    63  H    0.016015
    64  H    0.008897
    65  H    0.022558
    66  H    0.012495
    67  H    0.004268
    68  H    0.005455
    69  H    0.004395
    70  H    0.008058
    71  H    0.017381
    72  H    0.030385
    73  H    0.047259
    74  H    0.008628
    75  H    0.045354
    76  H    0.034470
    77  H    0.041958
    78  H    0.046169
    79  H    0.053988
    80  Mg   0.838731
    81  C   -0.016498
    82  C   -0.087767
    83  C   -0.045436
    84  C   -0.064843
    85  N   -0.254574
    86  C   -0.049701
    87  C   -0.015228
    88  C   -0.090542
    89  C    0.045958
    90  C    0.114450
    91  C    0.062451
    92  C   -0.077874
    93  H    0.035050
    94  N   -0.423461
    95  C    0.163154
    96  C   -0.174615
    97  C   -0.007723
    98  C    0.152241
    99  C    0.099415
   100  C    0.015717
   101  O   -0.253218
   102  C    0.061119
   103  N   -0.350082
   104  C    0.037524
   105  C   -0.019805
   106  C   -0.034849
   107  C    0.088968
   108  C    0.073734
   109  C    0.034698
   110  C   -0.007668
   111  N   -0.324134
   112  C    0.078624
   113  C   -0.162829
   114  C    0.001863
   115  C    0.096713
   116  C    0.131367
   117  C    0.042759
   118  O   -0.189341
   119  C    0.000833
   120  C    0.210556
   121  O   -0.249413
   122  O   -0.306001
   123  C    0.152145
   124  H   -0.019825
   125  H   -0.015630
   126  H   -0.040358
   127  H   -0.001084
   128  H   -0.004296
   129  H    0.022179
   130  H    0.014362
   131  H    0.016068
   132  H    0.014370
   133  H    0.038429
   134  H    0.020227
   135  H    0.019611
   136  H    0.008690
   137  H    0.025961
   138  H    0.040048
   139  H    0.038089
   140  H    0.036374
   141  H    0.034211
   142  H    0.014477
   143  H    0.012248
   144  H    0.025044
   145  H    0.011493
   146  H    0.005525
   147  H    0.006013
   148  H    0.003809
   149  H    0.010836
   150  H    0.018032
   151  H    0.030580
   152  H    0.045808
   153  H    0.009120
   154  H    0.046337
   155  H    0.034443
   156  H    0.042510
   157  H    0.049602
   158  H    0.054227
 Sum of Mulliken charges =  -0.00000

 Dipole moment (field-independent basis, Debye):
    X=              2.0558    Y=              2.8670    Z=             -3.4230  Tot=              4.9156
 Quadrupole moment (field-independent basis, Debye-Ang):
   XX=           -449.8505   YY=           -464.3447   ZZ=           -530.8063
   XY=             24.6451   XZ=             20.4364   YZ=            -20.6195

 Normal termination of Gaussian 16 at Sat Sep 11 09:08:44 2021.
