 Gaussian 16, Revision A.03,
 Gaussian 16:  ES64L-G16RevA.03 25-Dec-2016

 -----------------------------------
 #p cam-b3lyp/Def2SVP td=(nstates=5)
 -----------------------------------

 --------------------------------
 TDDFT excited states in gaussian
 --------------------------------
 Symbolic Z-matrix:
 Charge =  0 Multiplicity = 1

                         Standard orientation:
 ---------------------------------------------------------------------
 Center     Atomic      Atomic             Coordinates (Angstroms)
 Number     Number       Type             X           Y           Z
 ---------------------------------------------------------------------
      1         12           0        4.782015    0.092680    0.212706
      2          6           0        4.624758   -3.173032   -1.244212
      3          6           0        5.746752    1.249582   -2.848980
      4          6           0        5.365982    2.895488    1.576477
      5          6           0        4.918540   -1.464636    3.327476
      6          7           0        5.106874   -0.929624   -1.723787
      7          6           0        4.954258   -2.174748   -2.163725
      8          6           0        5.103445   -2.306672   -3.708948
      9          6           0        5.993150   -1.013246   -3.987285
     10          6           0        5.565220   -0.164617   -2.802959
     11          6           0        7.492986   -1.272794   -3.889157
     12          6           0        3.725733   -2.224312   -4.448446
     13          6           0        3.743494   -2.667206   -5.914353
     14          1           0        2.582383   -3.361440   -6.450272
     15          7           0        4.981191    1.888967   -0.585123
     16          6           0        5.367280    2.174154   -1.851966
     17          6           0        5.360550    3.649087   -1.957836
     18          6           0        5.122945    4.201984   -0.595506
     19          6           0        5.173964    3.002719    0.201073
     20          6           0        5.516908    4.381631   -3.255018
     21          6           0        4.897735    5.591996   -0.090257
     22          8           0        4.943517    5.878901    1.154799
     23          6           0        4.707309    6.638975   -1.110363
     24          7           0        5.319028    0.643204    2.153370
     25          6           0        5.452962    1.929786    2.493593
     26          6           0        5.560014    2.092996    3.980819
     27          6           0        5.226119    0.662840    4.607653
     28          6           0        5.055778   -0.137224    3.292681
     29          6           0        6.919714    2.575106    4.505030
     30          6           0        4.089921    0.603923    5.659319
     31          6           0        2.763834    0.909975    4.999833
     32          7           0        4.597600   -1.937270    0.958587
     33          6           0        4.710710   -2.359433    2.291126
     34          6           0        4.620515   -3.831138    2.287160
     35          6           0        4.476894   -4.166073    0.942156
     36          6           0        4.503692   -2.980581    0.153370
     37          6           0        4.731809   -4.675959    3.426601
     38          6           0        4.331753   -5.251404   -0.014321
     39          8           0        4.155348   -6.467365    0.074079
     40          6           0        4.543965   -4.661105   -1.477995
     41          6           0        3.426377   -5.177377   -2.342730
     42          8           0        2.247046   -4.820644   -2.144522
     43          8           0        3.943689   -5.814772   -3.404171
     44          6           0        2.887978   -6.326334   -4.318465
     45          1           0        6.279927    1.686010   -3.695855
     46          1           0        5.460452    3.849641    2.099071
     47          1           0        4.868454   -2.013597    4.269593
     48          1           0        5.632405   -3.200627   -4.039812
     49          1           0        5.719510   -0.524570   -4.922186
     50          1           0        7.700185   -2.275877   -3.516579
     51          1           0        7.873365   -0.522859   -3.195326
     52          1           0        7.983511   -1.075057   -4.842604
     53          1           0        3.447246   -1.178026   -4.574112
     54          1           0        2.964487   -2.790018   -3.910107
     55          1           0        4.657980   -3.209749   -6.155748
     56          1           0        3.784323   -1.775567   -6.540062
     57          1           0        5.840333    3.716057   -4.054363
     58          1           0        6.345671    5.078122   -3.129470
     59          1           0        4.614795    4.929131   -3.528454
     60          1           0        5.584684    6.675764   -1.756435
     61          1           0        4.471088    7.551532   -0.564205
     62          1           0        3.867967    6.361506   -1.748694
     63          1           0        4.837567    2.821124    4.347323
     64          1           0        6.085602    0.230188    5.120268
     65          1           0        6.861743    3.488599    5.097376
     66          1           0        7.583643    2.704432    3.650767
     67          1           0        7.467687    1.841965    5.096339
     68          1           0        4.246738    1.358266    6.429593
     69          1           0        4.011374   -0.364127    6.154255
     70          1           0        2.740665    1.999129    4.993650
     71          1           0        1.942234    0.505350    5.591832
     72          1           0        2.749527    0.577850    3.961578
     73          1           0        3.949175   -5.427900    3.326418
     74          1           0        4.621421   -4.110099    4.351382
     75          1           0        5.741423   -5.063957    3.292460
     76          1           0        5.518872   -5.009051   -1.818012
     77          1           0        3.055760   -7.397053   -4.435267
     78          1           0        2.927719   -5.707205   -5.214850
     79          1           0        1.868926   -6.318876   -3.930114
     80         12           0       -4.172417    1.038975    0.323507
     81          6           0       -6.776438   -1.429341    0.249051
     82          6           0       -5.926672    2.744998   -2.052770
     83          6           0       -1.690099    2.994306    0.036773
     84          6           0       -2.125334   -1.366264    1.796588
     85          7           0       -6.090927    0.611650   -0.690883
     86          6           0       -7.022276   -0.325057   -0.593290
     87          6           0       -8.323043   -0.023676   -1.384958
     88          6           0       -7.711082    0.978440   -2.480469
     89          6           0       -6.519549    1.510253   -1.686677
     90          6           0       -7.183314    0.269276   -3.716547
     91          6           0       -9.409622    0.684645   -0.501979
     92          6           0      -10.809541    0.730060   -1.118344
     93          1           0      -11.964278    0.610011   -0.232545
     94          7           0       -4.056113    2.861319   -0.453734
     95          6           0       -4.863691    3.398910   -1.391868
     96          6           0       -4.347630    4.754334   -1.638156
     97          6           0       -3.071381    4.913574   -0.889453
     98          6           0       -2.874727    3.559279   -0.412688
     99          6           0       -5.093747    5.774367   -2.448253
    100          6           0       -2.169658    6.087245   -0.653686
    101          8           0       -0.990234    5.944310   -0.172679
    102          6           0       -2.672560    7.398280   -1.089287
    103          7           0       -2.133942    0.786115    0.644442
    104          6           0       -1.278280    1.812753    0.496830
    105          6           0        0.086106    1.468837    1.045079
    106          6           0       -0.097655    0.078403    1.813532
    107          6           0       -1.581670   -0.197346    1.486365
    108          6           0        1.204007    1.334801    0.011300
    109          6           0        0.352958    0.030487    3.299237
    110          6           0       -0.548526    0.905177    4.140449
    111          7           0       -4.430838   -0.963250    1.093165
    112          6           0       -3.435740   -1.800665    1.643249
    113          6           0       -4.069142   -3.106565    1.918658
    114          6           0       -5.393543   -2.944316    1.484952
    115          6           0       -5.567671   -1.636630    0.956623
    116          6           0       -3.414704   -4.252538    2.452121
    117          6           0       -6.681125   -3.585427    1.344158
    118          8           0       -7.157998   -4.663380    1.696761
    119          6           0       -7.600868   -2.674813    0.421520
    120          6           0       -8.941502   -2.540585    1.090238
    121          8           0       -9.049290   -1.943953    2.176069
    122          8           0       -9.901291   -2.945007    0.238396
    123          6           0      -11.250108   -2.820215    0.852355
    124          1           0       -6.279657    3.242212   -2.956686
    125          1           0       -0.827693    3.664469    0.061467
    126          1           0       -1.579569   -2.136565    2.345630
    127          1           0       -8.766755   -0.882791   -1.873649
    128          1           0       -8.404874    1.782594   -2.711436
    129          1           0       -7.199547   -0.804470   -3.602762
    130          1           0       -6.168073    0.620679   -3.846337
    131          1           0       -7.732040    0.598964   -4.603419
    132          1           0       -9.189403    1.758979   -0.456526
    133          1           0       -9.458174    0.239235    0.472632
    134          1           0      -10.906779    0.047302   -1.971181
    135          1           0      -10.966828    1.721677   -1.549597
    136          1           0       -5.919138    5.317808   -3.008318
    137          1           0       -4.406368    6.133333   -3.221885
    138          1           0       -5.427902    6.624830   -1.850144
    139          1           0       -2.885034    7.367569   -2.155298
    140          1           0       -1.927074    8.122776   -0.755763
    141          1           0       -3.625120    7.593091   -0.584020
    142          1           0        0.419503    2.219283    1.751323
    143          1           0        0.483192   -0.727741    1.341757
    144          1           0        2.060505    2.007871    0.204873
    145          1           0        0.786676    1.522749   -0.969037
    146          1           0        1.612371    0.331776   -0.099880
    147          1           0        1.362580    0.435773    3.402031
    148          1           0        0.364279   -0.971483    3.715067
    149          1           0       -0.120841    1.903038    4.004680
    150          1           0       -0.513610    0.599454    5.184176
    151          1           0       -1.566992    0.925153    3.735510
    152          1           0       -4.079387   -4.673019    3.195009
    153          1           0       -2.448998   -3.994809    2.881943
    154          1           0       -3.312942   -4.857847    1.547391
    155          1           0       -7.675433   -3.163406   -0.550744
    156          1           0      -11.720624   -3.806514    0.793045
    157          1           0      -11.747718   -1.991556    0.314352
    158          1           0      -11.299987   -2.625798    1.917321
 ---------------------------------------------------------------------

 SCF Done:  E(RCAM-B3LYP) =  -4069.80187312     A.U. after   19 cycles

 Excitation energies and oscillator strengths:

 Excited State   1:      Singlet-A      1.6421 eV  755.01 nm  f=0.0019  <S**2>=0.000
     309 -> 315       -0.11328
     310 -> 316        0.12022
     311 -> 313       -0.47000
     312 -> 314        0.50229
 This state for optimization and/or second-order correction.
 Total Energy, E(TD-HF/TD-DFT) =  -4069.74152539
 Copying the excited state density for this state as the 1-particle RhoCI density.

 Excited State   2:      Singlet-A      1.7057 eV  726.87 nm  f=0.6855  <S**2>=0.000
     309 -> 315        0.13317
     310 -> 316        0.12293
     311 -> 313        0.49953
     312 -> 314        0.46726

 Excited State   3:      Singlet-A      2.1819 eV  568.24 nm  f=0.0957  <S**2>=0.000
     309 -> 313       -0.17900
     310 -> 314        0.61814
     312 -> 316       -0.25889

 Excited State   4:      Singlet-A      2.1940 eV  565.10 nm  f=0.1035  <S**2>=0.000
     309 -> 313        0.61179
     310 -> 314        0.17632
     311 -> 315       -0.26800

 Excited State   5:      Singlet-A      2.3168 eV  535.16 nm  f=0.0007  <S**2>=0.000
     312 -> 313        0.70277

 The electronic state is 1-A.
 Alpha  occ. eigenvalues --  -46.87947 -46.87409 -19.26347 -19.26177 -19.19100
 Alpha  occ. eigenvalues --  -19.18979 -19.18701 -19.18534 -19.18242 -19.17826
 Alpha  occ. eigenvalues --  -14.42543 -14.42255 -14.41591 -14.41097 -14.39464
 Alpha  occ. eigenvalues --  -14.39112 -14.38709 -14.38341 -10.39159 -10.38904
 Alpha  occ. eigenvalues --  -10.35326 -10.35220 -10.34466 -10.34001 -10.31721
 Alpha  occ. eigenvalues --  -10.31606 -10.31524 -10.31049 -10.30976 -10.30827
 Alpha  occ. eigenvalues --  -10.30688 -10.30623 -10.30339 -10.30125 -10.30082
 Alpha  occ. eigenvalues --  -10.30079 -10.29836 -10.29706 -10.29639 -10.29336
 Alpha  occ. eigenvalues --  -10.29203 -10.29128 -10.28818 -10.28592 -10.28536
 Alpha  occ. eigenvalues --  -10.28518 -10.28450 -10.28194 -10.28188 -10.27945
 Alpha  occ. eigenvalues --  -10.27871 -10.27817 -10.27765 -10.27699 -10.27642
 Alpha  occ. eigenvalues --  -10.27620 -10.27493 -10.27455 -10.27427 -10.27301
 Alpha  occ. eigenvalues --  -10.27245 -10.27238 -10.27234 -10.27220 -10.27097
 Alpha  occ. eigenvalues --  -10.26833 -10.26769 -10.26532 -10.26430 -10.26308
 Alpha  occ. eigenvalues --  -10.26303 -10.26173 -10.26129 -10.25956 -10.25845
 Alpha  occ. eigenvalues --  -10.25688 -10.25609 -10.25545 -10.25435 -10.25173
 Alpha  occ. eigenvalues --  -10.25087 -10.24920 -10.24918 -10.24629 -10.24463
 Alpha  occ. eigenvalues --  -10.24419  -3.16622  -3.16159  -1.91506  -1.91094
 Alpha  occ. eigenvalues --   -1.91041  -1.90934  -1.90630  -1.90467  -1.16698
 Alpha  occ. eigenvalues --   -1.16468  -1.08702  -1.08433  -1.07089  -1.06795
 Alpha  occ. eigenvalues --   -1.06763  -1.06720  -1.04675  -1.04259  -1.03878
 Alpha  occ. eigenvalues --   -1.03412  -1.03338  -1.02780  -1.02523  -1.01863
 Alpha  occ. eigenvalues --   -0.92067  -0.91749  -0.89742  -0.89271  -0.89187
 Alpha  occ. eigenvalues --   -0.88947  -0.88475  -0.88000  -0.87969  -0.87771
 Alpha  occ. eigenvalues --   -0.87511  -0.87441  -0.87261  -0.86914  -0.85060
 Alpha  occ. eigenvalues --   -0.84803  -0.84257  -0.83658  -0.82986  -0.82754
 Alpha  occ. eigenvalues --   -0.82649  -0.82458  -0.81672  -0.81373  -0.80663
 Alpha  occ. eigenvalues --   -0.80225  -0.78840  -0.78400  -0.77392  -0.77062
 Alpha  occ. eigenvalues --   -0.76908  -0.76700  -0.76013  -0.75623  -0.75079
 Alpha  occ. eigenvalues --   -0.74712  -0.72904  -0.72442  -0.71774  -0.71413
 Alpha  occ. eigenvalues --   -0.70499  -0.69423  -0.68947  -0.68611  -0.67710
 Alpha  occ. eigenvalues --   -0.67385  -0.67245  -0.67014  -0.65449  -0.65124
 Alpha  occ. eigenvalues --   -0.65005  -0.64835  -0.64565  -0.64486  -0.64365
 Alpha  occ. eigenvalues --   -0.63807  -0.62400  -0.62052  -0.60490  -0.60130
 Alpha  occ. eigenvalues --   -0.59883  -0.59581  -0.59099  -0.58759  -0.58606
 Alpha  occ. eigenvalues --   -0.58196  -0.57675  -0.57424  -0.57329  -0.57020
 Alpha  occ. eigenvalues --   -0.56386  -0.56051  -0.55962  -0.55698  -0.55585
 Alpha  occ. eigenvalues --   -0.55487  -0.55248  -0.55079  -0.54687  -0.54371
 Alpha  occ. eigenvalues --   -0.53977  -0.53717  -0.53482  -0.53240  -0.53177
 Alpha  occ. eigenvalues --   -0.53010  -0.52974  -0.52915  -0.52707  -0.52690
 Alpha  occ. eigenvalues --   -0.52497  -0.52089  -0.51999  -0.51641  -0.51557
 Alpha  occ. eigenvalues --   -0.51465  -0.51297  -0.50911  -0.50537  -0.50369
 Alpha  occ. eigenvalues --   -0.50220  -0.49981  -0.49805  -0.49732  -0.49479
 Alpha  occ. eigenvalues --   -0.49301  -0.49264  -0.49153  -0.48991  -0.48894
 Alpha  occ. eigenvalues --   -0.48681  -0.48576  -0.48445  -0.48351  -0.48268
 Alpha  occ. eigenvalues --   -0.48151  -0.47718  -0.47392  -0.47357  -0.46984
 Alpha  occ. eigenvalues --   -0.46935  -0.46618  -0.46506  -0.46432  -0.46372
 Alpha  occ. eigenvalues --   -0.46349  -0.46065  -0.45949  -0.45876  -0.45599
 Alpha  occ. eigenvalues --   -0.45484  -0.45141  -0.44970  -0.44618  -0.44388
 Alpha  occ. eigenvalues --   -0.44320  -0.44234  -0.44163  -0.44007  -0.43924
 Alpha  occ. eigenvalues --   -0.43763  -0.43742  -0.43574  -0.43555  -0.43359
 Alpha  occ. eigenvalues --   -0.43300  -0.43105  -0.43028  -0.42757  -0.42725
 Alpha  occ. eigenvalues --   -0.42631  -0.42392  -0.42091  -0.41825  -0.41686
 Alpha  occ. eigenvalues --   -0.41582  -0.41410  -0.41271  -0.41218  -0.40915
 Alpha  occ. eigenvalues --   -0.40796  -0.40771  -0.40711  -0.40553  -0.40375
 Alpha  occ. eigenvalues --   -0.40259  -0.40061  -0.39853  -0.39573  -0.38777
 Alpha  occ. eigenvalues --   -0.38629  -0.38127  -0.37802  -0.37480  -0.37451
 Alpha  occ. eigenvalues --   -0.37329  -0.36985  -0.36871  -0.36728  -0.36512
 Alpha  occ. eigenvalues --   -0.36278  -0.35888  -0.34389  -0.33971  -0.33854
 Alpha  occ. eigenvalues --   -0.33667  -0.33294  -0.32920  -0.31274  -0.31104
 Alpha  occ. eigenvalues --   -0.31094  -0.30734  -0.30105  -0.29727  -0.29498
 Alpha  occ. eigenvalues --   -0.29398  -0.29094  -0.28952  -0.24191  -0.23779
 Alpha  occ. eigenvalues --   -0.21240  -0.20865
 Alpha virt. eigenvalues --   -0.08857  -0.08545  -0.01861  -0.01466  -0.00053
 Alpha virt. eigenvalues --    0.00173   0.02104   0.02466   0.03421   0.04013
 Alpha virt. eigenvalues --    0.04597   0.04949   0.05021   0.05358   0.06113

 Mulliken charges:
               1
     1  Mg   0.791201
     2  C    0.001735
     3  C   -0.091555
     4  C   -0.046631
     5  C   -0.063454
     6  N   -0.251741
     7  C   -0.056361
     8  C   -0.013297
     9  C   -0.087230
    10  C    0.046030
    11  C    0.104824
    12  C    0.053050
    13  C   -0.071913
    14  H    0.036315
    15  N   -0.433329
    16  C    0.170005
    17  C   -0.176521
    18  C   -0.002980
    19  C    0.143502
    20  C    0.110451
    21  C    0.017439
    22  O   -0.248462
    23  C    0.061183
    24  N   -0.335064
    25  C    0.040441
    26  C   -0.029015
    27  C   -0.027337
    28  C    0.070434
    29  C    0.076675
    30  C    0.072062
    31  C   -0.078877
    32  N   -0.307181
    33  C    0.076213
    34  C   -0.171737
    35  C    0.008348
    36  C    0.077236
    37  C    0.127633
    38  C    0.045945
    39  O   -0.188116
    40  C   -0.006997
    41  C    0.213035
    42  O   -0.257817
    43  O   -0.304682
    44  C    0.157495
    45  H   -0.017714
    46  H   -0.016282
    47  H   -0.042871
    48  H    0.000964
    49  H   -0.003758
    50  H    0.025662
    51  H    0.016639
    52  H    0.016958
    53  H    0.011752
    54  H    0.043975
    55  H    0.017999
    56  H    0.018047
    57  H    0.005454
    58  H    0.027098
    59  H    0.041880
    60  H    0.035036
    61  H    0.037735
    62  H    0.036809
    63  H    0.016574
    64  H    0.010625
    65  H    0.023954
    66  H    0.013456
    67  H    0.004974
    68  H    0.003157
    69  H    0.003605
    70  H    0.015197
    71  H    0.026490
    72  H    0.093399
    73  H    0.046912
    74  H    0.008376
    75  H    0.046572
    76  H    0.035564
    77  H    0.043351
    78  H    0.046454
    79  H    0.053928
    80  Mg   0.838095
    81  C   -0.017364
    82  C   -0.088360
    83  C   -0.047115
    84  C   -0.061489
    85  N   -0.254596
    86  C   -0.049379
    87  C   -0.015164
    88  C   -0.090422
    89  C    0.045554
    90  C    0.114616
    91  C    0.062629
    92  C   -0.077565
    93  H    0.034370
    94  N   -0.422990
    95  C    0.162323
    96  C   -0.175905
    97  C   -0.008878
    98  C    0.151243
    99  C    0.099940
   100  C    0.014255
   101  O   -0.253802
   102  C    0.061266
   103  N   -0.350127
   104  C    0.039108
   105  C   -0.019443
   106  C   -0.038648
   107  C    0.091432
   108  C    0.033959
   109  C    0.030558
   110  C   -0.007119
   111  N   -0.324548
   112  C    0.078335
   113  C   -0.161257
   114  C    0.002099
   115  C    0.096906
   116  C    0.132257
   117  C    0.042899
   118  O   -0.187650
   119  C    0.000801
   120  C    0.211139
   121  O   -0.251287
   122  O   -0.305603
   123  C    0.152182
   124  H   -0.020876
   125  H   -0.016204
   126  H   -0.036411
   127  H   -0.000864
   128  H   -0.004993
   129  H    0.022565
   130  H    0.014307
   131  H    0.015289
   132  H    0.013851
   133  H    0.037609
   134  H    0.020606
   135  H    0.019258
   136  H    0.008179
   137  H    0.024288
   138  H    0.038990
   139  H    0.036932
   140  H    0.035570
   141  H    0.034176
   142  H    0.014701
   143  H    0.022126
   144  H    0.067354
   145  H    0.012935
   146  H    0.023579
   147  H   -0.012033
   148  H    0.000883
   149  H    0.009651
   150  H    0.017066
   151  H    0.028198
   152  H    0.044755
   153  H    0.010023
   154  H    0.050999
   155  H    0.035072
   156  H    0.043684
   157  H    0.049194
   158  H    0.053366
 Sum of Mulliken charges =  -0.00000

 Dipole moment (field-independent basis, Debye):
    X=              1.9919    Y=              5.3378    Z=             -6.4769  Tot=              8.6261
 Quadrupole moment (field-independent basis, Debye-Ang):
   XX=           -472.6294   YY=           -551.3939   ZZ=           -465.2542
   XY=            -28.4090   XZ=             20.6656   YZ=             -9.8078

 Normal termination of Gaussian 16 at Fri Sep 10 06:51:37 2021.
