 Gaussian 16, Revision A.03,
 Gaussian 16:  ES64L-G16RevA.03 25-Dec-2016

 -----------------------------------
 #p cam-b3lyp/Def2SVP td=(nstates=5)
 -----------------------------------

 --------------------------------
 TDDFT excited states in gaussian
 --------------------------------
 Symbolic Z-matrix:
 Charge =  0 Multiplicity = 1

                         Standard orientation:
 ---------------------------------------------------------------------
 Center     Atomic      Atomic             Coordinates (Angstroms)
 Number     Number       Type             X           Y           Z
 ---------------------------------------------------------------------
      1         12           0        3.898687   -0.549149    0.367270
      2          6           0        4.127436    2.705502   -1.104851
      3          6           0        4.364968    0.951208    3.396227
      4          6           0        4.154370   -3.442810    1.639264
      5          6           0        4.583555   -1.862463   -2.787381
      6          7           0        4.194750    1.567655    0.943583
      7          6           0        4.202109    2.725029    0.289670
      8          6           0        4.220549    3.966377    1.230993
      9          6           0        4.860101    3.290901    2.525870
     10          6           0        4.417994    1.856603    2.295101
     11          6           0        6.384521    3.337563    2.547468
     12          6           0        2.782563    4.513741    1.521367
     13          6           0        2.729459    5.905379    2.158453
     14          1           0        1.648507    6.805382    1.785780
     15          7           0        3.729062   -1.143368    2.243698
     16          6           0        3.940182   -0.394349    3.352610
     17          6           0        3.686699   -1.288530    4.502771
     18          6           0        3.496194   -2.667600    3.973651
     19          6           0        3.815677   -2.475154    2.582151
     20          6           0        3.597446   -0.804297    5.917445
     21          6           0        3.100757   -3.956770    4.621572
     22          8           0        3.219973   -5.081881    4.026185
     23          6           0        2.647173   -3.876214    6.021863
     24          7           0        4.525344   -2.386938   -0.399193
     25          6           0        4.483349   -3.496237    0.346916
     26          6           0        4.705992   -4.723455   -0.486333
     27          6           0        4.668019   -4.238098   -2.007102
     28          6           0        4.502028   -2.717470   -1.765429
     29          6           0        6.014921   -5.481382   -0.225065
     30          6           0        3.662972   -4.949526   -2.947405
     31          6           0        2.247535   -4.611645   -2.535734
     32          7           0        4.115284    0.237821   -1.643901
     33          6           0        4.422854   -0.487049   -2.804348
     34          6           0        4.569998    0.490707   -3.898152
     35          6           0        4.352725    1.725852   -3.290652
     36          6           0        4.112645    1.534002   -1.900024
     37          6           0        4.924943    0.189837   -5.242743
     38          6           0        4.291890    3.165006   -3.488110
     39          8           0        4.322241    3.907542   -4.470562
     40          6           0        4.264242    3.866168   -2.058622
     41          6           0        3.165725    4.893888   -2.077650
     42          8           0        1.969173    4.549811   -2.162736
     43          8           0        3.673613    6.093476   -1.755810
     44          6           0        2.630335    7.153159   -1.727573
     45          1           0        4.736876    1.280271    4.368514
     46          1           0        4.144564   -4.468102    2.014924
     47          1           0        4.713444   -2.205136   -3.815562
     48          1           0        4.851618    4.786838    0.888912
     49          1           0        4.422583    3.678990    3.445482
     50          1           0        6.784986    3.713270    1.605984
     51          1           0        6.704873    2.308898    2.713949
     52          1           0        6.742536    3.905635    3.406477
     53          1           0        2.328993    3.926688    2.319930
     54          1           0        2.177556    4.509286    0.614023
     55          1           0        3.691493    6.413561    2.086684
     56          1           0        2.566062    5.784720    3.229407
     57          1           0        3.944717    0.223859    6.011481
     58          1           0        4.311925   -1.386584    6.498969
     59          1           0        2.597037   -0.929914    6.331852
     60          1           0        3.440709   -3.445663    6.632990
     61          1           0        2.321478   -4.880456    6.290692
     62          1           0        1.805536   -3.185508    6.081208
     63          1           0        3.914908   -5.454578   -0.324861
     64          1           0        5.631231   -4.366306   -2.501529
     65          1           0        5.868633   -6.526967    0.047068
     66          1           0        6.563828   -4.948462    0.550814
     67          1           0        6.727950   -5.459620   -1.048797
     68          1           0        3.770394   -6.030838   -2.868858
     69          1           0        3.788945   -4.679017   -3.995836
     70          1           0        2.049430   -5.325342   -1.736846
     71          1           0        1.562581   -4.760658   -3.371104
     72          1           0        2.186471   -3.612903   -2.102984
     73          1           0        4.267124    0.788135   -5.873047
     74          1           0        4.815056   -0.873848   -5.452748
     75          1           0        5.965987    0.512270   -5.253754
     76          1           0        5.244879    4.317800   -1.911986
     77          1           0        2.955656    7.942030   -2.405867
     78          1           0        2.483444    7.415544   -0.679727
     79          1           0        1.665633    6.891578   -2.163767
     80         12           0       -3.987226   -0.900111   -0.533058
     81          6           0       -4.064946    2.492403    0.634793
     82          6           0       -3.433610   -1.842315    2.698099
     83          6           0       -3.465653   -3.847332   -1.586266
     84          6           0       -3.405870    0.360062   -3.729878
     85          7           0       -3.795114    0.266595    1.336216
     86          6           0       -3.904033    1.544550    1.666831
     87          6           0       -3.917209    1.814596    3.195378
     88          6           0       -3.148600    0.490528    3.680124
     89          6           0       -3.505441   -0.437502    2.520763
     90          6           0       -1.637852    0.650758    3.716091
     91          6           0       -5.372527    1.879875    3.778306
     92          6           0       -5.472213    2.444165    5.197246
     93          1           0       -6.637970    3.252107    5.544682
     94          7           0       -4.005443   -2.632117    0.435652
     95          6           0       -3.782619   -2.830739    1.751769
     96          6           0       -3.888091   -4.282779    1.963026
     97          6           0       -4.028171   -4.940954    0.635666
     98          6           0       -3.812929   -3.809372   -0.243691
     99          6           0       -3.931210   -4.905414    3.328272
    100          6           0       -4.297030   -6.357177    0.225494
    101          8           0       -4.141128   -6.748777   -0.984943
    102          6           0       -4.657981   -7.293601    1.299892
    103          7           0       -3.296517   -1.648037   -2.345756
    104          6           0       -3.213131   -2.972783   -2.560279
    105          6           0       -2.956964   -3.274305   -4.017626
    106          6           0       -3.126971   -1.879486   -4.781280
    107          6           0       -3.375115   -0.955694   -3.568662
    108          6           0       -1.586894   -3.868741   -4.343125
    109          6           0       -4.138717   -1.840797   -5.959219
    110          6           0       -5.546362   -2.015894   -5.436495
    111          7           0       -3.952871    1.055149   -1.451675
    112          6           0       -3.662396    1.359257   -2.799720
    113          6           0       -3.649262    2.831528   -2.920812
    114          6           0       -3.912371    3.285636   -1.619650
    115          6           0       -4.057797    2.175029   -0.745059
    116          6           0       -3.368857    3.566152   -4.107328
    117          6           0       -4.089621    4.452130   -0.785029
    118          8           0       -4.162306    5.663267   -0.988971
    119          6           0       -4.070958    3.992489    0.736407
    120          6           0       -5.234987    4.642923    1.432446
    121          8           0       -6.402443    4.348030    1.121471
    122          8           0       -4.782436    5.338303    2.491696
    123          6           0       -5.901300    5.992705    3.220888
    124          1           0       -3.032272   -2.226996    3.636089
    125          1           0       -3.382930   -4.844899   -2.023866
    126          1           0       -3.329254    0.829697   -4.712861
    127          1           0       -3.370040    2.696737    3.505555
    128          1           0       -3.561599    0.112844    4.611868
    129          1           0       -1.322613    1.594017    3.295333
    130          1           0       -1.240799   -0.173106    3.137609
    131          1           0       -1.267908    0.509063    4.735599
    132          1           0       -5.733007    0.858580    3.956504
    133          1           0       -6.020615    2.430137    3.124240
    134          1           0       -4.548814    2.949207    5.505804
    135          1           0       -5.567962    1.609966    5.896516
    136          1           0       -3.641535   -4.188670    4.106588
    137          1           0       -3.146293   -5.668939    3.356436
    138          1           0       -4.891598   -5.377683    3.545700
    139          1           0       -3.860293   -7.320723    2.038413
    140          1           0       -4.898922   -8.233553    0.799574
    141          1           0       -5.548264   -6.911999    1.812127
    142          1           0       -3.687009   -3.976337   -4.401423
    143          1           0       -2.183793   -1.548769   -5.240471
    144          1           0       -1.646424   -4.840683   -4.868341
    145          1           0       -1.030202   -3.968388   -3.420791
    146          1           0       -0.935995   -3.230273   -4.938013
    147          1           0       -3.955783   -2.673293   -6.643071
    148          1           0       -4.087625   -0.927580   -6.542667
    149          1           0       -5.641350   -3.101806   -5.342351
    150          1           0       -6.270176   -1.616234   -6.143890
    151          1           0       -5.649528   -1.587720   -4.432664
    152          1           0       -4.095200    4.366439   -4.157000
    153          1           0       -3.415735    2.930377   -4.989010
    154          1           0       -2.349242    3.898436   -3.894608
    155          1           0       -3.115127    4.302445    1.160559
    156          1           0       -5.668647    7.060908    3.270832
    157          1           0       -5.989337    5.450906    4.181340
    158          1           0       -6.871690    6.009923    2.738699
 ---------------------------------------------------------------------

 SCF Done:  E(RCAM-B3LYP) =  -4069.81200244     A.U. after   19 cycles

 Excitation energies and oscillator strengths:

 Excited State   1:      Singlet-A      1.6450 eV  753.69 nm  f=0.0917  <S**2>=0.000
     309 -> 315       -0.11617
     310 -> 316        0.11832
     311 -> 313        0.48031
     312 -> 314        0.49185
 This state for optimization and/or second-order correction.
 Total Energy, E(TD-HF/TD-DFT) =  -4069.75154906
 Copying the excited state density for this state as the 1-particle RhoCI density.

 Excited State   2:      Singlet-A      1.6999 eV  729.35 nm  f=0.5662  <S**2>=0.000
     309 -> 315       -0.12887
     310 -> 316       -0.12628
     311 -> 313        0.48930
     312 -> 314       -0.47813

 Excited State   3:      Singlet-A      2.1822 eV  568.16 nm  f=0.0334  <S**2>=0.000
     309 -> 313       -0.41652
     310 -> 314        0.49158
     311 -> 315       -0.17339
     312 -> 316       -0.20605

 Excited State   4:      Singlet-A      2.1932 eV  565.30 nm  f=0.1499  <S**2>=0.000
     309 -> 313        0.48782
     310 -> 314        0.41235
     311 -> 315        0.21390
     312 -> 316       -0.18204

 Excited State   5:      Singlet-A      2.2336 eV  555.09 nm  f=0.0000  <S**2>=0.000
     312 -> 313        0.70707

 The electronic state is 1-A.
 Alpha  occ. eigenvalues --  -46.87906 -46.87405 -19.26252 -19.26224 -19.19024
 Alpha  occ. eigenvalues --  -19.19015 -19.19002 -19.18465 -19.18267 -19.17779
 Alpha  occ. eigenvalues --  -14.42557 -14.42261 -14.41552 -14.41108 -14.39526
 Alpha  occ. eigenvalues --  -14.39094 -14.38696 -14.38316 -10.39067 -10.38945
 Alpha  occ. eigenvalues --  -10.35655 -10.35145 -10.34479 -10.33960 -10.31710
 Alpha  occ. eigenvalues --  -10.31523 -10.31503 -10.31067 -10.31018 -10.30823
 Alpha  occ. eigenvalues --  -10.30684 -10.30624 -10.30325 -10.30107 -10.30069
 Alpha  occ. eigenvalues --  -10.30012 -10.29893 -10.29765 -10.29621 -10.29391
 Alpha  occ. eigenvalues --  -10.29164 -10.29102 -10.28816 -10.28636 -10.28607
 Alpha  occ. eigenvalues --  -10.28512 -10.28483 -10.28199 -10.28147 -10.28033
 Alpha  occ. eigenvalues --  -10.27924 -10.27843 -10.27732 -10.27703 -10.27702
 Alpha  occ. eigenvalues --  -10.27573 -10.27513 -10.27503 -10.27435 -10.27285
 Alpha  occ. eigenvalues --  -10.27237 -10.27216 -10.27214 -10.27180 -10.27178
 Alpha  occ. eigenvalues --  -10.26824 -10.26753 -10.26711 -10.26610 -10.26308
 Alpha  occ. eigenvalues --  -10.26223 -10.26186 -10.26132 -10.25989 -10.25980
 Alpha  occ. eigenvalues --  -10.25923 -10.25649 -10.25498 -10.25305 -10.25264
 Alpha  occ. eigenvalues --  -10.24956 -10.24893 -10.24687 -10.24556 -10.24533
 Alpha  occ. eigenvalues --  -10.24438  -3.16648  -3.16156  -1.91529  -1.91116
 Alpha  occ. eigenvalues --   -1.91038  -1.90958  -1.90627  -1.90463  -1.16582
 Alpha  occ. eigenvalues --   -1.16536  -1.08715  -1.08392  -1.07419  -1.06807
 Alpha  occ. eigenvalues --   -1.06721  -1.06622  -1.04688  -1.04262  -1.03867
 Alpha  occ. eigenvalues --   -1.03409  -1.03350  -1.02770  -1.02522  -1.01843
 Alpha  occ. eigenvalues --   -0.92066  -0.91735  -0.89603  -0.89263  -0.89250
 Alpha  occ. eigenvalues --   -0.89021  -0.88365  -0.87998  -0.87997  -0.87776
 Alpha  occ. eigenvalues --   -0.87487  -0.87454  -0.87392  -0.86853  -0.85066
 Alpha  occ. eigenvalues --   -0.84836  -0.83999  -0.83664  -0.83161  -0.82729
 Alpha  occ. eigenvalues --   -0.82698  -0.82475  -0.81615  -0.81399  -0.80675
 Alpha  occ. eigenvalues --   -0.80224  -0.78952  -0.78349  -0.77311  -0.76977
 Alpha  occ. eigenvalues --   -0.76941  -0.76730  -0.75982  -0.75654  -0.74966
 Alpha  occ. eigenvalues --   -0.74608  -0.72885  -0.72416  -0.71759  -0.71378
 Alpha  occ. eigenvalues --   -0.69966  -0.69546  -0.68967  -0.68648  -0.67754
 Alpha  occ. eigenvalues --   -0.67365  -0.67314  -0.67025  -0.65360  -0.65104
 Alpha  occ. eigenvalues --   -0.64930  -0.64685  -0.64538  -0.64462  -0.64347
 Alpha  occ. eigenvalues --   -0.63978  -0.62303  -0.62101  -0.60591  -0.60086
 Alpha  occ. eigenvalues --   -0.59897  -0.59614  -0.59080  -0.58753  -0.58598
 Alpha  occ. eigenvalues --   -0.58193  -0.57645  -0.57395  -0.57327  -0.56994
 Alpha  occ. eigenvalues --   -0.56435  -0.55980  -0.55941  -0.55731  -0.55650
 Alpha  occ. eigenvalues --   -0.55390  -0.55227  -0.55038  -0.54555  -0.54308
 Alpha  occ. eigenvalues --   -0.53970  -0.53778  -0.53441  -0.53327  -0.53002
 Alpha  occ. eigenvalues --   -0.52979  -0.52943  -0.52887  -0.52721  -0.52491
 Alpha  occ. eigenvalues --   -0.52450  -0.52185  -0.52035  -0.51715  -0.51494
 Alpha  occ. eigenvalues --   -0.51426  -0.51270  -0.50965  -0.50794  -0.50247
 Alpha  occ. eigenvalues --   -0.50122  -0.50073  -0.49796  -0.49655  -0.49626
 Alpha  occ. eigenvalues --   -0.49326  -0.49278  -0.49174  -0.49007  -0.48881
 Alpha  occ. eigenvalues --   -0.48659  -0.48618  -0.48519  -0.48350  -0.48165
 Alpha  occ. eigenvalues --   -0.48106  -0.47797  -0.47406  -0.47396  -0.46898
 Alpha  occ. eigenvalues --   -0.46885  -0.46631  -0.46495  -0.46460  -0.46392
 Alpha  occ. eigenvalues --   -0.46235  -0.46021  -0.45880  -0.45824  -0.45573
 Alpha  occ. eigenvalues --   -0.45299  -0.45002  -0.44683  -0.44617  -0.44358
 Alpha  occ. eigenvalues --   -0.44244  -0.44235  -0.44174  -0.44111  -0.43929
 Alpha  occ. eigenvalues --   -0.43856  -0.43707  -0.43537  -0.43470  -0.43379
 Alpha  occ. eigenvalues --   -0.43197  -0.43114  -0.42756  -0.42750  -0.42663
 Alpha  occ. eigenvalues --   -0.42622  -0.42327  -0.42069  -0.41800  -0.41764
 Alpha  occ. eigenvalues --   -0.41605  -0.41440  -0.41287  -0.41230  -0.41012
 Alpha  occ. eigenvalues --   -0.40924  -0.40799  -0.40640  -0.40547  -0.40519
 Alpha  occ. eigenvalues --   -0.40300  -0.40283  -0.40099  -0.39483  -0.39202
 Alpha  occ. eigenvalues --   -0.38536  -0.38158  -0.37803  -0.37530  -0.37405
 Alpha  occ. eigenvalues --   -0.37337  -0.37039  -0.36991  -0.36726  -0.36627
 Alpha  occ. eigenvalues --   -0.36233  -0.36010  -0.34391  -0.34001  -0.33779
 Alpha  occ. eigenvalues --   -0.33699  -0.33286  -0.32914  -0.31539  -0.31139
 Alpha  occ. eigenvalues --   -0.31029  -0.30729  -0.30119  -0.29690  -0.29597
 Alpha  occ. eigenvalues --   -0.29445  -0.29046  -0.28883  -0.24186  -0.23776
 Alpha  occ. eigenvalues --   -0.21244  -0.20850
 Alpha virt. eigenvalues --   -0.08902  -0.08513  -0.01866  -0.01431  -0.00213
 Alpha virt. eigenvalues --    0.00221   0.02085   0.02392   0.02606   0.03589
 Alpha virt. eigenvalues --    0.04642   0.04949   0.05096   0.05323   0.06143

 Mulliken charges:
               1
     1  Mg   0.838703
     2  C   -0.002495
     3  C   -0.094843
     4  C   -0.045356
     5  C   -0.064383
     6  N   -0.256799
     7  C   -0.052197
     8  C   -0.013858
     9  C   -0.086807
    10  C    0.046143
    11  C    0.104814
    12  C    0.053479
    13  C   -0.073398
    14  H    0.040606
    15  N   -0.433184
    16  C    0.168112
    17  C   -0.178281
    18  C   -0.004958
    19  C    0.149008
    20  C    0.110268
    21  C    0.011186
    22  O   -0.249288
    23  C    0.063343
    24  N   -0.341304
    25  C    0.041376
    26  C   -0.028453
    27  C   -0.024530
    28  C    0.075674
    29  C    0.076110
    30  C    0.037972
    31  C   -0.012730
    32  N   -0.310659
    33  C    0.080978
    34  C   -0.170325
    35  C    0.008440
    36  C    0.083445
    37  C    0.127405
    38  C    0.045881
    39  O   -0.187827
    40  C   -0.005210
    41  C    0.212850
    42  O   -0.257049
    43  O   -0.305205
    44  C    0.156743
    45  H   -0.017787
    46  H   -0.016795
    47  H   -0.041565
    48  H    0.001547
    49  H   -0.004372
    50  H    0.025727
    51  H    0.016312
    52  H    0.016778
    53  H    0.009004
    54  H    0.045309
    55  H    0.017958
    56  H    0.016791
    57  H    0.006123
    58  H    0.027152
    59  H    0.036592
    60  H    0.038228
    61  H    0.034891
    62  H    0.027955
    63  H    0.017375
    64  H    0.009604
    65  H    0.023494
    66  H    0.012343
    67  H    0.004892
    68  H    0.006933
    69  H    0.003201
    70  H    0.011690
    71  H    0.023356
    72  H    0.029112
    73  H    0.047029
    74  H    0.008920
    75  H    0.046602
    76  H    0.035413
    77  H    0.043164
    78  H    0.047026
    79  H    0.056466
    80  Mg   0.837225
    81  C   -0.016333
    82  C   -0.087848
    83  C   -0.044858
    84  C   -0.061742
    85  N   -0.254418
    86  C   -0.049832
    87  C   -0.014800
    88  C   -0.090927
    89  C    0.045320
    90  C    0.114239
    91  C    0.062790
    92  C   -0.077279
    93  H    0.034465
    94  N   -0.423475
    95  C    0.162207
    96  C   -0.174090
    97  C   -0.007883
    98  C    0.151357
    99  C    0.099142
   100  C    0.015577
   101  O   -0.254228
   102  C    0.061107
   103  N   -0.349890
   104  C    0.035565
   105  C   -0.015763
   106  C   -0.035642
   107  C    0.088970
   108  C    0.065095
   109  C    0.034692
   110  C   -0.007465
   111  N   -0.325064
   112  C    0.078867
   113  C   -0.157512
   114  C    0.004215
   115  C    0.096537
   116  C    0.128423
   117  C    0.044916
   118  O   -0.188778
   119  C    0.000083
   120  C    0.210784
   121  O   -0.251162
   122  O   -0.306121
   123  C    0.152228
   124  H   -0.021642
   125  H   -0.016424
   126  H   -0.038773
   127  H   -0.002117
   128  H   -0.005765
   129  H    0.022731
   130  H    0.017104
   131  H    0.011524
   132  H    0.014094
   133  H    0.037879
   134  H    0.019344
   135  H    0.019008
   136  H    0.006999
   137  H    0.027777
   138  H    0.038674
   139  H    0.039164
   140  H    0.035564
   141  H    0.033253
   142  H    0.013390
   143  H    0.014043
   144  H    0.023455
   145  H    0.017816
   146  H    0.005338
   147  H    0.005359
   148  H    0.004455
   149  H    0.010408
   150  H    0.017617
   151  H    0.030287
   152  H    0.043730
   153  H    0.007518
   154  H    0.058961
   155  H    0.035272
   156  H    0.042956
   157  H    0.048826
   158  H    0.053619
 Sum of Mulliken charges =  -0.00000

 Dipole moment (field-independent basis, Debye):
    X=              3.4038    Y=             -1.6535    Z=              6.9855  Tot=              7.9446
 Quadrupole moment (field-independent basis, Debye-Ang):
   XX=           -519.6956   YY=           -535.8301   ZZ=           -463.2655
   XY=             12.7124   XZ=             -3.7169   YZ=             34.3023

 Normal termination of Gaussian 16 at Thu Sep  9 04:58:35 2021.
