 Gaussian 16, Revision A.03,
 Gaussian 16:  ES64L-G16RevA.03 25-Dec-2016

 -----------------------------------
 #p cam-b3lyp/Def2SVP td=(nstates=5)
 -----------------------------------

 --------------------------------
 TDDFT excited states in gaussian
 --------------------------------
 Symbolic Z-matrix:
 Charge =  0 Multiplicity = 1

                         Standard orientation:
 ---------------------------------------------------------------------
 Center     Atomic      Atomic             Coordinates (Angstroms)
 Number     Number       Type             X           Y           Z
 ---------------------------------------------------------------------
      1         12           0       -6.415097   -1.036546   -0.101558
      2          6           0       -6.777330    2.502476    0.293830
      3          6           0       -7.226625   -0.602531   -3.387303
      4          6           0       -6.546552   -4.193336   -0.373620
      5          6           0       -6.752506   -1.308700    3.356440
      6          7           0       -6.915357    0.769947   -1.279256
      7          6           0       -6.960565    2.073507   -1.022626
      8          6           0       -7.146184    2.948278   -2.298437
      9          6           0       -7.830253    1.865910   -3.248451
     10          6           0       -7.263527    0.602618   -2.624881
     11          6           0       -9.350905    1.830069   -3.135156
     12          6           0       -5.780832    3.443081   -2.883855
     13          6           0       -5.883340    4.560414   -3.926167
     14          1           0       -4.848705    5.583003   -3.960651
     15          7           0       -6.345800   -2.188263   -1.705178
     16          6           0       -6.698318   -1.842206   -2.966630
     17          6           0       -6.466778   -3.042725   -3.798389
     18          6           0       -6.131380   -4.170836   -2.885718
     19          6           0       -6.356382   -3.561051   -1.600061
     20          6           0       -6.524065   -3.030272   -5.295156
     21          6           0       -5.689865   -5.578649   -3.133223
     22          8           0       -5.676630   -6.460087   -2.207227
     23          6           0       -5.353062   -5.926327   -4.525604
     24          7           0       -6.838742   -2.562624    1.258311
     25          6           0       -6.769877   -3.848351    0.896166
     26          6           0       -6.833330   -4.755712    2.088898
     27          6           0       -6.715367   -3.810307    3.370322
     28          6           0       -6.685012   -2.439573    2.650297
     29          6           0       -8.096850   -5.619265    2.206390
     30          6           0       -5.589475   -4.136348    4.383476
     31          6           0       -4.239908   -3.879569    3.751153
     32          7           0       -6.535408    0.338298    1.573666
     33          6           0       -6.696388    0.006619    2.926717
     34          6           0       -6.832939    1.273431    3.668748
     35          6           0       -6.758025    2.259895    2.687359
     36          6           0       -6.611936    1.647141    1.410064
     37          6           0       -7.059170    1.399525    5.067802
     38          6           0       -6.792132    3.688220    2.417955
     39          8           0       -6.803216    4.702492    3.116971
     40          6           0       -6.928355    3.898386    0.845345
     41          6           0       -5.913267    4.930172    0.435071
     42          8           0       -4.690962    4.688904    0.506665
     43          8           0       -6.534499    5.939101   -0.194750
     44          6           0       -5.580407    6.983454   -0.654304
     45          1           0       -7.696407   -0.618304   -4.372695
     46          1           0       -6.487537   -5.283157   -0.408885
     47          1           0       -6.776214   -1.312098    4.447714
     48          1           0       -7.809756    3.803674   -2.170408
     49          1           0       -7.495827    1.961624   -4.281272
     50          1           0       -9.705088    2.466237   -2.324129
     51          1           0       -9.603715    0.787792   -2.939607
     52          1           0       -9.816378    2.077306   -4.089612
     53          1           0       -5.346712    2.654855   -3.498917
     54          1           0       -5.109102    3.756699   -2.084012
     55          1           0       -6.872939    5.018232   -3.923689
     56          1           0       -5.794267    4.113135   -4.916221
     57          1           0       -6.954984   -2.103433   -5.671751
     58          1           0       -7.234733   -3.800948   -5.593012
     59          1           0       -5.551922   -3.233107   -5.744744
     60          1           0       -6.221883   -5.751289   -5.160475
     61          1           0       -4.973391   -6.947060   -4.497243
     62          1           0       -4.573667   -5.250890   -4.879548
     63          1           0       -6.003578   -5.461360    2.088013
     64          1           0       -7.624996   -3.820533    3.971275
     65          1           0       -7.892627   -6.688800    2.262011
     66          1           0       -8.742997   -5.388009    1.360042
     67          1           0       -8.743825   -5.370681    3.047251
     68          1           0       -5.619815   -5.190264    4.657859
     69          1           0       -5.654514   -3.552568    5.301747
     70          1           0       -4.050108   -4.800060    3.200240
     71          1           0       -3.483221   -3.721889    4.520421
     72          1           0       -4.288771   -3.068799    3.024001
     73          1           0       -6.402288    2.198167    5.412252
     74          1           0       -6.852582    0.464572    5.588173
     75          1           0       -8.117824    1.658350    5.078646
     76          1           0       -7.948970    4.232253    0.660956
     77          1           0       -5.911706    7.930628   -0.228468
     78          1           0       -5.535188    6.905394   -1.740705
     79          1           0       -4.567810    6.920924   -0.254209
     80         12           0        6.806282   -0.473067    0.228004
     81          6           0        5.547415    2.883332    0.397948
     82          6           0        6.921825   -0.099062   -3.160415
     83          6           0        7.485516   -3.564722    0.009501
     84          6           0        5.531794   -0.965464    3.434077
     85          7           0        6.277427    1.220649   -1.092555
     86          6           0        5.867795    2.467086   -0.911072
     87          6           0        5.874179    3.339598   -2.194916
     88          6           0        5.761781    2.165155   -3.284376
     89          6           0        6.390317    1.027171   -2.482755
     90          6           0        4.327810    1.783395   -3.611981
     91          6           0        7.207323    4.150475   -2.359901
     92          6           0        7.162140    5.253568   -3.419572
     93          1           0        7.907407    6.485203   -3.174388
     94          7           0        7.610779   -1.509078   -1.261300
     95          6           0        7.583257   -1.200881   -2.574895
     96          6           0        8.297528   -2.290065   -3.258739
     97          6           0        8.605575   -3.348986   -2.259495
     98          6           0        7.878376   -2.847086   -1.110864
     99          6           0        8.690926   -2.222547   -4.705851
    100          6           0        9.409699   -4.611760   -2.330200
    101          8           0        9.346653   -5.502547   -1.410774
    102          6           0       10.201466   -4.817257   -3.551825
    103          7           0        6.364454   -2.102877    1.440785
    104          6           0        6.824813   -3.330736    1.143542
    105          6           0        6.616157   -4.285084    2.295097
    106          6           0        6.136879   -3.378942    3.522606
    107          6           0        6.062374   -2.009516    2.812309
    108          6           0        5.598352   -5.400650    2.058507
    109          6           0        6.955897   -3.485687    4.838090
    110          6           0        8.341589   -2.917976    4.630831
    111          7           0        5.897819    0.765115    1.747752
    112          6           0        5.413805    0.351373    3.008161
    113          6           0        4.781147    1.527809    3.639163
    114          6           0        4.921731    2.546682    2.684897
    115          6           0        5.576557    2.035797    1.531780
    116          6           0        4.138499    1.545663    4.909129
    117          6           0        4.655605    3.935518    2.386564
    118          8           0        4.203570    4.888823    3.019507
    119          6           0        4.936093    4.183299    0.841788
    120          6           0        5.769670    5.428930    0.715020
    121          8           0        6.929151    5.461872    1.163477
    122          8           0        5.144102    6.296573   -0.101210
    123          6           0        5.937388    7.543574   -0.267101
    124          1           0        6.783409   -0.168062   -4.239750
    125          1           0        7.794830   -4.612262    0.030811
    126          1           0        5.198364   -1.012242    4.472979
    127          1           0        5.032840    4.015683   -2.288867
    128          1           0        6.358399    2.385572   -4.165752
    129          1           0        3.620302    2.285178   -2.968712
    130          1           0        4.270029    0.711559   -3.474593
    131          1           0        4.122505    1.962974   -4.671199
    132          1           0        7.971377    3.497443   -2.800946
    133          1           0        7.520444    4.563983   -1.420971
    134          1           0        6.136370    5.481219   -3.734094
    135          1           0        7.644722    4.882871   -4.327153
    136          1           0        8.184538   -1.397773   -5.222301
    137          1           0        8.298720   -3.125444   -5.186295
    138          1           0        9.773335   -2.188892   -4.846968
    139          1           0        9.541035   -4.810145   -4.415678
    140          1           0       10.775900   -5.729185   -3.377815
    141          1           0       10.885786   -3.969958   -3.671868
    142          1           0        7.543270   -4.777108    2.562448
    143          1           0        5.112060   -3.626515    3.836083
    144          1           0        6.019870   -6.413564    2.201382
    145          1           0        5.199437   -5.292337    1.058676
    146          1           0        4.701084   -5.344998    2.672516
    147          1           0        7.088495   -4.533739    5.117651
    148          1           0        6.489029   -2.984545    5.679438
    149          1           0        8.885910   -3.753685    4.180933
    150          1           0        8.782270   -2.626262    5.582006
    151          1           0        8.327165   -2.101882    3.899087
    152          1           0        4.460801    2.449703    5.408476
    153          1           0        4.383846    0.659895    5.491368
    154          1           0        3.090650    1.554705    4.597365
    155          1           0        3.970134    4.284858    0.345623
    156          1           0        5.285669    8.376595    0.014022
    157          1           0        6.309615    7.524522   -1.308651
    158          1           0        6.776423    7.696516    0.401534
 ---------------------------------------------------------------------

 SCF Done:  E(RCAM-B3LYP) =  -4069.81139744     A.U. after   19 cycles

 Excitation energies and oscillator strengths:

 Excited State   1:      Singlet-A      1.6653 eV  744.52 nm  f=0.0357  <S**2>=0.000
     309 -> 315       -0.11130
     310 -> 316        0.13028
     311 -> 313       -0.44457
     312 -> 314        0.52326
 This state for optimization and/or second-order correction.
 Total Energy, E(TD-HF/TD-DFT) =  -4069.75019890
 Copying the excited state density for this state as the 1-particle RhoCI density.

 Excited State   2:      Singlet-A      1.6898 eV  733.72 nm  f=0.7110  <S**2>=0.000
     309 -> 315        0.13567
     310 -> 316        0.11461
     311 -> 313        0.52205
     312 -> 314        0.44366

 Excited State   3:      Singlet-A      2.1849 eV  567.45 nm  f=0.0339  <S**2>=0.000
     309 -> 313        0.22521
     310 -> 314        0.60239
     312 -> 316       -0.25503

 Excited State   4:      Singlet-A      2.1933 eV  565.28 nm  f=0.1542  <S**2>=0.000
     309 -> 313        0.59990
     310 -> 314       -0.22337
     311 -> 315       -0.26155

 Excited State   5:      Singlet-A      2.6579 eV  466.48 nm  f=0.0000  <S**2>=0.000
     312 -> 313        0.70708

 The electronic state is 1-A.
 Alpha  occ. eigenvalues --  -46.87790 -46.87535 -19.26218 -19.26199 -19.19014
 Alpha  occ. eigenvalues --  -19.18950 -19.18819 -19.18610 -19.18128 -19.17872
 Alpha  occ. eigenvalues --  -14.42444 -14.42377 -14.41444 -14.41235 -14.39397
 Alpha  occ. eigenvalues --  -14.39229 -14.38574 -14.38467 -10.39014 -10.38940
 Alpha  occ. eigenvalues --  -10.35454 -10.35290 -10.34348 -10.34049 -10.31622
 Alpha  occ. eigenvalues --  -10.31604 -10.31393 -10.31178 -10.30907 -10.30905
 Alpha  occ. eigenvalues --  -10.30556 -10.30496 -10.30265 -10.30224 -10.30209
 Alpha  occ. eigenvalues --  -10.30031 -10.29910 -10.29764 -10.29620 -10.29318
 Alpha  occ. eigenvalues --  -10.29270 -10.29251 -10.28747 -10.28607 -10.28573
 Alpha  occ. eigenvalues --  -10.28554 -10.28353 -10.28274 -10.28116 -10.28033
 Alpha  occ. eigenvalues --  -10.27863 -10.27778 -10.27723 -10.27578 -10.27551
 Alpha  occ. eigenvalues --  -10.27505 -10.27497 -10.27451 -10.27412 -10.27391
 Alpha  occ. eigenvalues --  -10.27378 -10.27354 -10.27341 -10.27266 -10.27120
 Alpha  occ. eigenvalues --  -10.26879 -10.26712 -10.26595 -10.26430 -10.26336
 Alpha  occ. eigenvalues --  -10.26232 -10.26198 -10.26044 -10.26014 -10.25922
 Alpha  occ. eigenvalues --  -10.25812 -10.25806 -10.25666 -10.25436 -10.25290
 Alpha  occ. eigenvalues --  -10.24814 -10.24780 -10.24729 -10.24711 -10.24640
 Alpha  occ. eigenvalues --  -10.24565  -3.16533  -3.16285  -1.91414  -1.91168
 Alpha  occ. eigenvalues --   -1.91001  -1.90843  -1.90756  -1.90593  -1.16566
 Alpha  occ. eigenvalues --   -1.16494  -1.08581  -1.08474  -1.07221  -1.06865
 Alpha  occ. eigenvalues --   -1.06796  -1.06573  -1.04574  -1.04372  -1.03755
 Alpha  occ. eigenvalues --   -1.03539  -1.03225  -1.02912  -1.02402  -1.01983
 Alpha  occ. eigenvalues --   -0.91953  -0.91847  -0.89518  -0.89376  -0.89186
 Alpha  occ. eigenvalues --   -0.89041  -0.88286  -0.88107  -0.87849  -0.87669
 Alpha  occ. eigenvalues --   -0.87644  -0.87564  -0.87275  -0.87011  -0.84980
 Alpha  occ. eigenvalues --   -0.84888  -0.83934  -0.83763  -0.82974  -0.82831
 Alpha  occ. eigenvalues --   -0.82642  -0.82541  -0.81553  -0.81460  -0.80579
 Alpha  occ. eigenvalues --   -0.80316  -0.78792  -0.78513  -0.77215  -0.77029
 Alpha  occ. eigenvalues --   -0.76923  -0.76780  -0.75906  -0.75714  -0.74891
 Alpha  occ. eigenvalues --   -0.74685  -0.72764  -0.72568  -0.71662  -0.71459
 Alpha  occ. eigenvalues --   -0.69913  -0.69652  -0.68869  -0.68713  -0.67630
 Alpha  occ. eigenvalues --   -0.67475  -0.67222  -0.67095  -0.65279  -0.65153
 Alpha  occ. eigenvalues --   -0.64837  -0.64645  -0.64608  -0.64530  -0.64266
 Alpha  occ. eigenvalues --   -0.64087  -0.62259  -0.62142  -0.60442  -0.60226
 Alpha  occ. eigenvalues --   -0.59799  -0.59678  -0.58976  -0.58865  -0.58489
 Alpha  occ. eigenvalues --   -0.58295  -0.57548  -0.57399  -0.57295  -0.57111
 Alpha  occ. eigenvalues --   -0.56297  -0.56075  -0.55940  -0.55756  -0.55513
 Alpha  occ. eigenvalues --   -0.55331  -0.55323  -0.55122  -0.54497  -0.54363
 Alpha  occ. eigenvalues --   -0.53892  -0.53802  -0.53292  -0.53215  -0.53107
 Alpha  occ. eigenvalues --   -0.53022  -0.52891  -0.52779  -0.52759  -0.52569
 Alpha  occ. eigenvalues --   -0.52442  -0.52295  -0.51885  -0.51718  -0.51612
 Alpha  occ. eigenvalues --   -0.51548  -0.51178  -0.51065  -0.50585  -0.50380
 Alpha  occ. eigenvalues --   -0.50036  -0.49920  -0.49872  -0.49756  -0.49510
 Alpha  occ. eigenvalues --   -0.49377  -0.49197  -0.49086  -0.49075  -0.48974
 Alpha  occ. eigenvalues --   -0.48569  -0.48459  -0.48427  -0.48427  -0.48256
 Alpha  occ. eigenvalues --   -0.48219  -0.47689  -0.47480  -0.47289  -0.47005
 Alpha  occ. eigenvalues --   -0.46791  -0.46591  -0.46551  -0.46445  -0.46349
 Alpha  occ. eigenvalues --   -0.46149  -0.46142  -0.45952  -0.45790  -0.45678
 Alpha  occ. eigenvalues --   -0.45198  -0.45092  -0.44552  -0.44510  -0.44389
 Alpha  occ. eigenvalues --   -0.44355  -0.44141  -0.44086  -0.44005  -0.43999
 Alpha  occ. eigenvalues --   -0.43963  -0.43814  -0.43463  -0.43423  -0.43383
 Alpha  occ. eigenvalues --   -0.43263  -0.43013  -0.42798  -0.42759  -0.42683
 Alpha  occ. eigenvalues --   -0.42618  -0.42443  -0.42005  -0.41852  -0.41687
 Alpha  occ. eigenvalues --   -0.41532  -0.41528  -0.41349  -0.41133  -0.40871
 Alpha  occ. eigenvalues --   -0.40869  -0.40830  -0.40621  -0.40594  -0.40569
 Alpha  occ. eigenvalues --   -0.40379  -0.40241  -0.40128  -0.39451  -0.39322
 Alpha  occ. eigenvalues --   -0.38470  -0.38241  -0.37749  -0.37549  -0.37318
 Alpha  occ. eigenvalues --   -0.37258  -0.37150  -0.37082  -0.36670  -0.36633
 Alpha  occ. eigenvalues --   -0.36167  -0.36095  -0.34276  -0.34126  -0.33718
 Alpha  occ. eigenvalues --   -0.33711  -0.33172  -0.33048  -0.31348  -0.31169
 Alpha  occ. eigenvalues --   -0.31026  -0.30848  -0.29986  -0.29775  -0.29442
 Alpha  occ. eigenvalues --   -0.29303  -0.29203  -0.29065  -0.24071  -0.23908
 Alpha  occ. eigenvalues --   -0.21120  -0.20991
 Alpha virt. eigenvalues --   -0.08765  -0.08662  -0.01745  -0.01562  -0.00053
 Alpha virt. eigenvalues --    0.00090   0.02224   0.02360   0.03124   0.03337
 Alpha virt. eigenvalues --    0.04721   0.04845   0.05157   0.05316   0.06176

 Mulliken charges:
               1
     1  Mg   0.838637
     2  C   -0.002812
     3  C   -0.094356
     4  C   -0.045928
     5  C   -0.064006
     6  N   -0.256736
     7  C   -0.052503
     8  C   -0.013932
     9  C   -0.086945
    10  C    0.046188
    11  C    0.104831
    12  C    0.053552
    13  C   -0.071614
    14  H    0.035935
    15  N   -0.433097
    16  C    0.168243
    17  C   -0.177407
    18  C   -0.004152
    19  C    0.148603
    20  C    0.110257
    21  C    0.012157
    22  O   -0.249701
    23  C    0.062568
    24  N   -0.341125
    25  C    0.041139
    26  C   -0.028142
    27  C   -0.023974
    28  C    0.074841
    29  C    0.076179
    30  C    0.035138
    31  C   -0.004440
    32  N   -0.310604
    33  C    0.080568
    34  C   -0.169398
    35  C    0.008691
    36  C    0.083162
    37  C    0.127170
    38  C    0.046631
    39  O   -0.187539
    40  C   -0.005545
    41  C    0.213019
    42  O   -0.256420
    43  O   -0.305032
    44  C    0.157357
    45  H   -0.017790
    46  H   -0.016950
    47  H   -0.041400
    48  H    0.001100
    49  H   -0.004353
    50  H    0.025578
    51  H    0.016451
    52  H    0.016518
    53  H    0.010694
    54  H    0.044456
    55  H    0.018041
    56  H    0.017464
    57  H    0.005686
    58  H    0.026758
    59  H    0.038994
    60  H    0.037315
    61  H    0.035579
    62  H    0.031124
    63  H    0.016384
    64  H    0.009549
    65  H    0.023135
    66  H    0.012578
    67  H    0.004768
    68  H    0.006269
    69  H    0.004848
    70  H    0.008617
    71  H    0.017694
    72  H    0.029175
    73  H    0.048340
    74  H    0.009040
    75  H    0.046050
    76  H    0.035112
    77  H    0.043208
    78  H    0.045828
    79  H    0.054686
    80  Mg   0.837692
    81  C   -0.016641
    82  C   -0.087953
    83  C   -0.045626
    84  C   -0.064826
    85  N   -0.254468
    86  C   -0.049623
    87  C   -0.015088
    88  C   -0.090554
    89  C    0.045680
    90  C    0.114330
    91  C    0.062596
    92  C   -0.077635
    93  H    0.034653
    94  N   -0.423393
    95  C    0.162712
    96  C   -0.175011
    97  C   -0.008057
    98  C    0.151963
    99  C    0.099544
   100  C    0.015343
   101  O   -0.253454
   102  C    0.061301
   103  N   -0.350007
   104  C    0.037425
   105  C   -0.019752
   106  C   -0.034856
   107  C    0.089112
   108  C    0.073725
   109  C    0.034770
   110  C   -0.007628
   111  N   -0.324318
   112  C    0.078703
   113  C   -0.162760
   114  C    0.003035
   115  C    0.096089
   116  C    0.131334
   117  C    0.043400
   118  O   -0.186344
   119  C    0.000538
   120  C    0.211232
   121  O   -0.251392
   122  O   -0.305285
   123  C    0.152133
   124  H   -0.020302
   125  H   -0.015845
   126  H   -0.040400
   127  H   -0.000289
   128  H   -0.004832
   129  H    0.023478
   130  H    0.014257
   131  H    0.015272
   132  H    0.013737
   133  H    0.037766
   134  H    0.020658
   135  H    0.019201
   136  H    0.008349
   137  H    0.025610
   138  H    0.039420
   139  H    0.037988
   140  H    0.036082
   141  H    0.033752
   142  H    0.014147
   143  H    0.012436
   144  H    0.024851
   145  H    0.011763
   146  H    0.005649
   147  H    0.006012
   148  H    0.003622
   149  H    0.010799
   150  H    0.017772
   151  H    0.030231
   152  H    0.046150
   153  H    0.007964
   154  H    0.048867
   155  H    0.036714
   156  H    0.044128
   157  H    0.048967
   158  H    0.053386
 Sum of Mulliken charges =  -0.00000

 Dipole moment (field-independent basis, Debye):
    X=             -2.3271    Y=             -2.1633    Z=             -8.0534  Tot=              8.6575
 Quadrupole moment (field-independent basis, Debye-Ang):
   XX=           -499.5966   YY=           -544.5679   ZZ=           -454.4228
   XY=              8.1375   XZ=             -4.5591   YZ=            -53.2294

 Normal termination of Gaussian 16 at Sat Sep 11 14:24:23 2021.
