 Gaussian 16, Revision A.03,
 Gaussian 16:  ES64L-G16RevA.03 25-Dec-2016

 -----------------------------------
 #p cam-b3lyp/Def2SVP td=(nstates=5)
 -----------------------------------

 --------------------------------
 TDDFT excited states in gaussian
 --------------------------------
 Symbolic Z-matrix:
 Charge =  0 Multiplicity = 1

                         Standard orientation:
 ---------------------------------------------------------------------
 Center     Atomic      Atomic             Coordinates (Angstroms)
 Number     Number       Type             X           Y           Z
 ---------------------------------------------------------------------
      1         12           0       -7.859962   -0.728262    0.139754
      2          6           0       -8.038140    2.845185    0.244373
      3          6           0       -8.759800   -0.528404   -3.145579
      4          6           0       -8.152097   -3.885995    0.140139
      5          6           0       -8.093504   -0.694419    3.616818
      6          7           0       -8.312151    0.997072   -1.171503
      7          6           0       -8.285982    2.318068   -1.025024
      8          6           0       -8.472163    3.091991   -2.364335
      9          6           0       -9.239055    1.970465   -3.198633
     10          6           0       -8.713049    0.736292   -2.487255
     11          6           0      -10.754996    2.021357   -3.037908
     12          6           0       -7.105078    3.466492   -3.029586
     13          6           0       -7.188775    4.497027   -4.159342
     14          1           0       -6.107925    5.459398   -4.310845
     15          7           0       -7.900113   -2.011382   -1.361859
     16          6           0       -8.277839   -1.753998   -2.637148
     17          6           0       -8.132399   -3.029727   -3.370663
     18          6           0       -7.821096   -4.093584   -2.375980
     19          6           0       -7.973132   -3.368362   -1.140538
     20          6           0       -8.239357   -3.138906   -4.860760
     21          6           0       -7.456346   -5.537682   -2.516226
     22          8           0       -7.454344   -6.338587   -1.519672
     23          6           0       -7.183693   -6.016590   -3.883468
     24          7           0       -8.310475   -2.112497    1.635938
     25          6           0       -8.315723   -3.425720    1.382161
     26          6           0       -8.382546   -4.226353    2.648834
     27          6           0       -8.176218   -3.184858    3.841508
     28          6           0       -8.104252   -1.882065    3.007350
     29          6           0       -9.681447   -5.011930    2.876287
     30          6           0       -7.033844   -3.482204    4.844995
     31          6           0       -5.695538   -3.347695    4.153661
     32          7           0       -7.857601    0.785467    1.695281
     33          6           0       -7.988715    0.576059    3.075727
     34          6           0       -8.039163    1.905484    3.711456
     35          6           0       -7.949984    2.801837    2.648234
     36          6           0       -7.876585    2.078360    1.423699
     37          6           0       -8.211862    2.158807    5.100858
     38          6           0       -7.924436    4.202695    2.259901
     39          8           0       -7.863220    5.270838    2.870487
     40          6           0       -8.103243    4.287985    0.679843
     41          6           0       -7.054111    5.229248    0.153862
     42          8           0       -5.843101    4.933076    0.209560
     43          8           0       -7.646967    6.212514   -0.540582
     44          6           0       -6.659781    7.165280   -1.114910
     45          1           0       -9.262690   -0.602222   -4.111806
     46          1           0       -8.146759   -4.976560    0.195615
     47          1           0       -8.080611   -0.605843    4.704679
     48          1           0       -9.089164    3.987629   -2.289727
     49          1           0       -8.935360    1.962864   -4.245263
     50          1           0      -11.050695    2.739916   -2.273607
     51          1           0      -11.050894    1.013125   -2.747380
     52          1           0      -11.239901    2.211653   -3.995735
     53          1           0       -6.730296    2.608841   -3.588186
     54          1           0       -6.392514    3.811062   -2.279353
     55          1           0       -8.154577    5.003074   -4.166477
     56          1           0       -7.154674    3.965018   -5.110133
     57          1           0       -8.637653   -2.225935   -5.301657
     58          1           0       -8.995872   -3.894636   -5.071156
     59          1           0       -7.293770   -3.427481   -5.320021
     60          1           0       -8.063966   -5.851110   -4.504985
     61          1           0       -6.852789   -7.049369   -3.779933
     62          1           0       -6.385082   -5.413339   -4.316202
     63          1           0       -7.588176   -4.970810    2.683269
     64          1           0       -9.064548   -3.098912    4.467733
     65          1           0       -9.527119   -6.082112    3.016281
     66          1           0      -10.343846   -4.819383    2.032815
     67          1           0      -10.287061   -4.661778    3.711776
     68          1           0       -7.105562   -4.506749    5.208464
     69          1           0       -7.039806   -2.821532    5.712017
     70          1           0       -5.568853   -4.319253    3.677364
     71          1           0       -4.906688   -3.165174    4.884149
     72          1           0       -5.729813   -2.598776    3.362186
     73          1           0       -7.506128    2.948974    5.356877
     74          1           0       -8.033063    1.261097    5.692255
     75          1           0       -9.255885    2.471007    5.120952
     76          1           0       -9.112255    4.656703    0.498012
     77          1           0       -6.930646    8.160171   -0.761273
     78          1           0       -6.654951    6.994947   -2.191650
     79          1           0       -5.638470    7.084954   -0.740996
     80         12           0        8.021701   -0.829692    0.007423
     81          6           0        7.841626    2.739281    0.337703
     82          6           0        7.121461   -0.423348   -3.257398
     83          6           0        7.732165   -3.982441   -0.201772
     84          6           0        7.780509   -1.023954    3.478702
     85          7           0        7.568299    0.974640   -1.188858
     86          6           0        7.592477    2.281199   -0.972839
     87          6           0        7.414550    3.147435   -2.248592
     88          6           0        6.640527    2.076070   -3.160691
     89          6           0        7.164732    0.789976   -2.525220
     90          6           0        5.131528    2.114886   -2.985305
     91          6           0        8.787154    3.560258   -2.886991
     92          6           0        8.697832    4.657041   -3.950411
     93          1           0        9.785130    5.627494   -4.042438
     94          7           0        7.985212   -2.013131   -1.585278
     95          6           0        7.614704   -1.678778   -2.839162
     96          6           0        7.744988   -2.907082   -3.638197
     97          6           0        8.064639   -4.032953   -2.718983
     98          6           0        7.915981   -3.375987   -1.435865
     99          6           0        7.647355   -2.917563   -5.136131
    100          6           0        8.429613   -5.467231   -2.955309
    101          8           0        8.432352   -6.326792   -2.004533
    102          6           0        8.692873   -5.855708   -4.348597
    103          7           0        7.577735   -2.300823    1.407778
    104          6           0        7.566737   -3.600904    1.064869
    105          6           0        7.496175   -4.486538    2.285958
    106          6           0        7.706860   -3.511940    3.536297
    107          6           0        7.776803   -2.159390    2.793927
    108          6           0        6.196065   -5.270110    2.465195
    109          6           0        8.849376   -3.872420    4.524927
    110          6           0       10.190234   -3.706740    3.846647
    111          7           0        8.028436    0.576068    1.648113
    112          6           0        7.889680    0.283501    3.022607
    113          6           0        7.839624    1.574202    3.739571
    114          6           0        7.930300    2.536085    2.722199
    115          6           0        8.009507    1.890667    1.458602
    116          6           0        7.676643    1.739961    5.143877
    117          6           0        7.966316    3.950815    2.429035
    118          8           0        8.020359    4.977045    3.105543
    119          6           0        7.783125    4.147075    0.862404
    120          6           0        8.832823    5.115166    0.389698
    121          8           0       10.038527    4.814655    0.440458
    122          8           0        8.233647    6.141126   -0.241793
    123          6           0        9.234435    7.122625   -0.738677
    124          1           0        6.625241   -0.426005   -4.228293
    125          1           0        7.736897   -5.074877   -0.207872
    126          1           0        7.804839   -1.000646    4.570281
    127          1           0        6.803951    4.032402   -2.115267
    128          1           0        6.952862    2.142844   -4.199608
    129          1           0        4.835756    2.778077   -2.186035
    130          1           0        4.835017    1.098253   -2.762652
    131          1           0        4.648291    2.369067   -3.933046
    132          1           0        9.159370    2.731390   -3.502762
    133          1           0        9.488739    3.848622   -2.128523
    134          1           0        7.727249    5.167614   -3.935444
    135          1           0        8.738921    4.188331   -4.936630
    136          1           0        7.242436   -1.972840   -5.519459
    137          1           0        6.891801   -3.664722   -5.402100
    138          1           0        8.591035   -3.182223   -5.617899
    139          1           0        7.814556   -5.645473   -4.954245
    140          1           0        9.024217   -6.895011   -4.304575
    141          1           0        9.502142   -5.228951   -4.739602
    142          1           0        8.290708   -5.222561    2.276303
    143          1           0        6.813925   -3.472748    4.177369
    144          1           0        6.351457   -6.363250    2.535703
    145          1           0        5.537578   -5.032046    1.640417
    146          1           0        5.598536   -4.982078    3.328442
    147          1           0        8.778159   -4.922361    4.819411
    148          1           0        8.836081   -3.281221    5.434487
    149          1           0       10.311229   -4.649905    3.305445
    150          1           0       10.978533   -3.571040    4.584345
    151          1           0       10.158410   -2.901822    3.103184
    152          1           0        8.375351    2.507172    5.449982
    153          1           0        7.850091    0.807545    5.677062
    154          1           0        6.628008    2.046625    5.183668
    155          1           0        6.773451    4.524197    0.695342
    156          1           0        8.960339    8.096950   -0.322443
    157          1           0        9.226640    7.025392   -1.840606
    158          1           0       10.254034    7.021120   -0.385723
 ---------------------------------------------------------------------

 SCF Done:  E(RCAM-B3LYP) =  -4069.81167654     A.U. after   19 cycles

 Excitation energies and oscillator strengths:

 Excited State   1:      Singlet-A      1.6698 eV  742.50 nm  f=0.0156  <S**2>=0.000
     309 -> 315       -0.10411
     310 -> 316        0.13745
     311 -> 313       -0.41290
     312 -> 314        0.54828
 This state for optimization and/or second-order correction.
 Total Energy, E(TD-HF/TD-DFT) =  -4069.75031196
 Copying the excited state density for this state as the 1-particle RhoCI density.

 Excited State   2:      Singlet-A      1.6852 eV  735.70 nm  f=0.7411  <S**2>=0.000
     309 -> 315        0.14138
     310 -> 316        0.10584
     311 -> 313        0.54745
     312 -> 314        0.41236

 Excited State   3:      Singlet-A      2.1853 eV  567.35 nm  f=0.0570  <S**2>=0.000
     309 -> 313       -0.14124
     310 -> 314        0.62706
     312 -> 316       -0.26592

 Excited State   4:      Singlet-A      2.1929 eV  565.39 nm  f=0.1361  <S**2>=0.000
     309 -> 313        0.62504
     310 -> 314        0.14014
     311 -> 315       -0.27181

 Excited State   5:      Singlet-A      2.7649 eV  448.43 nm  f=0.0000  <S**2>=0.000
     312 -> 313        0.70710

 The electronic state is 1-A.
 Alpha  occ. eigenvalues --  -46.87835 -46.87587 -19.26318 -19.26270 -19.19084
 Alpha  occ. eigenvalues --  -19.19054 -19.18854 -19.18658 -19.18198 -19.17967
 Alpha  occ. eigenvalues --  -14.42490 -14.42424 -14.41486 -14.41286 -14.39441
 Alpha  occ. eigenvalues --  -14.39281 -14.38623 -14.38525 -10.39114 -10.39012
 Alpha  occ. eigenvalues --  -10.35488 -10.35337 -10.34418 -10.34143 -10.31713
 Alpha  occ. eigenvalues --  -10.31683 -10.31443 -10.31232 -10.30953 -10.30951
 Alpha  occ. eigenvalues --  -10.30606 -10.30543 -10.30324 -10.30285 -10.30244
 Alpha  occ. eigenvalues --  -10.30073 -10.29954 -10.29819 -10.29667 -10.29368
 Alpha  occ. eigenvalues --  -10.29330 -10.29292 -10.28797 -10.28645 -10.28606
 Alpha  occ. eigenvalues --  -10.28600 -10.28403 -10.28331 -10.28162 -10.28064
 Alpha  occ. eigenvalues --  -10.27927 -10.27828 -10.27767 -10.27622 -10.27598
 Alpha  occ. eigenvalues --  -10.27532 -10.27531 -10.27479 -10.27451 -10.27441
 Alpha  occ. eigenvalues --  -10.27420 -10.27409 -10.27398 -10.27308 -10.27191
 Alpha  occ. eigenvalues --  -10.26963 -10.26766 -10.26630 -10.26456 -10.26375
 Alpha  occ. eigenvalues --  -10.26275 -10.26213 -10.26079 -10.26055 -10.25932
 Alpha  occ. eigenvalues --  -10.25864 -10.25862 -10.25762 -10.25462 -10.25327
 Alpha  occ. eigenvalues --  -10.24867 -10.24823 -10.24796 -10.24719 -10.24676
 Alpha  occ. eigenvalues --  -10.24618  -3.16578  -3.16337  -1.91459  -1.91219
 Alpha  occ. eigenvalues --   -1.91046  -1.90888  -1.90808  -1.90645  -1.16667
 Alpha  occ. eigenvalues --   -1.16564  -1.08655  -1.08572  -1.07255  -1.06911
 Alpha  occ. eigenvalues --   -1.06868  -1.06676  -1.04620  -1.04422  -1.03798
 Alpha  occ. eigenvalues --   -1.03591  -1.03270  -1.02966  -1.02448  -1.02038
 Alpha  occ. eigenvalues --   -0.92008  -0.91910  -0.89553  -0.89425  -0.89234
 Alpha  occ. eigenvalues --   -0.89077  -0.88320  -0.88152  -0.87902  -0.87715
 Alpha  occ. eigenvalues --   -0.87714  -0.87613  -0.87315  -0.87061  -0.85027
 Alpha  occ. eigenvalues --   -0.84929  -0.83968  -0.83808  -0.83007  -0.82876
 Alpha  occ. eigenvalues --   -0.82691  -0.82585  -0.81622  -0.81521  -0.80634
 Alpha  occ. eigenvalues --   -0.80371  -0.78836  -0.78569  -0.77257  -0.77075
 Alpha  occ. eigenvalues --   -0.76975  -0.76827  -0.75962  -0.75763  -0.74931
 Alpha  occ. eigenvalues --   -0.74732  -0.72810  -0.72626  -0.71709  -0.71506
 Alpha  occ. eigenvalues --   -0.69939  -0.69693  -0.68916  -0.68758  -0.67678
 Alpha  occ. eigenvalues --   -0.67531  -0.67269  -0.67137  -0.65330  -0.65199
 Alpha  occ. eigenvalues --   -0.64890  -0.64698  -0.64659  -0.64582  -0.64304
 Alpha  occ. eigenvalues --   -0.64135  -0.62332  -0.62203  -0.60480  -0.60276
 Alpha  occ. eigenvalues --   -0.59847  -0.59723  -0.59023  -0.58920  -0.58539
 Alpha  occ. eigenvalues --   -0.58352  -0.57618  -0.57473  -0.57343  -0.57167
 Alpha  occ. eigenvalues --   -0.56346  -0.56133  -0.56016  -0.55814  -0.55558
 Alpha  occ. eigenvalues --   -0.55385  -0.55372  -0.55176  -0.54556  -0.54416
 Alpha  occ. eigenvalues --   -0.53941  -0.53840  -0.53336  -0.53264  -0.53159
 Alpha  occ. eigenvalues --   -0.53073  -0.52952  -0.52832  -0.52800  -0.52610
 Alpha  occ. eigenvalues --   -0.52470  -0.52338  -0.51942  -0.51801  -0.51662
 Alpha  occ. eigenvalues --   -0.51592  -0.51231  -0.51127  -0.50617  -0.50422
 Alpha  occ. eigenvalues --   -0.50066  -0.49959  -0.49912  -0.49801  -0.49556
 Alpha  occ. eigenvalues --   -0.49422  -0.49251  -0.49137  -0.49130  -0.49027
 Alpha  occ. eigenvalues --   -0.48628  -0.48496  -0.48483  -0.48481  -0.48305
 Alpha  occ. eigenvalues --   -0.48276  -0.47734  -0.47527  -0.47334  -0.47053
 Alpha  occ. eigenvalues --   -0.46834  -0.46639  -0.46601  -0.46485  -0.46395
 Alpha  occ. eigenvalues --   -0.46201  -0.46195  -0.46011  -0.45854  -0.45744
 Alpha  occ. eigenvalues --   -0.45234  -0.45139  -0.44611  -0.44549  -0.44440
 Alpha  occ. eigenvalues --   -0.44407  -0.44181  -0.44131  -0.44056  -0.44054
 Alpha  occ. eigenvalues --   -0.44013  -0.43873  -0.43529  -0.43480  -0.43426
 Alpha  occ. eigenvalues --   -0.43313  -0.43063  -0.42856  -0.42824  -0.42733
 Alpha  occ. eigenvalues --   -0.42688  -0.42488  -0.42046  -0.41897  -0.41739
 Alpha  occ. eigenvalues --   -0.41593  -0.41579  -0.41391  -0.41179  -0.40915
 Alpha  occ. eigenvalues --   -0.40912  -0.40866  -0.40662  -0.40633  -0.40606
 Alpha  occ. eigenvalues --   -0.40424  -0.40289  -0.40164  -0.39474  -0.39362
 Alpha  occ. eigenvalues --   -0.38505  -0.38282  -0.37799  -0.37589  -0.37356
 Alpha  occ. eigenvalues --   -0.37308  -0.37196  -0.37129  -0.36747  -0.36696
 Alpha  occ. eigenvalues --   -0.36228  -0.36146  -0.34323  -0.34180  -0.33805
 Alpha  occ. eigenvalues --   -0.33786  -0.33223  -0.33103  -0.31383  -0.31216
 Alpha  occ. eigenvalues --   -0.31073  -0.30900  -0.30057  -0.29870  -0.29487
 Alpha  occ. eigenvalues --   -0.29356  -0.29259  -0.29135  -0.24118  -0.23962
 Alpha  occ. eigenvalues --   -0.21165  -0.21044
 Alpha virt. eigenvalues --   -0.08811  -0.08720  -0.01787  -0.01613  -0.00097
 Alpha virt. eigenvalues --    0.00037   0.02168   0.02286   0.03076   0.03293
 Alpha virt. eigenvalues --    0.04674   0.04802   0.05064   0.05244   0.06123

 Mulliken charges:
               1
     1  Mg   0.838606
     2  C   -0.003036
     3  C   -0.094307
     4  C   -0.045829
     5  C   -0.063911
     6  N   -0.256752
     7  C   -0.052505
     8  C   -0.013988
     9  C   -0.086966
    10  C    0.046239
    11  C    0.104808
    12  C    0.053548
    13  C   -0.071652
    14  H    0.035765
    15  N   -0.433130
    16  C    0.168345
    17  C   -0.177294
    18  C   -0.004031
    19  C    0.148646
    20  C    0.110211
    21  C    0.012245
    22  O   -0.249519
    23  C    0.062521
    24  N   -0.341153
    25  C    0.041223
    26  C   -0.028178
    27  C   -0.024034
    28  C    0.074895
    29  C    0.076138
    30  C    0.035102
    31  C   -0.004508
    32  N   -0.310509
    33  C    0.080444
    34  C   -0.169564
    35  C    0.008457
    36  C    0.082993
    37  C    0.127272
    38  C    0.046236
    39  O   -0.188120
    40  C   -0.005361
    41  C    0.212933
    42  O   -0.257153
    43  O   -0.304777
    44  C    0.157642
    45  H   -0.017670
    46  H   -0.016778
    47  H   -0.041340
    48  H    0.001035
    49  H   -0.004230
    50  H    0.025558
    51  H    0.016519
    52  H    0.016632
    53  H    0.010906
    54  H    0.044077
    55  H    0.018071
    56  H    0.017732
    57  H    0.005762
    58  H    0.026879
    59  H    0.039206
    60  H    0.037353
    61  H    0.035728
    62  H    0.031217
    63  H    0.016574
    64  H    0.009564
    65  H    0.023274
    66  H    0.012553
    67  H    0.004827
    68  H    0.006437
    69  H    0.004837
    70  H    0.008778
    71  H    0.018144
    72  H    0.028913
    73  H    0.047830
    74  H    0.009192
    75  H    0.046105
    76  H    0.035218
    77  H    0.043170
    78  H    0.046180
    79  H    0.053749
    80  Mg   0.838001
    81  C   -0.016763
    82  C   -0.087813
    83  C   -0.045539
    84  C   -0.064756
    85  N   -0.254570
    86  C   -0.049614
    87  C   -0.015123
    88  C   -0.090573
    89  C    0.045829
    90  C    0.114380
    91  C    0.062552
    92  C   -0.077758
    93  H    0.034683
    94  N   -0.423478
    95  C    0.162884
    96  C   -0.174788
    97  C   -0.007939
    98  C    0.152097
    99  C    0.099467
   100  C    0.015469
   101  O   -0.253284
   102  C    0.061255
   103  N   -0.350041
   104  C    0.037546
   105  C   -0.019844
   106  C   -0.034828
   107  C    0.089001
   108  C    0.073639
   109  C    0.034733
   110  C   -0.007642
   111  N   -0.324174
   112  C    0.078573
   113  C   -0.162941
   114  C    0.002478
   115  C    0.096198
   116  C    0.131423
   117  C    0.042646
   118  O   -0.187539
   119  C    0.000814
   120  C    0.211216
   121  O   -0.251212
   122  O   -0.305446
   123  C    0.152089
   124  H   -0.019947
   125  H   -0.015687
   126  H   -0.040408
   127  H   -0.000352
   128  H   -0.004680
   129  H    0.023241
   130  H    0.014541
   131  H    0.015934
   132  H    0.013761
   133  H    0.037656
   134  H    0.020884
   135  H    0.019343
   136  H    0.008544
   137  H    0.025820
   138  H    0.039545
   139  H    0.038068
   140  H    0.036214
   141  H    0.033794
   142  H    0.014242
   143  H    0.012559
   144  H    0.024975
   145  H    0.011819
   146  H    0.005758
   147  H    0.006156
   148  H    0.003657
   149  H    0.010848
   150  H    0.017820
   151  H    0.030128
   152  H    0.045959
   153  H    0.008373
   154  H    0.047622
   155  H    0.035725
   156  H    0.044020
   157  H    0.049326
   158  H    0.053435
 Sum of Mulliken charges =  -0.00000

 Dipole moment (field-independent basis, Debye):
    X=             -4.1218    Y=             -2.3385    Z=             -7.5989  Tot=              8.9555
 Quadrupole moment (field-independent basis, Debye-Ang):
   XX=           -517.4914   YY=           -551.6361   ZZ=           -447.4251
   XY=             -3.0780   XZ=              0.1761   YZ=            -48.5267

 Normal termination of Gaussian 16 at Sun Sep 12 06:38:27 2021.
