 Gaussian 16, Revision A.03,
 Gaussian 16:  ES64L-G16RevA.03 25-Dec-2016

 -----------------------------------
 #p cam-b3lyp/Def2SVP td=(nstates=5)
 -----------------------------------

 --------------------------------
 TDDFT excited states in gaussian
 --------------------------------
 Symbolic Z-matrix:
 Charge =  0 Multiplicity = 1

                         Standard orientation:
 ---------------------------------------------------------------------
 Center     Atomic      Atomic             Coordinates (Angstroms)
 Number     Number       Type             X           Y           Z
 ---------------------------------------------------------------------
      1         12           0       15.613078   -0.891795    0.250861
      2          6           0       15.871307    2.448420   -1.009493
      3          6           0       16.459403    0.356601    3.311630
      4          6           0       15.835924   -3.880489    1.287525
      5          6           0       15.908166   -1.998945   -3.040461
      6          7           0       16.079924    1.160204    0.937885
      7          6           0       16.085271    2.361151    0.367913
      8          6           0       16.264878    3.527177    1.385507
      9          6           0       16.992286    2.728280    2.557958
     10          6           0       16.451907    1.337479    2.275843
     11          6           0       18.511561    2.701157    2.425409
     12          6           0       14.894885    4.118864    1.859592
     13          6           0       14.981340    5.460493    2.593016
     14          1           0       13.919346    6.435658    2.396623
     15          7           0       15.598804   -1.614563    2.089408
     16          6           0       15.959685   -0.960468    3.219545
     17          6           0       15.773506   -1.924334    4.325430
     18          6           0       15.456439   -3.249926    3.725124
     19          6           0       15.645941   -2.970344    2.324660
     20          6           0       15.851934   -1.542440    5.771721
     21          6           0       15.057738   -4.563386    4.320097
     22          8           0       15.055644   -5.645726    3.639575
     23          6           0       14.750755   -4.565337    5.761901
     24          7           0       16.059291   -2.695372   -0.700791
     25          6           0       16.031322   -3.853615   -0.032454
     26          6           0       16.102762   -5.024952   -0.966694
     27          6           0       15.940220   -4.427139   -2.438412
     28          6           0       15.882216   -2.922424   -2.076832
     29          6           0       17.387925   -5.861114   -0.894577
     30          6           0       14.809356   -5.018764   -3.316788
     31          6           0       13.462416   -4.645792   -2.739084
     32          7           0       15.671124    0.030731   -1.712967
     33          6           0       15.821776   -0.619996   -2.946065
     34          6           0       15.912462    0.427976   -3.979312
     35          6           0       15.824335    1.623659   -3.269087
     36          6           0       15.713670    1.340985   -1.877634
     37          6           0       16.114977    0.211001   -5.370837
     38          6           0       15.822688    3.074743   -3.359700
     39          8           0       15.795591    3.885679   -4.286599
     40          6           0       15.975620    3.668722   -1.890133
     41          6           0       14.938311    4.745771   -1.725008
     42          8           0       13.722264    4.465838   -1.709735
     43          8           0       15.540313    5.892921   -1.375461
     44          6           0       14.564330    6.995702   -1.166932
     45          1           0       16.943556    0.594878    4.260714
     46          1           0       15.807667   -4.929157    1.590732
     47          1           0       15.916271   -2.270346   -4.097688
     48          1           0       16.902565    4.339976    1.037459
     49          1           0       16.670213    3.067485    3.542301
     50          1           0       18.836272    3.126167    1.475750
     51          1           0       18.790341    1.649012    2.486775
     52          1           0       18.983669    3.186558    3.279971
     53          1           0       14.491678    3.496409    2.658362
     54          1           0       14.203290    4.210148    1.021326
     55          1           0       15.957724    5.926582    2.457575
     56          1           0       14.918945    5.268769    3.664253
     57          1           0       16.262353   -0.541616    5.899984
     58          1           0       16.587909   -2.199260    6.235010
     59          1           0       14.892353   -1.650984    6.277443
     60          1           0       15.623423   -4.219155    6.316119
     61          1           0       14.399168   -5.570211    5.993125
     62          1           0       13.958096   -3.841934    5.955111
     63          1           0       15.292997   -5.727833   -0.775214
     64          1           0       16.841051   -4.563762   -3.037171
     65          1           0       17.212663   -6.915890   -0.681420
     66          1           0       18.039509   -5.413594   -0.144607
     67          1           0       18.015604   -5.812160   -1.783981
     68          1           0       14.864965   -6.106788   -3.324343
     69          1           0       14.844975   -4.677666   -4.351503
     70          1           0       13.306154   -5.406494   -1.975051
     71          1           0       12.690668   -4.700059   -3.507636
     72          1           0       13.499223   -3.680045   -2.234639
     73          1           0       15.431317    0.884703   -5.887270
     74          1           0       15.926938   -0.827846   -5.641098
     75          1           0       17.165781    0.483829   -5.466920
     76          1           0       16.989129    4.061439   -1.814664
     77          1           0       14.863079    7.816354   -1.819246
     78          1           0       14.536913    7.186473   -0.093964
     79          1           0       13.548210    6.812977   -1.518288
     80         12           0      -16.139086   -0.523521   -0.198377
     81          6           0      -13.894781    2.276856   -0.193944
     82          6           0      -17.665072    0.885857    2.507105
     83          6           0      -17.840184   -3.184805    0.103774
     84          6           0      -13.784594   -2.230115   -2.119215
     85          7           0      -15.740270    1.342685    0.919860
     86          6           0      -14.899960    2.358520    0.792161
     87          6           0      -15.200966    3.563250    1.723596
     88          6           0      -16.005341    2.782859    2.873744
     89          6           0      -16.537148    1.612529    2.049015
     90          6           0      -15.106438    2.227903    3.966147
     91          6           0      -16.098694    4.646379    1.028672
     92          6           0      -16.176547    5.985728    1.764767
     93          1           0      -16.260869    7.210590    0.974154
     94          7           0      -17.833885   -0.860556    0.777649
     95          6           0      -18.311009   -0.177798    1.839481
     96          6           0      -19.579457   -0.829844    2.200105
     97          6           0      -19.730452   -2.054536    1.368215
     98          6           0      -18.435833   -2.092881    0.718141
     99          6           0      -20.544944   -0.241379    3.187515
    100          6           0      -20.849474   -3.036706    1.197018
    101          8           0      -20.675550   -4.158669    0.602235
    102          6           0      -22.130734   -2.687229    1.827697
    103          7           0      -15.768345   -2.501024   -0.722216
    104          6           0      -16.697265   -3.453504   -0.527770
    105          6           0      -16.318449   -4.736132   -1.229023
    106          6           0      -15.054968   -4.371278   -2.139016
    107          6           0      -14.858365   -2.897794   -1.719984
    108          6           0      -15.967117   -5.913034   -0.319152
    109          6           0      -15.159366   -4.701510   -3.653190
    110          6           0      -16.201685   -3.820189   -4.302971
    111          7           0      -14.276695   -0.029913   -1.176076
    112          6           0      -13.439311   -0.901684   -1.906053
    113          6           0      -12.232779   -0.135322   -2.279437
    114          6           0      -12.443240    1.132511   -1.716595
    115          6           0      -13.683482    1.148702   -1.023024
    116          6           0      -11.115120   -0.642550   -3.000314
    117          6           0      -11.893327    2.457637   -1.542461
    118          8           0      -10.909565    3.054115   -1.978538
    119          6           0      -12.750138    3.219714   -0.441778
    120          6           0      -13.073224    4.590025   -0.971284
    121          8           0      -13.808693    4.726496   -1.964795
    122          8           0      -12.641749    5.514441   -0.093977
    123          6           0      -12.949240    6.889548   -0.569730
    124          1           0      -18.070636    1.123341    3.490980
    125          1           0      -18.437796   -4.099127    0.084711
    126          1           0      -13.048974   -2.661711   -2.801324
    127          1           0      -14.324869    4.043284    2.142873
    128          1           0      -16.826261    3.382646    3.258082
    129          1           0      -14.060299    2.348362    3.726962
    130          1           0      -15.357279    1.178467    4.048645
    131          1           0      -15.363976    2.676004    4.930102
    132          1           0      -17.149368    4.335404    1.092786
    133          1           0      -15.785018    4.808431    0.015764
    134          1           0      -15.401513    6.078267    2.535289
    135          1           0      -17.115158    6.020759    2.323164
    136          1           0      -20.088078    0.576411    3.758395
    137          1           0      -20.747971   -1.014863    3.936092
    138          1           0      -21.487797    0.060174    2.726254
    139          1           0      -21.982689   -2.554579    2.896787
    140          1           0      -22.830268   -3.466774    1.519752
    141          1           0      -22.462418   -1.720154    1.433527
    142          1           0      -17.123260   -5.080388   -1.866895
    143          1           0      -14.152376   -4.912175   -1.818745
    144          1           0      -16.589371   -6.808890   -0.504410
    145          1           0      -16.062309   -5.589900    0.708983
    146          1           0      -14.928951   -6.237659   -0.364108
    147          1           0      -15.493263   -5.732472   -3.793819
    148          1           0      -14.220117   -4.591824   -4.184948
    149          1           0      -17.137499   -4.344171   -4.086665
    150          1           0      -16.028269   -3.748212   -5.374786
    151          1           0      -16.250907   -2.841320   -3.812004
    152          1           0      -10.845585    0.111544   -3.727781
    153          1           0      -11.347846   -1.591877   -3.478211
    154          1           0      -10.394396   -0.758487   -2.186440
    155          1           0      -12.150242    3.263347    0.468058
    156          1           0      -12.003658    7.440207   -0.588001
    157          1           0      -13.740159    7.268965    0.104247
    158          1           0      -13.279772    7.002776   -1.595584
 ---------------------------------------------------------------------

 SCF Done:  E(RCAM-B3LYP) =  -4069.81174790     A.U. after   19 cycles

 Excitation energies and oscillator strengths:

 Excited State   1:      Singlet-A      1.6755 eV  739.99 nm  f=0.3274  <S**2>=0.000
     309 -> 316        0.17123
     311 -> 313        0.67676
     312 -> 314       -0.11251
     309 <- 316        0.10321
 This state for optimization and/or second-order correction.
 Total Energy, E(TD-HF/TD-DFT) =  -4069.75017489
 Copying the excited state density for this state as the 1-particle RhoCI density.

 Excited State   2:      Singlet-A      1.6800 eV  738.02 nm  f=0.4531  <S**2>=0.000
     310 -> 315        0.17318
     311 -> 313        0.11249
     312 -> 314        0.67640
     310 <- 315        0.10370

 Excited State   3:      Singlet-A      2.1861 eV  567.14 nm  f=0.0944  <S**2>=0.000
     309 -> 313        0.64200
     311 -> 316       -0.27297

 Excited State   4:      Singlet-A      2.1925 eV  565.50 nm  f=0.1056  <S**2>=0.000
     310 -> 314        0.64025
     312 -> 315       -0.27809

 Excited State   5:      Singlet-A      3.0513 eV  406.33 nm  f=0.0000  <S**2>=0.000
     312 -> 313        0.70709

 The electronic state is 1-A.
 Alpha  occ. eigenvalues --  -46.87748 -46.87659 -19.26343 -19.26230 -19.19155
 Alpha  occ. eigenvalues --  -19.18965 -19.18770 -19.18714 -19.18120 -19.18046
 Alpha  occ. eigenvalues --  -14.42497 -14.42402 -14.41402 -14.41358 -14.39355
 Alpha  occ. eigenvalues --  -14.39351 -14.38598 -14.38538 -10.39085 -10.39025
 Alpha  occ. eigenvalues --  -10.35403 -10.35391 -10.34340 -10.34223 -10.31749
 Alpha  occ. eigenvalues --  -10.31623 -10.31357 -10.31307 -10.31023 -10.30861
 Alpha  occ. eigenvalues --  -10.30521 -10.30459 -10.30396 -10.30359 -10.30160
 Alpha  occ. eigenvalues --  -10.30140 -10.29893 -10.29873 -10.29583 -10.29436
 Alpha  occ. eigenvalues --  -10.29399 -10.29207 -10.28718 -10.28700 -10.28653
 Alpha  occ. eigenvalues --  -10.28487 -10.28403 -10.28317 -10.28141 -10.28069
 Alpha  occ. eigenvalues --  -10.27999 -10.27745 -10.27680 -10.27668 -10.27537
 Alpha  occ. eigenvalues --  -10.27517 -10.27482 -10.27467 -10.27464 -10.27455
 Alpha  occ. eigenvalues --  -10.27436 -10.27404 -10.27375 -10.27355 -10.27108
 Alpha  occ. eigenvalues --  -10.27046 -10.26691 -10.26653 -10.26416 -10.26367
 Alpha  occ. eigenvalues --  -10.26190 -10.26136 -10.26135 -10.26027 -10.25972
 Alpha  occ. eigenvalues --  -10.25933 -10.25843 -10.25794 -10.25398 -10.25393
 Alpha  occ. eigenvalues --  -10.24870 -10.24784 -10.24740 -10.24728 -10.24689
 Alpha  occ. eigenvalues --  -10.24636  -3.16491  -3.16409  -1.91373  -1.91291
 Alpha  occ. eigenvalues --   -1.90959  -1.90880  -1.90801  -1.90717  -1.16637
 Alpha  occ. eigenvalues --   -1.16579  -1.08653  -1.08577  -1.07171  -1.06967
 Alpha  occ. eigenvalues --   -1.06940  -1.06588  -1.04533  -1.04494  -1.03713
 Alpha  occ. eigenvalues --   -1.03662  -1.03186  -1.03037  -1.02363  -1.02110
 Alpha  occ. eigenvalues --   -0.91985  -0.91923  -0.89493  -0.89472  -0.89151
 Alpha  occ. eigenvalues --   -0.89140  -0.88240  -0.88219  -0.87822  -0.87790
 Alpha  occ. eigenvalues --   -0.87683  -0.87625  -0.87228  -0.87119  -0.84999
 Alpha  occ. eigenvalues --   -0.84934  -0.83889  -0.83874  -0.82931  -0.82922
 Alpha  occ. eigenvalues --   -0.82652  -0.82600  -0.81593  -0.81535  -0.80547
 Alpha  occ. eigenvalues --   -0.80440  -0.78750  -0.78634  -0.77171  -0.77143
 Alpha  occ. eigenvalues --   -0.76896  -0.76885  -0.75874  -0.75837  -0.74851
 Alpha  occ. eigenvalues --   -0.74802  -0.72726  -0.72697  -0.71625  -0.71580
 Alpha  occ. eigenvalues --   -0.69859  -0.69756  -0.68826  -0.68825  -0.67600
 Alpha  occ. eigenvalues --   -0.67593  -0.67199  -0.67171  -0.65270  -0.65238
 Alpha  occ. eigenvalues --   -0.64805  -0.64768  -0.64652  -0.64572  -0.64222
 Alpha  occ. eigenvalues --   -0.64202  -0.62275  -0.62246  -0.60396  -0.60339
 Alpha  occ. eigenvalues --   -0.59796  -0.59756  -0.58991  -0.58939  -0.58455
 Alpha  occ. eigenvalues --   -0.58423  -0.57550  -0.57534  -0.57261  -0.57235
 Alpha  occ. eigenvalues --   -0.56262  -0.56202  -0.55927  -0.55883  -0.55473
 Alpha  occ. eigenvalues --   -0.55450  -0.55291  -0.55245  -0.54485  -0.54474
 Alpha  occ. eigenvalues --   -0.53912  -0.53846  -0.53251  -0.53226  -0.53174
 Alpha  occ. eigenvalues --   -0.53140  -0.52900  -0.52865  -0.52709  -0.52668
 Alpha  occ. eigenvalues --   -0.52399  -0.52390  -0.51880  -0.51866  -0.51657
 Alpha  occ. eigenvalues --   -0.51568  -0.51198  -0.51147  -0.50527  -0.50475
 Alpha  occ. eigenvalues --   -0.49985  -0.49979  -0.49872  -0.49866  -0.49487
 Alpha  occ. eigenvalues --   -0.49467  -0.49200  -0.49166  -0.49102  -0.49048
 Alpha  occ. eigenvalues --   -0.48556  -0.48544  -0.48415  -0.48398  -0.48374
 Alpha  occ. eigenvalues --   -0.48337  -0.47647  -0.47593  -0.47250  -0.47117
 Alpha  occ. eigenvalues --   -0.46749  -0.46707  -0.46553  -0.46507  -0.46311
 Alpha  occ. eigenvalues --   -0.46269  -0.46114  -0.46083  -0.45818  -0.45772
 Alpha  occ. eigenvalues --   -0.45208  -0.45155  -0.44528  -0.44511  -0.44475
 Alpha  occ. eigenvalues --   -0.44460  -0.44126  -0.44097  -0.44076  -0.44041
 Alpha  occ. eigenvalues --   -0.43971  -0.43937  -0.43549  -0.43444  -0.43384
 Alpha  occ. eigenvalues --   -0.43338  -0.42979  -0.42927  -0.42898  -0.42648
 Alpha  occ. eigenvalues --   -0.42605  -0.42552  -0.41962  -0.41961  -0.41667
 Alpha  occ. eigenvalues --   -0.41656  -0.41485  -0.41458  -0.41094  -0.40989
 Alpha  occ. eigenvalues --   -0.40821  -0.40777  -0.40722  -0.40698  -0.40524
 Alpha  occ. eigenvalues --   -0.40492  -0.40226  -0.40184  -0.39424  -0.39393
 Alpha  occ. eigenvalues --   -0.38422  -0.38349  -0.37698  -0.37653  -0.37273
 Alpha  occ. eigenvalues --   -0.37265  -0.37214  -0.37198  -0.36767  -0.36661
 Alpha  occ. eigenvalues --   -0.36215  -0.36143  -0.34252  -0.34238  -0.33857
 Alpha  occ. eigenvalues --   -0.33717  -0.33174  -0.33138  -0.31299  -0.31273
 Alpha  occ. eigenvalues --   -0.30988  -0.30971  -0.29979  -0.29950  -0.29402
 Alpha  occ. eigenvalues --   -0.29326  -0.29273  -0.29209  -0.24035  -0.24032
 Alpha  occ. eigenvalues --   -0.21115  -0.21080
 Alpha virt. eigenvalues --   -0.08790  -0.08727  -0.01702  -0.01683  -0.00028
 Alpha virt. eigenvalues --   -0.00011   0.02210   0.02249   0.03174   0.03230
 Alpha virt. eigenvalues --    0.04731   0.04766   0.05151   0.05170   0.06184

 Mulliken charges:
               1
     1  Mg   0.838790
     2  C   -0.002938
     3  C   -0.094120
     4  C   -0.045873
     5  C   -0.063969
     6  N   -0.256783
     7  C   -0.052461
     8  C   -0.014003
     9  C   -0.087005
    10  C    0.046351
    11  C    0.104828
    12  C    0.053450
    13  C   -0.071821
    14  H    0.036236
    15  N   -0.433129
    16  C    0.168430
    17  C   -0.177169
    18  C   -0.004030
    19  C    0.148725
    20  C    0.110191
    21  C    0.012287
    22  O   -0.249661
    23  C    0.062470
    24  N   -0.341149
    25  C    0.041225
    26  C   -0.028160
    27  C   -0.023988
    28  C    0.074870
    29  C    0.076198
    30  C    0.035133
    31  C   -0.004507
    32  N   -0.310488
    33  C    0.080456
    34  C   -0.169680
    35  C    0.008370
    36  C    0.083024
    37  C    0.127297
    38  C    0.046147
    39  O   -0.188393
    40  C   -0.005338
    41  C    0.212869
    42  O   -0.257000
    43  O   -0.304837
    44  C    0.157662
    45  H   -0.017652
    46  H   -0.016878
    47  H   -0.041492
    48  H    0.000918
    49  H   -0.004040
    50  H    0.025455
    51  H    0.016414
    52  H    0.016608
    53  H    0.011233
    54  H    0.044200
    55  H    0.017814
    56  H    0.017924
    57  H    0.005854
    58  H    0.026756
    59  H    0.039557
    60  H    0.037300
    61  H    0.035605
    62  H    0.031542
    63  H    0.016553
    64  H    0.009420
    65  H    0.023166
    66  H    0.012511
    67  H    0.004712
    68  H    0.006319
    69  H    0.004740
    70  H    0.008763
    71  H    0.018213
    72  H    0.029030
    73  H    0.047644
    74  H    0.009120
    75  H    0.045963
    76  H    0.035107
    77  H    0.042937
    78  H    0.046384
    79  H    0.053797
    80  Mg   0.837905
    81  C   -0.016848
    82  C   -0.087837
    83  C   -0.045525
    84  C   -0.064886
    85  N   -0.254591
    86  C   -0.049821
    87  C   -0.015098
    88  C   -0.090516
    89  C    0.045772
    90  C    0.114390
    91  C    0.062526
    92  C   -0.077902
    93  H    0.034940
    94  N   -0.423517
    95  C    0.162948
    96  C   -0.174645
    97  C   -0.007810
    98  C    0.152101
    99  C    0.099370
   100  C    0.015552
   101  O   -0.253188
   102  C    0.061203
   103  N   -0.350081
   104  C    0.037496
   105  C   -0.019844
   106  C   -0.034822
   107  C    0.088942
   108  C    0.073660
   109  C    0.034735
   110  C   -0.007685
   111  N   -0.324114
   112  C    0.078460
   113  C   -0.163100
   114  C    0.002287
   115  C    0.096216
   116  C    0.131482
   117  C    0.042415
   118  O   -0.187734
   119  C    0.000918
   120  C    0.211278
   121  O   -0.250997
   122  O   -0.305642
   123  C    0.152007
   124  H   -0.019686
   125  H   -0.015577
   126  H   -0.040397
   127  H   -0.000642
   128  H   -0.004331
   129  H    0.022459
   130  H    0.014407
   131  H    0.016249
   132  H    0.013919
   133  H    0.037711
   134  H    0.020772
   135  H    0.019574
   136  H    0.008745
   137  H    0.026115
   138  H    0.039795
   139  H    0.038233
   140  H    0.036391
   141  H    0.033905
   142  H    0.014410
   143  H    0.012436
   144  H    0.025137
   145  H    0.011612
   146  H    0.005679
   147  H    0.006265
   148  H    0.003699
   149  H    0.010921
   150  H    0.017977
   151  H    0.030095
   152  H    0.046109
   153  H    0.008548
   154  H    0.046996
   155  H    0.035033
   156  H    0.043971
   157  H    0.049457
   158  H    0.053618
 Sum of Mulliken charges =  -0.00000

 Dipole moment (field-independent basis, Debye):
    X=             -0.1629    Y=              0.0045    Z=              8.0710  Tot=              8.0727
 Quadrupole moment (field-independent basis, Debye-Ang):
   XX=           -395.8626   YY=           -504.7237   ZZ=           -488.0500
   XY=            -25.5893   XZ=             -0.8012   YZ=             58.7889

 Normal termination of Gaussian 16 at Sun Sep 12 17:43:31 2021.
