 Gaussian 16, Revision A.03,
 Gaussian 16:  ES64L-G16RevA.03 25-Dec-2016

 -----------------------------------
 #p cam-b3lyp/Def2SVP td=(nstates=5)
 -----------------------------------

 --------------------------------
 TDDFT excited states in gaussian
 --------------------------------
 Symbolic Z-matrix:
 Charge =  0 Multiplicity = 1

                         Standard orientation:
 ---------------------------------------------------------------------
 Center     Atomic      Atomic             Coordinates (Angstroms)
 Number     Number       Type             X           Y           Z
 ---------------------------------------------------------------------
      1         12           0        3.963138   -0.493817    1.139249
      2          6           0        4.608740    2.487293   -0.733822
      3          6           0        3.970616    1.446274    3.946215
      4          6           0        3.847017   -3.160714    2.851205
      5          6           0        5.119083   -2.295547   -1.610882
      6          7           0        4.261058    1.679201    1.439058
      7          6           0        4.440565    2.720831    0.632861
      8          6           0        4.357697    4.092225    1.367562
      9          6           0        4.727252    3.610703    2.841863
     10          6           0        4.260096    2.168700    2.750667
     11          6           0        6.225049    3.624506    3.129811
     12          6           0        2.920661    4.711417    1.310462
     13          6           0        2.827959    6.185794    1.714159
     14          1           0        1.875225    7.042228    1.024109
     15          7           0        3.439843   -0.786097    3.021690
     16          6           0        3.492423    0.120500    4.026978
     17          6           0        2.997839   -0.578570    5.232536
     18          6           0        2.832817   -2.018118    4.888208
     19          6           0        3.398817   -2.051045    3.563845
     20          6           0        2.688437    0.120889    6.520471
     21          6           0        2.266033   -3.181776    5.638401
     22          8           0        2.429974   -4.388004    5.247617
     23          6           0        1.580423   -2.874723    6.906746
     24          7           0        4.619855   -2.442283    0.778919
     25          6           0        4.392677   -3.421341    1.661426
     26          6           0        4.694551   -4.767675    1.073042
     27          6           0        4.946307   -4.522974   -0.484678
     28          6           0        4.817895   -2.979805   -0.504923
     29          6           0        5.898054   -5.506370    1.674643
     30          6           0        4.085506   -5.347772   -1.474197
     31          6           0        2.638955   -4.917217   -1.378226
     32          7           0        4.565813   -0.033133   -0.894368
     33          6           0        5.033526   -0.935985   -1.860172
     34          6           0        5.417952   -0.143157   -3.042419
     35          6           0        5.161032    1.175914   -2.673785
     36          6           0        4.673303    1.207437   -1.336093
     37          6           0        5.985727   -0.656871   -4.241652
     38          6           0        5.208310    2.568140   -3.090110
     39          8           0        5.446612    3.148628   -4.150176
     40          6           0        4.967884    3.482705   -1.808864
     41          6           0        3.942811    4.520465   -2.177087
     42          8           0        2.763465    4.195422   -2.423779
     43          8           0        4.446950    5.743224   -1.950709
     44          6           0        3.469595    6.818582   -2.267782
     45          1           0        4.183860    1.913180    4.909785
     46          1           0        3.720188   -4.114934    3.366780
     47          1           0        5.408369   -2.796281   -2.536642
     48          1           0        5.079312    4.834824    1.026619
     49          1           0        4.156611    4.146665    3.600043
     50          1           0        6.801669    3.840389    2.230463
     51          1           0        6.459134    2.626839    3.501774
     52          1           0        6.456420    4.310250    3.945287
     53          1           0        2.305995    4.265900    2.092614
     54          1           0        2.483288    4.580619    0.320047
     55          1           0        3.812250    6.654102    1.741850
     56          1           0        2.474855    6.236324    2.744191
     57          1           0        3.065581    1.142802    6.521873
     58          1           0        3.260490   -0.380836    7.300687
     59          1           0        1.626138    0.084391    6.762381
     60          1           0        2.276279   -2.373377    7.579788
     61          1           0        1.162580   -3.817317    7.258560
     62          1           0        0.777307   -2.163681    6.710855
     63          1           0        3.851506   -5.446273    1.196352
     64          1           0        5.973114   -4.748692   -0.773457
     65          1           0        5.653984   -6.493478    2.068029
     66          1           0        6.329842   -4.872683    2.448781
     67          1           0        6.743685   -5.629129    0.998437
     68          1           0        4.122821   -6.406080   -1.218195
     69          1           0        4.405462   -5.245938   -2.511265
     70          1           0        2.269067   -5.493735   -0.531088
     71          1           0        2.103128   -5.177772   -2.291578
     72          1           0        2.554108   -3.862349   -1.116424
     73          1           0        5.478692   -0.148213   -5.061500
     74          1           0        5.860418   -1.737385   -4.307920
     75          1           0        7.027761   -0.364455   -4.113141
     76          1           0        5.929616    3.928555   -1.557049
     77          1           0        3.947415    7.485051   -2.985933
     78          1           0        3.156109    7.243462   -1.314048
     79          1           0        2.583515    6.515216   -2.826504
     80         12           0       -3.637906   -0.789777   -1.100963
     81          6           0       -6.053863    1.390239    0.412239
     82          6           0       -2.358191    1.958518   -2.664236
     83          6           0       -1.789172   -2.735799   -2.792870
     84          6           0       -5.767726   -3.443972   -0.349420
     85          7           0       -4.217085    1.344323   -1.051726
     86          6           0       -5.112375    2.064587   -0.392925
     87          6           0       -4.941447    3.599817   -0.545987
     88          6           0       -4.153904    3.615753   -1.945414
     89          6           0       -3.503146    2.235787   -1.875386
     90          6           0       -5.074730    3.648823   -3.153849
     91          6           0       -4.077754    4.222901    0.606314
     92          6           0       -4.126957    5.749925    0.693177
     93          1           0       -4.077492    6.373990    2.012480
     94          7           0       -1.981877   -0.416654   -2.129029
     95          6           0       -1.609271    0.761263   -2.672125
     96          6           0       -0.323659    0.507317   -3.340603
     97          6           0       -0.048465   -0.954279   -3.288399
     98          6           0       -1.299808   -1.438735   -2.741102
     99          6           0        0.545721    1.607196   -3.877148
    100          6           0        1.139005   -1.780693   -3.679756
    101          8           0        1.070687   -3.057440   -3.769599
    102          6           0        2.358168   -1.044761   -4.045175
    103          7           0       -3.851444   -2.768305   -1.702771
    104          6           0       -2.875626   -3.392353   -2.385621
    105          6           0       -3.131871   -4.878273   -2.467920
    106          6           0       -4.363587   -5.156839   -1.486664
    107          6           0       -4.677225   -3.707052   -1.056364
    108          6           0       -3.457085   -5.421184   -3.859280
    109          6           0       -4.154220   -6.227225   -0.380717
    110          6           0       -3.136019   -5.738657    0.624243
    111          7           0       -5.470871   -1.045541    0.013889
    112          6           0       -6.208770   -2.237992    0.180182
    113          6           0       -7.439307   -1.889015    0.919374
    114          6           0       -7.342173   -0.502849    1.113288
    115          6           0       -6.145998   -0.018686    0.518094
    116          6           0       -8.480346   -2.792171    1.275276
    117          6           0       -7.984709    0.662572    1.676878
    118          8           0       -8.978921    0.853571    2.376028
    119          6           0       -7.241037    1.959866    1.138023
    120          6           0       -6.977507    2.864801    2.310269
    121          8           0       -6.198197    2.516744    3.214776
    122          8           0       -7.515455    4.073196    2.063757
    123          6           0       -7.270762    5.009284    3.193212
    124          1           0       -2.024006    2.713064   -3.376870
    125          1           0       -1.134047   -3.468206   -3.270234
    126          1           0       -6.435106   -4.230711    0.008794
    127          1           0       -5.868464    4.153485   -0.634702
    128          1           0       -3.395761    4.394376   -1.963147
    129          1           0       -6.111520    3.536491   -2.873533
    130          1           0       -4.762116    2.826853   -3.784480
    131          1           0       -4.900444    4.558375   -3.735803
    132          1           0       -3.014503    4.082143    0.373043
    133          1           0       -4.344371    3.798251    1.554584
    134          1           0       -4.947971    6.170296    0.099730
    135          1           0       -3.225027    6.153281    0.226438
    136          1           0        0.006353    2.561446   -3.920367
    137          1           0        0.755983    1.366333   -4.924828
    138          1           0        1.491494    1.697244   -3.338545
    139          1           0        2.142717   -0.380148   -4.878450
    140          1           0        3.122274   -1.807423   -4.207550
    141          1           0        2.648587   -0.408244   -3.201894
    142          1           0       -2.272438   -5.438710   -2.120961
    143          1           0       -5.246069   -5.520219   -2.033485
    144          1           0       -2.769358   -6.223751   -4.186373
    145          1           0       -3.440112   -4.596902   -4.559866
    146          1           0       -4.468206   -5.806227   -3.980043
    147          1           0       -3.747622   -7.144524   -0.813604
    148          1           0       -5.067552   -6.494299    0.140323
    149          1           0       -2.182030   -5.988570    0.150396
    150          1           0       -3.253843   -6.258779    1.572728
    151          1           0       -3.177028   -4.648110    0.727646
    152          1           0       -8.756797   -2.562117    2.295651
    153          1           0       -8.161045   -3.827206    1.172792
    154          1           0       -9.236289   -2.520452    0.533662
    155          1           0       -7.892148    2.427225    0.398296
    156          1           0       -8.247209    5.385574    3.513583
    157          1           0       -6.544487    5.752293    2.813445
    158          1           0       -6.891645    4.590545    4.118081
 ---------------------------------------------------------------------

 SCF Done:  E(RCAM-B3LYP) =  -4069.81841143     A.U. after   17 cycles

 Excitation energies and oscillator strengths:

 Excited State   1:      Singlet-A      1.6207 eV  764.99 nm  f=0.1378  <S**2>=0.000
     309 -> 315       -0.11724
     310 -> 316       -0.11028
     311 -> 313        0.49300
     312 -> 314       -0.47189
 This state for optimization and/or second-order correction.
 Total Energy, E(TD-HF/TD-DFT) =  -4069.75885088
 Copying the excited state density for this state as the 1-particle RhoCI density.

 Excited State   2:      Singlet-A      1.7124 eV  724.06 nm  f=0.5882  <S**2>=0.000
     309 -> 315       -0.12861
     310 -> 316        0.13077
     311 -> 313        0.47315
     312 -> 314        0.49342

 Excited State   3:      Singlet-A      2.1816 eV  568.32 nm  f=0.0011  <S**2>=0.000
     309 -> 313       -0.26986
     310 -> 314        0.28680
     311 -> 315       -0.11189
     312 -> 313        0.55453
     312 -> 316       -0.12319

 Excited State   4:      Singlet-A      2.1858 eV  567.23 nm  f=0.0018  <S**2>=0.000
     309 -> 313        0.39383
     310 -> 314       -0.32479
     311 -> 315        0.16484
     312 -> 313        0.42782
     312 -> 316        0.13336

 Excited State   5:      Singlet-A      2.2009 eV  563.32 nm  f=0.1638  <S**2>=0.000
     309 -> 313        0.42748
     310 -> 314        0.46887
     311 -> 315        0.19123
     312 -> 316       -0.20732

 The electronic state is 1-A.
 Alpha  occ. eigenvalues --  -46.88002 -46.87269 -19.27007 -19.26187 -19.19978
 Alpha  occ. eigenvalues --  -19.18976 -19.18917 -19.18597 -19.18363 -19.17693
 Alpha  occ. eigenvalues --  -14.42663 -14.42112 -14.41580 -14.40959 -14.39595
 Alpha  occ. eigenvalues --  -14.38946 -14.38946 -14.38204 -10.39878 -10.38893
 Alpha  occ. eigenvalues --  -10.35540 -10.34934 -10.34837 -10.33885 -10.32322
 Alpha  occ. eigenvalues --  -10.31687 -10.31658 -10.31146 -10.30925 -10.30843
 Alpha  occ. eigenvalues --  -10.30730 -10.30580 -10.30236 -10.30072 -10.30046
 Alpha  occ. eigenvalues --  -10.29918 -10.29869 -10.29697 -10.29584 -10.29416
 Alpha  occ. eigenvalues --  -10.29037 -10.28951 -10.28905 -10.28882 -10.28695
 Alpha  occ. eigenvalues --  -10.28513 -10.28399 -10.28369 -10.28056 -10.27958
 Alpha  occ. eigenvalues --  -10.27929 -10.27794 -10.27782 -10.27683 -10.27636
 Alpha  occ. eigenvalues --  -10.27572 -10.27537 -10.27313 -10.27234 -10.27209
 Alpha  occ. eigenvalues --  -10.27200 -10.27103 -10.27102 -10.27045 -10.26934
 Alpha  occ. eigenvalues --  -10.26746 -10.26457 -10.26453 -10.26406 -10.26108
 Alpha  occ. eigenvalues --  -10.26100 -10.25859 -10.25851 -10.25692 -10.25521
 Alpha  occ. eigenvalues --  -10.25513 -10.25475 -10.25453 -10.25359 -10.25192
 Alpha  occ. eigenvalues --  -10.25174 -10.24955 -10.24444 -10.24431 -10.24320
 Alpha  occ. eigenvalues --  -10.23393  -3.16745  -3.16021  -1.91625  -1.91211
 Alpha  occ. eigenvalues --   -1.91057  -1.90904  -1.90492  -1.90328  -1.17374
 Alpha  occ. eigenvalues --   -1.16473  -1.09097  -1.08327  -1.07495  -1.07308
 Alpha  occ. eigenvalues --   -1.06755  -1.06592  -1.04823  -1.04100  -1.03920
 Alpha  occ. eigenvalues --   -1.03480  -1.03273  -1.02638  -1.02634  -1.01704
 Alpha  occ. eigenvalues --   -0.92306  -0.91609  -0.89542  -0.89387  -0.89130
 Alpha  occ. eigenvalues --   -0.88819  -0.88204  -0.88131  -0.87887  -0.87861
 Alpha  occ. eigenvalues --   -0.87422  -0.87404  -0.87274  -0.86347  -0.85226
 Alpha  occ. eigenvalues --   -0.84651  -0.83855  -0.83564  -0.82935  -0.82779
 Alpha  occ. eigenvalues --   -0.82440  -0.82033  -0.81951  -0.81304  -0.80839
 Alpha  occ. eigenvalues --   -0.80064  -0.78980  -0.78007  -0.77379  -0.77118
 Alpha  occ. eigenvalues --   -0.76687  -0.76597  -0.76168  -0.75414  -0.74861
 Alpha  occ. eigenvalues --   -0.74431  -0.72965  -0.72266  -0.71869  -0.71215
 Alpha  occ. eigenvalues --   -0.69526  -0.69425  -0.69072  -0.68449  -0.67879
 Alpha  occ. eigenvalues --   -0.67451  -0.67221  -0.66796  -0.65566  -0.65154
 Alpha  occ. eigenvalues --   -0.64934  -0.64800  -0.64412  -0.64317  -0.64132
 Alpha  occ. eigenvalues --   -0.63857  -0.62665  -0.61997  -0.60557  -0.60062
 Alpha  occ. eigenvalues --   -0.59775  -0.59428  -0.59202  -0.58740  -0.58620
 Alpha  occ. eigenvalues --   -0.58086  -0.58032  -0.57395  -0.57252  -0.56822
 Alpha  occ. eigenvalues --   -0.56646  -0.56355  -0.55793  -0.55754  -0.55547
 Alpha  occ. eigenvalues --   -0.55509  -0.55020  -0.54900  -0.54598  -0.54211
 Alpha  occ. eigenvalues --   -0.54164  -0.53582  -0.53481  -0.53456  -0.53250
 Alpha  occ. eigenvalues --   -0.52997  -0.52859  -0.52812  -0.52628  -0.52418
 Alpha  occ. eigenvalues --   -0.52079  -0.51959  -0.51854  -0.51613  -0.51524
 Alpha  occ. eigenvalues --   -0.51312  -0.51184  -0.50837  -0.50618  -0.50153
 Alpha  occ. eigenvalues --   -0.49930  -0.49785  -0.49699  -0.49528  -0.49488
 Alpha  occ. eigenvalues --   -0.49325  -0.49195  -0.49091  -0.48829  -0.48771
 Alpha  occ. eigenvalues --   -0.48639  -0.48619  -0.48424  -0.48194  -0.48062
 Alpha  occ. eigenvalues --   -0.47833  -0.47779  -0.47456  -0.47087  -0.46933
 Alpha  occ. eigenvalues --   -0.46787  -0.46628  -0.46483  -0.46334  -0.46278
 Alpha  occ. eigenvalues --   -0.46193  -0.46097  -0.45804  -0.45621  -0.45521
 Alpha  occ. eigenvalues --   -0.45158  -0.44889  -0.44861  -0.44629  -0.44437
 Alpha  occ. eigenvalues --   -0.44228  -0.44177  -0.44109  -0.44056  -0.43794
 Alpha  occ. eigenvalues --   -0.43771  -0.43675  -0.43480  -0.43343  -0.43285
 Alpha  occ. eigenvalues --   -0.43235  -0.43127  -0.43021  -0.42659  -0.42565
 Alpha  occ. eigenvalues --   -0.42511  -0.42143  -0.41976  -0.41855  -0.41636
 Alpha  occ. eigenvalues --   -0.41480  -0.41340  -0.41299  -0.41091  -0.41015
 Alpha  occ. eigenvalues --   -0.40934  -0.40620  -0.40495  -0.40370  -0.40327
 Alpha  occ. eigenvalues --   -0.40195  -0.40170  -0.39788  -0.39105  -0.38981
 Alpha  occ. eigenvalues --   -0.38389  -0.38042  -0.38016  -0.37574  -0.37379
 Alpha  occ. eigenvalues --   -0.37353  -0.37199  -0.36909  -0.36800  -0.36557
 Alpha  occ. eigenvalues --   -0.36266  -0.35901  -0.34640  -0.34456  -0.33871
 Alpha  occ. eigenvalues --   -0.33636  -0.33416  -0.32777  -0.31452  -0.31254
 Alpha  occ. eigenvalues --   -0.30877  -0.30595  -0.30467  -0.29735  -0.29616
 Alpha  occ. eigenvalues --   -0.29570  -0.28862  -0.28732  -0.24304  -0.23645
 Alpha  occ. eigenvalues --   -0.21330  -0.20686
 Alpha virt. eigenvalues --   -0.09004  -0.08335  -0.01938  -0.01314  -0.00276
 Alpha virt. eigenvalues --    0.00430   0.01873   0.02374   0.02618   0.04097
 Alpha virt. eigenvalues --    0.04380   0.04480   0.05068   0.05383   0.05851

 Mulliken charges:
               1
     1  Mg   0.838062
     2  C   -0.006138
     3  C   -0.093882
     4  C   -0.044611
     5  C   -0.052803
     6  N   -0.257487
     7  C   -0.054701
     8  C   -0.014461
     9  C   -0.087284
    10  C    0.047643
    11  C    0.104588
    12  C    0.053274
    13  C   -0.071691
    14  H    0.033589
    15  N   -0.433592
    16  C    0.170071
    17  C   -0.175792
    18  C   -0.002600
    19  C    0.149811
    20  C    0.109756
    21  C    0.013527
    22  O   -0.248078
    23  C    0.061709
    24  N   -0.342135
    25  C    0.043791
    26  C   -0.028053
    27  C   -0.023766
    28  C    0.073411
    29  C    0.076346
    30  C    0.033118
    31  C    0.001532
    32  N   -0.303234
    33  C    0.061527
    34  C   -0.181063
    35  C    0.009981
    36  C    0.075162
    37  C    0.131439
    38  C    0.035929
    39  O   -0.188150
    40  C   -0.005926
    41  C    0.219135
    42  O   -0.259894
    43  O   -0.302303
    44  C    0.157463
    45  H   -0.016773
    46  H   -0.015208
    47  H   -0.039650
    48  H    0.000464
    49  H   -0.003135
    50  H    0.025480
    51  H    0.017164
    52  H    0.017468
    53  H    0.013158
    54  H    0.040887
    55  H    0.018510
    56  H    0.019818
    57  H    0.006305
    58  H    0.027659
    59  H    0.042728
    60  H    0.037291
    61  H    0.036844
    62  H    0.033874
    63  H    0.018736
    64  H    0.008063
    65  H    0.023447
    66  H    0.011174
    67  H    0.005098
    68  H    0.002440
    69  H    0.006750
    70  H   -0.003666
    71  H    0.035731
    72  H    0.024649
    73  H    0.043292
    74  H    0.014264
    75  H    0.046646
    76  H    0.036508
    77  H    0.044835
    78  H    0.048359
    79  H    0.050945
    80  Mg   0.834859
    81  C   -0.016951
    82  C   -0.081899
    83  C   -0.047254
    84  C   -0.065285
    85  N   -0.254218
    86  C   -0.051768
    87  C   -0.014972
    88  C   -0.090355
    89  C    0.043973
    90  C    0.114417
    91  C    0.062142
    92  C   -0.076734
    93  H    0.031180
    94  N   -0.423937
    95  C    0.160102
    96  C   -0.172278
    97  C   -0.010609
    98  C    0.152110
    99  C    0.104855
   100  C    0.020763
   101  O   -0.259165
   102  C    0.054207
   103  N   -0.350353
   104  C    0.038746
   105  C   -0.019802
   106  C   -0.034214
   107  C    0.088056
   108  C    0.074079
   109  C    0.035038
   110  C   -0.007127
   111  N   -0.323553
   112  C    0.076683
   113  C   -0.164770
   114  C    0.001562
   115  C    0.094624
   116  C    0.131849
   117  C    0.041031
   118  O   -0.190474
   119  C    0.001170
   120  C    0.211205
   121  O   -0.252504
   122  O   -0.305361
   123  C    0.152581
   124  H   -0.016718
   125  H   -0.017007
   126  H   -0.041918
   127  H   -0.001747
   128  H   -0.002877
   129  H    0.021669
   130  H    0.014910
   131  H    0.015992
   132  H    0.015188
   133  H    0.036146
   134  H    0.020721
   135  H    0.019442
   136  H    0.010735
   137  H    0.021435
   138  H    0.056429
   139  H    0.039745
   140  H    0.020590
   141  H    0.063777
   142  H    0.013194
   143  H    0.011459
   144  H    0.023351
   145  H    0.011896
   146  H    0.005334
   147  H    0.004810
   148  H    0.003041
   149  H    0.010423
   150  H    0.018009
   151  H    0.030334
   152  H    0.044369
   153  H    0.007560
   154  H    0.045756
   155  H    0.034319
   156  H    0.043299
   157  H    0.049055
   158  H    0.052254
 Sum of Mulliken charges =  -0.00000

 Dipole moment (field-independent basis, Debye):
    X=              3.6441    Y=              3.3583    Z=              1.4210  Tot=              5.1553
 Quadrupole moment (field-independent basis, Debye-Ang):
   XX=           -541.5346   YY=           -464.1719   ZZ=           -512.4645
   XY=              4.6022   XZ=             41.5394   YZ=             22.0787

 Normal termination of Gaussian 16 at Wed Sep  8 15:58:01 2021.
