 Gaussian 16, Revision A.03,
 Gaussian 16:  ES64L-G16RevA.03 25-Dec-2016

 -----------------------------------
 #p cam-b3lyp/Def2SVP td=(nstates=5)
 -----------------------------------

 --------------------------------
 TDDFT excited states in gaussian
 --------------------------------
 Symbolic Z-matrix:
 Charge =  0 Multiplicity = 1

                         Standard orientation:
 ---------------------------------------------------------------------
 Center     Atomic      Atomic             Coordinates (Angstroms)
 Number     Number       Type             X           Y           Z
 ---------------------------------------------------------------------
      1         12           0       -6.539758   -0.719875    0.064588
      2          6           0       -6.711494    2.828258    0.504445
      3          6           0       -7.403627   -0.207816   -3.196484
      4          6           0       -6.838559   -3.862600   -0.236430
      5          6           0       -6.810776   -1.013842    3.526639
      6          7           0       -6.974104    1.122994   -1.082506
      7          6           0       -6.946723    2.424162   -0.811617
      8          6           0       -7.116788    3.321695   -2.073713
      9          6           0       -7.876993    2.286380   -3.018281
     10          6           0       -7.361315    0.988899   -2.421168
     11          6           0       -9.394471    2.326605   -2.869477
     12          6           0       -5.741807    3.753075   -2.686143
     13          6           0       -5.811113    4.885959   -3.714309
     14          1           0       -4.726656    5.854953   -3.762801
     15          7           0       -6.566399   -1.855309   -1.551867
     16          6           0       -6.929781   -1.477451   -2.801052
     17          6           0       -6.779124   -2.678650   -3.650232
     18          6           0       -6.480836   -3.832662   -2.757273
     19          6           0       -6.644676   -3.226891   -1.460517
     20          6           0       -6.870210   -2.646274   -5.145024
     21          6           0       -6.117649   -5.258193   -3.029462
     22          8           0       -6.128107   -6.149640   -2.113062
     23          6           0       -5.831255   -5.606682   -4.432877
     24          7           0       -7.009335   -2.237813    1.418470
     25          6           0       -7.014619   -3.521175    1.041724
     26          6           0       -7.096816   -4.437647    2.226317
     27          6           0       -6.901181   -3.514099    3.514160
     28          6           0       -6.817452   -2.138579    2.807618
     29          6           0       -8.399758   -5.237129    2.364815
     30          6           0       -5.770346   -3.908460    4.497069
     31          6           0       -4.424368   -3.713445    3.835699
     32          7           0       -6.550998    0.640162    1.756102
     33          6           0       -6.697460    0.301726    3.109130
     34          6           0       -6.751959    1.565319    3.867042
     35          6           0       -6.649403    2.557798    2.894256
     36          6           0       -6.564312    1.952979    1.607692
     37          6           0       -6.939122    1.686828    5.272260
     38          6           0       -6.616699    3.988983    2.640293
     39          8           0       -6.559823    4.994489    3.349671
     40          6           0       -6.778245    4.223678    1.073562
     41          6           0       -5.721504    5.207125    0.649959
     42          8           0       -4.511795    4.903231    0.690206
     43          8           0       -6.304741    6.253431    0.045294
     44          6           0       -5.309395    7.253089   -0.426004
     45          1           0       -7.896205   -0.188476   -4.170616
     46          1           0       -6.836128   -4.953541   -0.284178
     47          1           0       -6.809448   -1.028445    4.618077
     48          1           0       -7.732662    4.208208   -1.921343
     49          1           0       -7.562026    2.376712   -4.057684
     50          1           0       -9.696889    2.970689   -2.043874
     51          1           0       -9.695622    1.296371   -2.678637
     52          1           0       -9.868597    2.608027   -3.810106
     53          1           0       -5.362827    2.950846   -3.319282
     54          1           0       -5.036661    4.023020   -1.899234
     55          1           0       -6.775709    5.393436   -3.683798
     56          1           0       -5.767869    4.446021   -4.710694
     57          1           0       -7.261788   -1.694504   -5.501878
     58          1           0       -7.626005   -3.376387   -5.433848
     59          1           0       -5.920330   -2.893141   -5.619488
     60          1           0       -6.704411   -5.380491   -5.045238
     61          1           0       -5.503675   -6.645653   -4.423888
     62          1           0       -5.026742   -4.967758   -4.798232
     63          1           0       -6.304441   -5.184508    2.198650
     64          1           0       -7.796040   -3.484904    4.136293
     65          1           0       -8.249215   -6.316227    2.404702
     66          1           0       -9.052597   -4.963711    1.536362
     67          1           0       -9.013619   -4.965557    3.223209
     68          1           0       -5.848153   -4.962524    4.761345
     69          1           0       -5.784276   -3.332611    5.422518
     70          1           0       -4.294601   -4.636068    3.271111
     71          1           0       -3.643071   -3.603197    4.588448
     72          1           0       -4.448506   -2.893020    3.118199
     73          1           0       -6.234525    2.447072    5.609218
     74          1           0       -6.768621    0.736721    5.778058
     75          1           0       -7.982638    1.998997    5.310738
     76          1           0       -7.784451    4.611074    0.916737
     77          1           0       -5.581959    8.210976    0.017162
     78          1           0       -5.293294    7.185195   -1.513908
     79          1           0       -4.292355    7.134615   -0.050592
     80         12           0        6.696374   -0.835714    0.084804
     81          6           0        6.522267    2.748766    0.070557
     82          6           0        5.826929   -0.742069   -3.212151
     83          6           0        6.400841   -3.993548    0.175398
     84          6           0        6.423108   -0.696663    3.556360
     85          7           0        6.258414    0.846647   -1.282711
     86          6           0        6.283902    2.167837   -1.192429
     87          6           0        6.119787    2.908355   -2.546774
     88          6           0        5.351413    1.755920   -3.359398
     89          6           0        5.866572    0.535649   -2.598992
     90          6           0        3.840981    1.813786   -3.202569
     91          6           0        7.499176    3.255983   -3.208926
     92          6           0        7.422295    4.246161   -4.373148
     93          1           0        8.512817    5.201586   -4.547449
     94          7           0        6.671421   -2.166020   -1.387694
     95          6           0        6.313190   -1.952546   -2.671195
     96          6           0        6.447655   -3.251855   -3.347849
     97          6           0        6.756098   -4.285157   -2.322241
     98          6           0        6.597403   -3.508232   -1.109277
     99          6           0        6.363637   -3.405406   -4.838754
    100          6           0        7.119603   -5.736046   -2.416914
    101          8           0        7.111533   -6.500728   -1.388309
    102          6           0        7.394562   -6.256450   -3.764160
    103          7           0        6.235984   -2.165432    1.615237
    104          6           0        6.224856   -3.492339    1.398153
    105          6           0        6.140946   -4.256993    2.697635
    106          6           0        6.342689   -3.167606    3.850941
    107          6           0        6.422779   -1.892391    2.983299
    108          6           0        4.837297   -5.017701    2.938882
    109          6           0        7.475251   -3.433734    4.880095
    110          6           0        8.822634   -3.335872    4.201586
    111          7           0        6.691701    0.720514    1.583532
    112          6           0        6.539708    0.560995    2.978356
    113          6           0        6.486371    1.914432    3.568092
    114          6           0        6.588717    2.774446    2.464283
    115          6           0        6.677800    2.010998    1.268992
    116          6           0        6.311027    2.214026    4.948529
    117          6           0        6.630949    4.154578    2.037509
    118          8           0        6.681417    5.240730    2.613253
    119          6           0        6.462527    4.200388    0.457657
    120          6           0        7.518907    5.117114   -0.095685
    121          8           0        8.723344    4.820877   -0.005197
    122          8           0        6.928080    6.078936   -0.827936
    123          6           0        7.935816    7.006779   -1.407091
    124          1           0        5.339555   -0.836786   -4.182912
    125          1           0        6.402888   -5.081569    0.273842
    126          1           0        6.437560   -0.569093    4.640886
    127          1           0        5.510209    3.803005   -2.504371
    128          1           0        5.673352    1.722507   -4.396982
    129          1           0        3.539602    2.550868   -2.473164
    130          1           0        3.539898    0.823588   -2.886478
    131          1           0        3.367029    1.976932   -4.174731
    132          1           0        7.874892    2.371409   -3.739114
    133          1           0        8.194539    3.614429   -2.475021
    134          1           0        6.452893    4.757402   -4.416107
    135          1           0        7.471176    3.685195   -5.309599
    136          1           0        5.964599   -2.501030   -5.314430
    137          1           0        5.608659   -4.173358   -5.039071
    138          1           0        7.310992   -3.716475   -5.284203
    139          1           0        6.522324   -6.103682   -4.395275
    140          1           0        7.722874   -7.287323   -3.617860
    141          1           0        8.208930   -5.671290   -4.205765
    142          1           0        6.933683   -4.991848    2.765802
    143          1           0        5.444052   -3.065810    4.476988
    144          1           0        4.989303   -6.099345    3.115044
    145          1           0        4.186948   -4.858553    2.089026
    146          1           0        4.232654   -4.647450    3.765031
    147          1           0        7.398720   -4.450565    5.272963
    148          1           0        7.455156   -2.758222    5.728782
    149          1           0        8.946182   -4.326668    3.754213
    150          1           0        9.604524   -3.131513    4.930226
    151          1           0        8.799596   -2.605708    3.384283
    152          1           0        7.008840    3.005855    5.186351
    153          1           0        6.477269    1.336604    5.570037
    154          1           0        5.262838    2.524802    4.949060
    155          1           0        5.455359    4.561448    0.245906
    156          1           0        7.660388    8.016888   -1.088502
    157          1           0        7.937810    6.804604   -2.494687
    158          1           0        8.951894    6.937842   -1.036565
 ---------------------------------------------------------------------

 SCF Done:  E(RCAM-B3LYP) =  -4069.81157393     A.U. after   19 cycles

 Excitation energies and oscillator strengths:

 Excited State   1:      Singlet-A      1.6655 eV  744.44 nm  f=0.0105  <S**2>=0.000
     309 -> 315       -0.11042
     310 -> 316        0.13105
     311 -> 313       -0.44087
     312 -> 314        0.52637
 This state for optimization and/or second-order correction.
 Total Energy, E(TD-HF/TD-DFT) =  -4069.75036911
 Copying the excited state density for this state as the 1-particle RhoCI density.

 Excited State   2:      Singlet-A      1.6892 eV  733.98 nm  f=0.7325  <S**2>=0.000
     309 -> 315        0.13646
     310 -> 316        0.11366
     311 -> 313        0.52518
     312 -> 314        0.43997

 Excited State   3:      Singlet-A      2.1847 eV  567.51 nm  f=0.0402  <S**2>=0.000
     309 -> 313       -0.20299
     310 -> 314        0.61020
     312 -> 316       -0.25825

 Excited State   4:      Singlet-A      2.1932 eV  565.31 nm  f=0.1489  <S**2>=0.000
     309 -> 313        0.60782
     310 -> 314        0.20124
     311 -> 315       -0.26478

 Excited State   5:      Singlet-A      2.6496 eV  467.94 nm  f=0.0000  <S**2>=0.000
     312 -> 313        0.70710

 The electronic state is 1-A.
 Alpha  occ. eigenvalues --  -46.87851 -46.87550 -19.26313 -19.26243 -19.19053
 Alpha  occ. eigenvalues --  -19.19051 -19.18872 -19.18624 -19.18205 -19.17922
 Alpha  occ. eigenvalues --  -14.42506 -14.42389 -14.41502 -14.41249 -14.39458
 Alpha  occ. eigenvalues --  -14.39244 -14.38638 -14.38485 -10.39112 -10.38980
 Alpha  occ. eigenvalues --  -10.35507 -10.35304 -10.34425 -10.34098 -10.31701
 Alpha  occ. eigenvalues --  -10.31663 -10.31458 -10.31196 -10.30968 -10.30920
 Alpha  occ. eigenvalues --  -10.30621 -10.30557 -10.30284 -10.30262 -10.30246
 Alpha  occ. eigenvalues --  -10.30040 -10.29967 -10.29780 -10.29683 -10.29332
 Alpha  occ. eigenvalues --  -10.29310 -10.29291 -10.28814 -10.28627 -10.28618
 Alpha  occ. eigenvalues --  -10.28591 -10.28418 -10.28294 -10.28179 -10.28037
 Alpha  occ. eigenvalues --  -10.27888 -10.27843 -10.27784 -10.27639 -10.27565
 Alpha  occ. eigenvalues --  -10.27558 -10.27547 -10.27493 -10.27456 -10.27419
 Alpha  occ. eigenvalues --  -10.27397 -10.27372 -10.27361 -10.27275 -10.27197
 Alpha  occ. eigenvalues --  -10.26920 -10.26787 -10.26611 -10.26483 -10.26348
 Alpha  occ. eigenvalues --  -10.26289 -10.26230 -10.26071 -10.26051 -10.25904
 Alpha  occ. eigenvalues --  -10.25875 -10.25825 -10.25707 -10.25474 -10.25295
 Alpha  occ. eigenvalues --  -10.24881 -10.24838 -10.24755 -10.24737 -10.24649
 Alpha  occ. eigenvalues --  -10.24580  -3.16594  -3.16300  -1.91476  -1.91182
 Alpha  occ. eigenvalues --   -1.91062  -1.90904  -1.90771  -1.90608  -1.16662
 Alpha  occ. eigenvalues --   -1.16536  -1.08661  -1.08526  -1.07273  -1.06878
 Alpha  occ. eigenvalues --   -1.06837  -1.06673  -1.04637  -1.04386  -1.03813
 Alpha  occ. eigenvalues --   -1.03554  -1.03286  -1.02928  -1.02463  -1.02000
 Alpha  occ. eigenvalues --   -0.92021  -0.91871  -0.89569  -0.89390  -0.89251
 Alpha  occ. eigenvalues --   -0.89049  -0.88335  -0.88119  -0.87915  -0.87730
 Alpha  occ. eigenvalues --   -0.87671  -0.87579  -0.87335  -0.87028  -0.85044
 Alpha  occ. eigenvalues --   -0.84900  -0.83982  -0.83776  -0.83028  -0.82846
 Alpha  occ. eigenvalues --   -0.82706  -0.82555  -0.81628  -0.81489  -0.80646
 Alpha  occ. eigenvalues --   -0.80338  -0.78854  -0.78534  -0.77274  -0.77044
 Alpha  occ. eigenvalues --   -0.76987  -0.76798  -0.75973  -0.75732  -0.74944
 Alpha  occ. eigenvalues --   -0.74700  -0.72825  -0.72588  -0.71722  -0.71472
 Alpha  occ. eigenvalues --   -0.69955  -0.69662  -0.68932  -0.68728  -0.67693
 Alpha  occ. eigenvalues --   -0.67496  -0.67288  -0.67111  -0.65345  -0.65169
 Alpha  occ. eigenvalues --   -0.64902  -0.64671  -0.64663  -0.64550  -0.64318
 Alpha  occ. eigenvalues --   -0.64101  -0.62336  -0.62172  -0.60499  -0.60242
 Alpha  occ. eigenvalues --   -0.59863  -0.59691  -0.59037  -0.58884  -0.58553
 Alpha  occ. eigenvalues --   -0.58317  -0.57625  -0.57434  -0.57357  -0.57131
 Alpha  occ. eigenvalues --   -0.56361  -0.56097  -0.56020  -0.55785  -0.55574
 Alpha  occ. eigenvalues --   -0.55382  -0.55353  -0.55142  -0.54564  -0.54385
 Alpha  occ. eigenvalues --   -0.53958  -0.53813  -0.53352  -0.53280  -0.53125
 Alpha  occ. eigenvalues --   -0.53042  -0.52962  -0.52820  -0.52801  -0.52582
 Alpha  occ. eigenvalues --   -0.52485  -0.52308  -0.51954  -0.51752  -0.51679
 Alpha  occ. eigenvalues --   -0.51564  -0.51243  -0.51091  -0.50641  -0.50394
 Alpha  occ. eigenvalues --   -0.50083  -0.49978  -0.49882  -0.49769  -0.49573
 Alpha  occ. eigenvalues --   -0.49391  -0.49264  -0.49151  -0.49096  -0.48993
 Alpha  occ. eigenvalues --   -0.48638  -0.48513  -0.48492  -0.48450  -0.48271
 Alpha  occ. eigenvalues --   -0.48243  -0.47750  -0.47497  -0.47350  -0.47022
 Alpha  occ. eigenvalues --   -0.46849  -0.46617  -0.46606  -0.46458  -0.46409
 Alpha  occ. eigenvalues --   -0.46206  -0.46167  -0.45974  -0.45862  -0.45707
 Alpha  occ. eigenvalues --   -0.45248  -0.45105  -0.44622  -0.44567  -0.44407
 Alpha  occ. eigenvalues --   -0.44375  -0.44196  -0.44147  -0.44068  -0.44021
 Alpha  occ. eigenvalues --   -0.43981  -0.43839  -0.43536  -0.43449  -0.43442
 Alpha  occ. eigenvalues --   -0.43281  -0.43076  -0.42825  -0.42789  -0.42740
 Alpha  occ. eigenvalues --   -0.42695  -0.42456  -0.42061  -0.41867  -0.41752
 Alpha  occ. eigenvalues --   -0.41596  -0.41555  -0.41362  -0.41193  -0.40929
 Alpha  occ. eigenvalues --   -0.40885  -0.40882  -0.40634  -0.40620  -0.40605
 Alpha  occ. eigenvalues --   -0.40392  -0.40309  -0.40142  -0.39490  -0.39332
 Alpha  occ. eigenvalues --   -0.38520  -0.38251  -0.37817  -0.37565  -0.37371
 Alpha  occ. eigenvalues --   -0.37325  -0.37163  -0.37097  -0.36750  -0.36666
 Alpha  occ. eigenvalues --   -0.36237  -0.36113  -0.34338  -0.34143  -0.33806
 Alpha  occ. eigenvalues --   -0.33754  -0.33237  -0.33066  -0.31401  -0.31183
 Alpha  occ. eigenvalues --   -0.31087  -0.30864  -0.30064  -0.29825  -0.29504
 Alpha  occ. eigenvalues --   -0.29370  -0.29222  -0.29092  -0.24133  -0.23924
 Alpha  occ. eigenvalues --   -0.21181  -0.21008
 Alpha virt. eigenvalues --   -0.08827  -0.08682  -0.01803  -0.01577  -0.00114
 Alpha virt. eigenvalues --    0.00072   0.02157   0.02328   0.03057   0.03325
 Alpha virt. eigenvalues --    0.04658   0.04833   0.05064   0.05276   0.06108

 Mulliken charges:
               1
     1  Mg   0.838581
     2  C   -0.002998
     3  C   -0.094451
     4  C   -0.045816
     5  C   -0.063902
     6  N   -0.256772
     7  C   -0.052531
     8  C   -0.013939
     9  C   -0.086947
    10  C    0.046192
    11  C    0.104808
    12  C    0.053600
    13  C   -0.071641
    14  H    0.035793
    15  N   -0.433128
    16  C    0.168263
    17  C   -0.177414
    18  C   -0.004088
    19  C    0.148649
    20  C    0.110240
    21  C    0.012242
    22  O   -0.249413
    23  C    0.062568
    24  N   -0.341123
    25  C    0.041195
    26  C   -0.028219
    27  C   -0.023988
    28  C    0.074858
    29  C    0.076129
    30  C    0.035110
    31  C   -0.004492
    32  N   -0.310542
    33  C    0.080486
    34  C   -0.169529
    35  C    0.008543
    36  C    0.083035
    37  C    0.127256
    38  C    0.046330
    39  O   -0.187872
    40  C   -0.005433
    41  C    0.213018
    42  O   -0.257072
    43  O   -0.304831
    44  C    0.157511
    45  H   -0.017707
    46  H   -0.016736
    47  H   -0.041331
    48  H    0.001132
    49  H   -0.004343
    50  H    0.025613
    51  H    0.016527
    52  H    0.016627
    53  H    0.010620
    54  H    0.044134
    55  H    0.018196
    56  H    0.017552
    57  H    0.005715
    58  H    0.026911
    59  H    0.038877
    60  H    0.037360
    61  H    0.035753
    62  H    0.030920
    63  H    0.016628
    64  H    0.009591
    65  H    0.023323
    66  H    0.012556
    67  H    0.004838
    68  H    0.006478
    69  H    0.004787
    70  H    0.008906
    71  H    0.017927
    72  H    0.028936
    73  H    0.047940
    74  H    0.009144
    75  H    0.046158
    76  H    0.035251
    77  H    0.043340
    78  H    0.046053
    79  H    0.054056
    80  Mg   0.838052
    81  C   -0.016678
    82  C   -0.087873
    83  C   -0.045500
    84  C   -0.064641
    85  N   -0.254535
    86  C   -0.049453
    87  C   -0.015134
    88  C   -0.090615
    89  C    0.045880
    90  C    0.114367
    91  C    0.062600
    92  C   -0.077655
    93  H    0.034567
    94  N   -0.423446
    95  C    0.162861
    96  C   -0.174912
    97  C   -0.007937
    98  C    0.152017
    99  C    0.099531
   100  C    0.015438
   101  O   -0.253311
   102  C    0.061274
   103  N   -0.350001
   104  C    0.037524
   105  C   -0.019802
   106  C   -0.034885
   107  C    0.089087
   108  C    0.073674
   109  C    0.034746
   110  C   -0.007622
   111  N   -0.324261
   112  C    0.078686
   113  C   -0.162719
   114  C    0.002725
   115  C    0.096247
   116  C    0.131314
   117  C    0.042931
   118  O   -0.187385
   119  C    0.000682
   120  C    0.211136
   121  O   -0.251295
   122  O   -0.305389
   123  C    0.152130
   124  H   -0.020276
   125  H   -0.015721
   126  H   -0.040361
   127  H   -0.000329
   128  H   -0.004955
   129  H    0.023860
   130  H    0.014600
   131  H    0.015301
   132  H    0.013723
   133  H    0.037671
   134  H    0.020737
   135  H    0.019206
   136  H    0.008304
   137  H    0.025661
   138  H    0.039426
   139  H    0.038010
   140  H    0.036168
   141  H    0.033708
   142  H    0.014162
   143  H    0.012578
   144  H    0.024865
   145  H    0.011983
   146  H    0.005609
   147  H    0.006052
   148  H    0.003664
   149  H    0.010805
   150  H    0.017764
   151  H    0.030164
   152  H    0.045884
   153  H    0.008248
   154  H    0.048330
   155  H    0.036217
   156  H    0.043941
   157  H    0.049175
   158  H    0.053403
 Sum of Mulliken charges =  -0.00000

 Dipole moment (field-independent basis, Debye):
    X=             -4.0718    Y=             -2.2556    Z=             -7.5525  Tot=              8.8717
 Quadrupole moment (field-independent basis, Debye-Ang):
   XX=           -517.8734   YY=           -551.2322   ZZ=           -447.9003
   XY=             -8.0171   XZ=              0.9218   YZ=            -48.1017

 Normal termination of Gaussian 16 at Sat Sep  4 10:50:50 2021.
