 Gaussian 16, Revision A.03,
 Gaussian 16:  ES64L-G16RevA.03 25-Dec-2016

 -----------------------------------
 #p cam-b3lyp/Def2SVP td=(nstates=5)
 -----------------------------------

 --------------------------------
 TDDFT excited states in gaussian
 --------------------------------
 Symbolic Z-matrix:
 Charge =  0 Multiplicity = 1

                         Standard orientation:
 ---------------------------------------------------------------------
 Center     Atomic      Atomic             Coordinates (Angstroms)
 Number     Number       Type             X           Y           Z
 ---------------------------------------------------------------------
      1         12           0        8.101058   -0.577083    0.556110
      2          6           0        8.391467    2.412677   -1.390480
      3          6           0        8.786703    1.323938    3.305487
      4          6           0        8.298983   -3.263397    2.229778
      5          6           0        8.565426   -2.368770   -2.396834
      6          7           0        8.516218    1.583800    0.798745
      7          6           0        8.538924    2.631632   -0.018999
      8          6           0        8.658759    3.994522    0.726349
      9          6           0        9.335140    3.484197    2.076932
     10          6           0        8.821138    2.055313    2.081176
     11          6           0       10.859241    3.457776    2.022909
     12          6           0        7.262276    4.649083    0.996746
     13          6           0        7.301379    6.119653    1.422479
     14          1           0        6.241824    7.008226    0.969567
     15          7           0        8.003606   -0.882143    2.505544
     16          6           0        8.303434    0.009170    3.480711
     17          6           0        8.072005   -0.694022    4.760806
     18          6           0        7.795957   -2.124336    4.450817
     19          6           0        8.050936   -2.152974    3.033233
     20          6           0        8.076694   -0.004832    6.090748
     21          6           0        7.380132   -3.283999    5.299582
     22          8           0        7.420475   -4.488425    4.872611
     23          6           0        7.003409   -2.977678    6.691448
     24          7           0        8.608570   -2.535819    0.042867
     25          6           0        8.558116   -3.520983    0.946132
     26          6           0        8.685014   -4.866121    0.294640
     27          6           0        8.589100   -4.606450   -1.277977
     28          6           0        8.500601   -3.060490   -1.256926
     29          6           0        9.972311   -5.641876    0.606214
     30          6           0        7.507444   -5.396620   -2.056482
     31          6           0        6.130831   -4.932472   -1.636242
     32          7           0        8.246598   -0.103554   -1.557095
     33          6           0        8.462657   -1.004272   -2.610043
     34          6           0        8.594452   -0.205004   -3.842061
     35          6           0        8.461574    1.114775   -3.415013
     36          6           0        8.285801    1.139934   -2.001944
     37          6           0        8.866276   -0.715989   -5.141846
     38          6           0        8.451821    2.510975   -3.820461
     39          8           0        8.462848    3.099866   -4.902394
     40          6           0        8.527962    3.413606   -2.510772
     41          6           0        7.474599    4.480816   -2.632421
     42          8           0        6.261708    4.187837   -2.611805
     43          8           0        8.048970    5.687806   -2.514890
     44          6           0        7.054525    6.790748   -2.597057
     45          1           0        9.222046    1.772403    4.200639
     46          1           0        8.265057   -4.221179    2.753171
     47          1           0        8.627286   -2.863744   -3.367724
     48          1           0        9.305587    4.723975    0.238562
     49          1           0        8.962656    4.023482    2.947650
     50          1           0       11.226082    3.671819    1.019149
     51          1           0       11.143771    2.449766    2.325318
     52          1           0       11.285020    4.126566    2.771380
     53          1           0        6.826076    4.208011    1.892986
     54          1           0        6.611511    4.542395    0.128156
     55          1           0        8.279139    6.563545    1.233127
     56          1           0        7.188608    6.164727    2.505739
     57          1           0        8.471742    1.007525    6.015816
     58          1           0        8.794901   -0.530832    6.719408
     59          1           0        7.094623   -0.018854    6.563686
     60          1           0        7.845068   -2.502538    7.195830
     61          1           0        6.649671   -3.914561    7.120366
     62          1           0        6.196081   -2.244782    6.685596
     63          1           0        7.872986   -5.525697    0.597949
     64          1           0        9.519133   -4.853047   -1.790717
     65          1           0        9.795992   -6.628032    1.036462
     66          1           0       10.582761   -5.029418    1.269190
     67          1           0       10.642063   -5.775897   -0.242837
     68          1           0        7.572736   -6.458903   -1.823591
     69          1           0        7.590407   -5.288490   -3.137998
     70          1           0        5.944158   -5.511311   -0.732400
     71          1           0        5.397877   -5.167528   -2.408730
     72          1           0        6.134727   -3.879511   -1.353849
     73          1           0        8.202759   -0.184097   -5.823612
     74          1           0        8.700572   -1.792147   -5.186884
     75          1           0        9.918117   -0.450690   -5.247214
     76          1           0        9.533176    3.832551   -2.476810
     77          1           0        7.377560    7.455136   -3.398600
     78          1           0        6.973306    7.210104   -1.594087
     79          1           0        6.058311    6.516568   -2.945946
     80         12           0       -7.737221   -0.746412   -0.418312
     81          6           0      -10.197688    1.635363    0.655155
     82          6           0       -5.897254    1.891044   -1.555378
     83          6           0       -5.768079   -2.832558   -1.773986
     84          6           0      -10.223050   -3.183017   -0.247140
     85          7           0       -8.105691    1.434397   -0.394709
     86          6           0       -9.046659    2.227593    0.094944
     87          6           0       -8.700364    3.740089    0.050139
     88          6           0       -7.636553    3.707682   -1.152411
     89          6           0       -7.151191    2.266505   -1.010620
     90          6           0       -8.273064    3.864613   -2.523393
     91          6           0       -8.044423    4.242865    1.383915
     92          6           0       -7.963802    5.764274    1.527306
     93          1           0       -8.135041    6.348325    2.854722
     94          7           0       -5.873034   -0.522361   -1.061067
     95          6           0       -5.282349    0.623239   -1.461042
     96          6           0       -3.914856    0.253548   -1.857861
     97          6           0       -3.798841   -1.229499   -1.815369
     98          6           0       -5.178352   -1.594705   -1.563071
     99          6           0       -2.849917    1.269970   -2.151475
    100          6           0       -2.640542   -2.164845   -1.987646
    101          8           0       -2.810753   -3.425167   -2.147158
    102          6           0       -1.306649   -1.550583   -2.057622
    103          7           0       -8.007758   -2.677340   -1.139884
    104          6           0       -6.974131   -3.382632   -1.631928
    105          6           0       -7.348828   -4.831666   -1.832628
    106          6           0       -8.781344   -5.004487   -1.142979
    107          6           0       -9.038068   -3.540680   -0.722574
    108          6           0       -7.422726   -5.304766   -3.284215
    109          6           0       -8.914848   -6.116781   -0.067034
    110          6           0       -8.090370   -5.760264    1.148912
    111          7           0       -9.780594   -0.837516    0.277675
    112          6           0      -10.648155   -1.950795    0.232762
    113          6           0      -11.967919   -1.493997    0.714429
    114          6           0      -11.781184   -0.130332    0.986542
    115          6           0      -10.445211    0.241434    0.675938
    116          6           0      -13.142642   -2.292747    0.804667
    117          6           0      -12.413367    1.081601    1.455864
    118          8           0      -13.509983    1.357806    1.940502
    119          6           0      -11.451207    2.307388    1.142685
    120          6           0      -11.356093    3.152071    2.383648
    121          8           0      -10.823156    2.703815    3.414020
    122          8           0      -11.710871    4.415177    2.085189
    123          6           0      -11.622014    5.293792    3.281829
    124          1           0       -5.348755    2.623681   -2.148079
    125          1           0       -5.100276   -3.617284   -2.136924
    126          1           0      -11.023657   -3.904746   -0.071575
    127          1           0       -9.529923    4.388681   -0.204667
    128          1           0       -6.820558    4.403858   -0.976781
    129          1           0       -9.351587    3.853565   -2.470495
    130          1           0       -7.914538    3.029925   -3.111446
    131          1           0       -7.892844    4.764815   -3.014709
    132          1           0       -6.974466    3.998396    1.371098
    133          1           0       -8.545368    3.825664    2.235753
    134          1           0       -8.596213    6.281360    0.795439
    135          1           0       -6.948973    6.083100    1.277303
    136          1           0       -3.273571    2.275693   -2.263065
    137          1           0       -2.446744    1.033624   -3.142164
    138          1           0       -2.035474    1.248817   -1.424221
    139          1           0       -1.275825   -0.847621   -2.886696
    140          1           0       -0.602467   -2.384156   -2.091490
    141          1           0       -1.141536   -0.967771   -1.144551
    142          1           0       -6.640332   -5.486140   -1.339882
    143          1           0       -9.558794   -5.261481   -1.877391
    144          1           0       -6.761782   -6.166197   -3.496710
    145          1           0       -7.178592   -4.470250   -3.928054
    146          1           0       -8.417583   -5.580108   -3.630126
    147          1           0       -8.515955   -7.060695   -0.446614
    148          1           0       -9.939155   -6.300208    0.239800
    149          1           0       -7.086238   -6.096243    0.873381
    150          1           0       -8.455834   -6.287799    2.027656
    151          1           0       -8.047267   -4.674103    1.290514
    152          1           0      -13.605442   -2.059637    1.754380
    153          1           0      -12.909935   -3.352558    0.724413
    154          1           0      -13.694679   -1.926698   -0.065125
    155          1           0      -11.882881    2.857096    0.305390
    156          1           0      -12.603346    5.761393    3.408428
    157          1           0      -10.763784    5.966449    3.095504
    158          1           0      -11.489407    4.816191    4.245553
 ---------------------------------------------------------------------

 SCF Done:  E(RCAM-B3LYP) =  -4069.81204281     A.U. after   19 cycles

 Excitation energies and oscillator strengths:

 Excited State   1:      Singlet-A      1.6726 eV  741.29 nm  f=0.2633  <S**2>=0.000
     310 -> 316        0.14338
     311 -> 313        0.38460
     312 -> 314        0.56827
 This state for optimization and/or second-order correction.
 Total Energy, E(TD-HF/TD-DFT) =  -4069.75057757
 Copying the excited state density for this state as the 1-particle RhoCI density.

 Excited State   2:      Singlet-A      1.6829 eV  736.74 nm  f=0.5172  <S**2>=0.000
     309 -> 315        0.14617
     311 -> 313        0.56771
     312 -> 314       -0.38436

 Excited State   3:      Singlet-A      2.1870 eV  566.90 nm  f=0.0528  <S**2>=0.000
     309 -> 313       -0.15781
     310 -> 314        0.62280
     312 -> 316       -0.26530

 Excited State   4:      Singlet-A      2.1937 eV  565.19 nm  f=0.1398  <S**2>=0.000
     309 -> 313        0.62104
     310 -> 314        0.15682
     311 -> 315       -0.27041

 Excited State   5:      Singlet-A      2.7473 eV  451.29 nm  f=0.0000  <S**2>=0.000
     312 -> 313        0.70702

 The electronic state is 1-A.
 Alpha  occ. eigenvalues --  -46.87878 -46.87569 -19.26436 -19.26299 -19.19177
 Alpha  occ. eigenvalues --  -19.19105 -19.18865 -19.18579 -19.18269 -19.17970
 Alpha  occ. eigenvalues --  -14.42533 -14.42407 -14.41522 -14.41270 -14.39481
 Alpha  occ. eigenvalues --  -14.39256 -14.38672 -14.38510 -10.39229 -10.39033
 Alpha  occ. eigenvalues --  -10.35497 -10.35250 -10.34491 -10.34150 -10.31844
 Alpha  occ. eigenvalues --  -10.31717 -10.31494 -10.31224 -10.30995 -10.30926
 Alpha  occ. eigenvalues --  -10.30654 -10.30584 -10.30307 -10.30270 -10.30267
 Alpha  occ. eigenvalues --  -10.30043 -10.29991 -10.29813 -10.29707 -10.29333
 Alpha  occ. eigenvalues --  -10.29326 -10.29297 -10.28854 -10.28676 -10.28640
 Alpha  occ. eigenvalues --  -10.28601 -10.28449 -10.28308 -10.28211 -10.28055
 Alpha  occ. eigenvalues --  -10.27903 -10.27873 -10.27807 -10.27658 -10.27572
 Alpha  occ. eigenvalues --  -10.27543 -10.27538 -10.27490 -10.27488 -10.27440
 Alpha  occ. eigenvalues --  -10.27394 -10.27356 -10.27299 -10.27276 -10.27268
 Alpha  occ. eigenvalues --  -10.26976 -10.26837 -10.26626 -10.26444 -10.26317
 Alpha  occ. eigenvalues --  -10.26215 -10.26197 -10.26088 -10.26070 -10.25938
 Alpha  occ. eigenvalues --  -10.25921 -10.25844 -10.25778 -10.25467 -10.25323
 Alpha  occ. eigenvalues --  -10.24917 -10.24859 -10.24779 -10.24689 -10.24666
 Alpha  occ. eigenvalues --  -10.24599  -3.16622  -3.16319  -1.91504  -1.91202
 Alpha  occ. eigenvalues --   -1.91090  -1.90932  -1.90790  -1.90627  -1.16784
 Alpha  occ. eigenvalues --   -1.16591  -1.08732  -1.08582  -1.07264  -1.06889
 Alpha  occ. eigenvalues --   -1.06831  -1.06796  -1.04666  -1.04404  -1.03835
 Alpha  occ. eigenvalues --   -1.03571  -1.03312  -1.02947  -1.02489  -1.02019
 Alpha  occ. eigenvalues --   -0.92063  -0.91900  -0.89576  -0.89410  -0.89286
 Alpha  occ. eigenvalues --   -0.89070  -0.88339  -0.88139  -0.87951  -0.87755
 Alpha  occ. eigenvalues --   -0.87707  -0.87594  -0.87339  -0.86982  -0.85076
 Alpha  occ. eigenvalues --   -0.84914  -0.83987  -0.83798  -0.83017  -0.82797
 Alpha  occ. eigenvalues --   -0.82735  -0.82549  -0.81694  -0.81524  -0.80686
 Alpha  occ. eigenvalues --   -0.80355  -0.78869  -0.78517  -0.77293  -0.77052
 Alpha  occ. eigenvalues --   -0.77028  -0.76824  -0.76019  -0.75752  -0.74958
 Alpha  occ. eigenvalues --   -0.74720  -0.72850  -0.72607  -0.71750  -0.71495
 Alpha  occ. eigenvalues --   -0.69945  -0.69681  -0.68961  -0.68737  -0.67721
 Alpha  occ. eigenvalues --   -0.67509  -0.67315  -0.67102  -0.65384  -0.65190
 Alpha  occ. eigenvalues --   -0.64942  -0.64706  -0.64685  -0.64572  -0.64329
 Alpha  occ. eigenvalues --   -0.64122  -0.62410  -0.62209  -0.60505  -0.60220
 Alpha  occ. eigenvalues --   -0.59896  -0.59709  -0.59067  -0.58906  -0.58586
 Alpha  occ. eigenvalues --   -0.58338  -0.57694  -0.57480  -0.57380  -0.57141
 Alpha  occ. eigenvalues --   -0.56391  -0.56106  -0.56100  -0.55812  -0.55594
 Alpha  occ. eigenvalues --   -0.55413  -0.55343  -0.55172  -0.54611  -0.54417
 Alpha  occ. eigenvalues --   -0.53994  -0.53830  -0.53371  -0.53308  -0.53132
 Alpha  occ. eigenvalues --   -0.53042  -0.53012  -0.52827  -0.52819  -0.52527
 Alpha  occ. eigenvalues --   -0.52474  -0.52325  -0.51997  -0.51806  -0.51711
 Alpha  occ. eigenvalues --   -0.51559  -0.51280  -0.51119  -0.50625  -0.50321
 Alpha  occ. eigenvalues --   -0.50081  -0.49985  -0.49872  -0.49771  -0.49597
 Alpha  occ. eigenvalues --   -0.49376  -0.49301  -0.49188  -0.49101  -0.49022
 Alpha  occ. eigenvalues --   -0.48690  -0.48528  -0.48512  -0.48475  -0.48297
 Alpha  occ. eigenvalues --   -0.48213  -0.47772  -0.47494  -0.47370  -0.47007
 Alpha  occ. eigenvalues --   -0.46871  -0.46653  -0.46624  -0.46465  -0.46436
 Alpha  occ. eigenvalues --   -0.46242  -0.46174  -0.46004  -0.45921  -0.45750
 Alpha  occ. eigenvalues --   -0.45256  -0.45125  -0.44671  -0.44576  -0.44432
 Alpha  occ. eigenvalues --   -0.44385  -0.44215  -0.44171  -0.44102  -0.44039
 Alpha  occ. eigenvalues --   -0.43985  -0.43819  -0.43598  -0.43484  -0.43465
 Alpha  occ. eigenvalues --   -0.43301  -0.43107  -0.42860  -0.42824  -0.42819
 Alpha  occ. eigenvalues --   -0.42709  -0.42463  -0.42077  -0.41887  -0.41787
 Alpha  occ. eigenvalues --   -0.41625  -0.41585  -0.41377  -0.41220  -0.40951
 Alpha  occ. eigenvalues --   -0.40903  -0.40886  -0.40631  -0.40628  -0.40586
 Alpha  occ. eigenvalues --   -0.40415  -0.40343  -0.40140  -0.39473  -0.39350
 Alpha  occ. eigenvalues --   -0.38528  -0.38271  -0.37856  -0.37579  -0.37382
 Alpha  occ. eigenvalues --   -0.37361  -0.37183  -0.37112  -0.36835  -0.36710
 Alpha  occ. eigenvalues --   -0.36284  -0.36140  -0.34368  -0.34165  -0.33914
 Alpha  occ. eigenvalues --   -0.33799  -0.33269  -0.33085  -0.31396  -0.31142
 Alpha  occ. eigenvalues --   -0.31115  -0.30880  -0.30131  -0.29877  -0.29524
 Alpha  occ. eigenvalues --   -0.29405  -0.29220  -0.29117  -0.24162  -0.23947
 Alpha  occ. eigenvalues --   -0.21205  -0.21023
 Alpha virt. eigenvalues --   -0.08851  -0.08693  -0.01823  -0.01590  -0.00130
 Alpha virt. eigenvalues --    0.00086   0.02115   0.02295   0.03009   0.03304
 Alpha virt. eigenvalues --    0.04627   0.04812   0.04956   0.05226   0.06060

 Mulliken charges:
               1
     1  Mg   0.838034
     2  C   -0.003440
     3  C   -0.094254
     4  C   -0.045619
     5  C   -0.063744
     6  N   -0.256812
     7  C   -0.052674
     8  C   -0.013961
     9  C   -0.086977
    10  C    0.046204
    11  C    0.104759
    12  C    0.053513
    13  C   -0.071627
    14  H    0.035260
    15  N   -0.433220
    16  C    0.168410
    17  C   -0.177108
    18  C   -0.003809
    19  C    0.148691
    20  C    0.110138
    21  C    0.012463
    22  O   -0.249136
    23  C    0.062413
    24  N   -0.341130
    25  C    0.041293
    26  C   -0.028267
    27  C   -0.024034
    28  C    0.074810
    29  C    0.076092
    30  C    0.035036
    31  C   -0.004621
    32  N   -0.310348
    33  C    0.080097
    34  C   -0.169863
    35  C    0.008195
    36  C    0.082603
    37  C    0.127381
    38  C    0.045737
    39  O   -0.188797
    40  C   -0.005180
    41  C    0.212988
    42  O   -0.258187
    43  O   -0.304477
    44  C    0.157907
    45  H   -0.017446
    46  H   -0.016406
    47  H   -0.041243
    48  H    0.000953
    49  H   -0.004049
    50  H    0.025519
    51  H    0.016658
    52  H    0.016812
    53  H    0.011056
    54  H    0.043341
    55  H    0.018206
    56  H    0.018171
    57  H    0.005856
    58  H    0.027123
    59  H    0.039716
    60  H    0.037390
    61  H    0.036140
    62  H    0.031518
    63  H    0.017017
    64  H    0.009553
    65  H    0.023564
    66  H    0.012476
    67  H    0.004879
    68  H    0.006834
    69  H    0.004769
    70  H    0.009333
    71  H    0.019013
    72  H    0.028090
    73  H    0.047203
    74  H    0.009383
    75  H    0.046133
    76  H    0.035324
    77  H    0.043094
    78  H    0.046482
    79  H    0.052798
    80  Mg   0.837470
    81  C   -0.016878
    82  C   -0.087680
    83  C   -0.045467
    84  C   -0.064938
    85  N   -0.254542
    86  C   -0.050082
    87  C   -0.015054
    88  C   -0.090500
    89  C    0.045671
    90  C    0.114333
    91  C    0.062533
    92  C   -0.077733
    93  H    0.034324
    94  N   -0.423564
    95  C    0.162863
    96  C   -0.174326
    97  C   -0.007592
    98  C    0.152118
    99  C    0.099182
   100  C    0.015526
   101  O   -0.253507
   102  C    0.061380
   103  N   -0.349998
   104  C    0.037577
   105  C   -0.019833
   106  C   -0.034720
   107  C    0.088738
   108  C    0.073679
   109  C    0.034797
   110  C   -0.007648
   111  N   -0.323996
   112  C    0.078159
   113  C   -0.163404
   114  C    0.002098
   115  C    0.095981
   116  C    0.131542
   117  C    0.042174
   118  O   -0.188360
   119  C    0.000973
   120  C    0.211214
   121  O   -0.251189
   122  O   -0.305605
   123  C    0.152130
   124  H   -0.019092
   125  H   -0.015545
   126  H   -0.040736
   127  H   -0.000823
   128  H   -0.004201
   129  H    0.022302
   130  H    0.014621
   131  H    0.016426
   132  H    0.013942
   133  H    0.037489
   134  H    0.020783
   135  H    0.019655
   136  H    0.008998
   137  H    0.027514
   138  H    0.040956
   139  H    0.039714
   140  H    0.036459
   141  H    0.034100
   142  H    0.014352
   143  H    0.012247
   144  H    0.025044
   145  H    0.011797
   146  H    0.005538
   147  H    0.006099
   148  H    0.003475
   149  H    0.010951
   150  H    0.017702
   151  H    0.030166
   152  H    0.045709
   153  H    0.008325
   154  H    0.046733
   155  H    0.034896
   156  H    0.043734
   157  H    0.049439
   158  H    0.053385
 Sum of Mulliken charges =  -0.00000

 Dipole moment (field-independent basis, Debye):
    X=              4.7816    Y=              2.9250    Z=              1.4581  Tot=              5.7918
 Quadrupole moment (field-independent basis, Debye-Ang):
   XX=           -545.9118   YY=           -468.0394   ZZ=           -518.7370
   XY=             13.3969   XZ=             65.1837   YZ=             30.1169

 Normal termination of Gaussian 16 at Sat Sep 11 19:18:12 2021.
