 Gaussian 16, Revision A.03,
 Gaussian 16:  ES64L-G16RevA.03 25-Dec-2016

 -----------------------------------
 #p cam-b3lyp/Def2SVP td=(nstates=5)
 -----------------------------------

 --------------------------------
 TDDFT excited states in gaussian
 --------------------------------
 Symbolic Z-matrix:
 Charge =  0 Multiplicity = 1

                         Standard orientation:
 ---------------------------------------------------------------------
 Center     Atomic      Atomic             Coordinates (Angstroms)
 Number     Number       Type             X           Y           Z
 ---------------------------------------------------------------------
      1         12           0       -6.644743   -0.472302    0.040558
      2          6           0       -6.683942    3.105281    0.148171
      3          6           0       -7.479881   -0.233824   -3.259251
      4          6           0       -7.060858   -3.616085    0.030642
      5          6           0       -6.936017   -0.432836    3.513203
      6          7           0       -7.006278    1.270833   -1.275277
      7          6           0       -6.930655    2.589624   -1.126143
      8          6           0       -7.063381    3.371642   -2.467115
      9          6           0       -7.859471    2.282027   -3.316220
     10          6           0       -7.394636    1.027379   -2.598092
     11          6           0       -9.374756    2.392397   -3.181196
     12          6           0       -5.671478    3.692711   -3.108403
     13          6           0       -5.695290    4.726892   -4.237675
     14          1           0       -4.574987    5.646120   -4.369161
     15          7           0       -6.709742   -1.751315   -1.463686
     16          6           0       -7.055252   -1.477960   -2.744774
     17          6           0       -6.947634   -2.757677   -3.477866
     18          6           0       -6.695433   -3.833978   -2.479835
     19          6           0       -6.839858   -3.104593   -1.245932
     20          6           0       -7.033387   -2.861041   -4.969748
     21          6           0       -6.385446   -5.291173   -2.616302
     22          8           0       -6.431948   -6.092552   -1.621212
     23          6           0       -6.108578   -5.779049   -3.979520
     24          7           0       -7.174812   -1.839252    1.526528
     25          6           0       -7.227398   -3.150991    1.270480
     26          6           0       -7.347255   -3.949664    2.534480
     27          6           0       -7.120472   -2.918316    3.732246
     28          6           0       -6.983092   -1.618515    2.901634
     29          6           0       -8.679748   -4.683728    2.738498
     30          6           0       -6.007955   -3.261427    4.754499
     31          6           0       -4.653802   -3.179005    4.086237
     32          7           0       -6.609344    1.038574    1.598456
     33          6           0       -6.772112    0.833083    2.976118
     34          6           0       -6.781044    2.162815    3.613144
     35          6           0       -6.638554    3.056046    2.553106
     36          6           0       -6.572812    2.331489    1.328775
     37          6           0       -6.967304    2.421324    4.999836
     38          6           0       -6.551292    4.455207    2.167631
     39          8           0       -6.458516    5.519489    2.780973
     40          6           0       -6.699641    4.549080    0.584910
     41          6           0       -5.605474    5.448847    0.078426
     42          8           0       -4.408180    5.105172    0.154196
     43          8           0       -6.147258    6.455398   -0.624331
     44          6           0       -5.113702    7.369147   -1.180189
     45          1           0       -7.968740   -0.286802   -4.234008
     46          1           0       -7.099379   -4.706070    0.084358
     47          1           0       -6.938196   -0.345945    4.601273
     48          1           0       -7.645848    4.290799   -2.401491
     49          1           0       -7.538511    2.263544   -4.357549
     50          1           0       -9.654941    3.121260   -2.420818
     51          1           0       -9.715003    1.396300   -2.897442
     52          1           0       -9.835399    2.602611   -4.146802
     53          1           0       -5.321262    2.821540   -3.662001
     54          1           0       -4.958802    4.008196   -2.345587
     55          1           0       -6.640172    5.270577   -4.260368
     56          1           0       -5.665943    4.194923   -5.188647
     57          1           0       -7.387879   -1.932649   -5.415807
     58          1           0       -7.815353   -3.586188   -5.194247
     59          1           0       -6.092194   -3.186151   -5.413360
     60          1           0       -6.970935   -5.578409   -4.615627
     61          1           0       -5.820378   -6.824160   -3.872121
     62          1           0       -5.279589   -5.207265   -4.397599
     63          1           0       -6.583493   -4.724851    2.581152
     64          1           0       -8.015279   -2.798103    4.343428
     65          1           0       -8.570055   -5.759298    2.879286
     66          1           0       -9.319582   -4.464392    1.884217
     67          1           0       -9.285272   -4.310857    3.564164
     68          1           0       -6.126115   -4.282724    5.114965
     69          1           0       -6.002699   -2.601917    5.622410
     70          1           0       -4.557340   -4.154311    3.610521
     71          1           0       -3.870950   -3.028426    4.830333
     72          1           0       -4.645085   -2.428511    3.295561
     73          1           0       -6.235495    3.182833    5.269146
     74          1           0       -6.834072    1.516669    5.592668
     75          1           0       -7.998426    2.774363    5.002711
     76          1           0       -7.690118    4.957422    0.386580
     77          1           0       -5.351203    8.373569   -0.829526
     78          1           0       -5.097222    7.199853   -2.256977
     79          1           0       -4.102866    7.248294   -0.789108
     80         12           0        6.578985   -1.079248    0.155115
     81          6           0        7.187612    2.455008    0.288041
     82          6           0        6.368507   -0.764395   -3.234750
     83          6           0        5.597925   -4.094315    0.035536
     84          6           0        5.711631   -0.916174    3.526586
     85          7           0        6.771946    0.671219   -1.183131
     86          6           0        7.064807    1.953164   -1.024402
     87          6           0        7.314904    2.724475   -2.348072
     88          6           0        6.478058    1.778184   -3.339585
     89          6           0        6.569896    0.467054   -2.561647
     90          6           0        5.013081    2.167050   -3.448980
     91          6           0        8.834101    2.764821   -2.738463
     92          6           0        9.186925    3.758497   -3.847466
     93          1           0       10.470865    4.450804   -3.779097
     94          7           0        6.537588   -2.357071   -1.362781
     95          6           0        6.474884   -2.057506   -2.677169
     96          6           0        6.447470   -3.347907   -3.383042
     97          6           0        6.332813   -4.433515   -2.371601
     98          6           0        6.126196   -3.652280   -1.168656
     99          6           0        6.606578   -3.464929   -4.871140
    100          6           0        6.385897   -5.927914   -2.472455
    101          8           0        6.025030   -6.681617   -1.500585
    102          6           0        6.783927   -6.483408   -3.774177
    103          7           0        5.570589   -2.288739    1.512535
    104          6           0        5.313471   -3.578230    1.231392
    105          6           0        4.830307   -4.317717    2.456173
    106          6           0        5.047720   -3.310890    3.679535
    107          6           0        5.558309   -2.076758    2.903911
    108          6           0        3.371690   -4.773661    2.425682
    109          6           0        5.888324   -3.830568    4.877862
    110          6           0        7.325951   -4.026564    4.453361
    111          7           0        6.635879    0.425216    1.704767
    112          6           0        6.200466    0.290014    3.041259
    113          6           0        6.333268    1.616088    3.678683
    114          6           0        6.818881    2.442634    2.654230
    115          6           0        6.958402    1.689761    1.457058
    116          6           0        5.977099    1.933921    5.019669
    117          6           0        7.235121    3.783273    2.310535
    118          8           0        7.412404    4.825869    2.939258
    119          6           0        7.372532    3.880182    0.729994
    120          6           0        8.684736    4.545890    0.417787
    121          8           0        9.759545    3.989864    0.704520
    122          8           0        8.459450    5.621444   -0.358624
    123          6           0        9.732112    6.308994   -0.704222
    124          1           0        6.058241   -0.739804   -4.279742
    125          1           0        5.347238   -5.156747    0.078762
    126          1           0        5.554553   -0.805265    4.601619
    127          1           0        6.915398    3.731301   -2.369579
    128          1           0        6.969514    1.684270   -4.304474
    129          1           0        4.749502    2.945562   -2.748560
    130          1           0        4.452913    1.264960   -3.240425
    131          1           0        4.771556    2.440160   -4.480205
    132          1           0        9.100735    1.824143   -3.237238
    133          1           0        9.444090    2.953679   -1.876563
    134          1           0        8.375234    4.471793   -4.035359
    135          1           0        9.284201    3.209516   -4.787246
    136          1           0        6.505905   -2.490234   -5.364328
    137          1           0        5.753459   -4.045031   -5.239290
    138          1           0        7.529669   -3.973490   -5.157350
    139          1           0        6.095723   -6.135604   -4.540894
    140          1           0        6.849750   -7.562693   -3.623529
    141          1           0        7.772043   -6.088604   -4.035648
    142          1           0        5.419721   -5.210269    2.626613
    143          1           0        4.093167   -3.018902    4.141513
    144          1           0        3.251988   -5.863759    2.572075
    145          1           0        2.937716   -4.466612    1.483386
    146          1           0        2.720410   -4.286750    3.149534
    147          1           0        5.523744   -4.809005    5.200187
    148          1           0        5.859446   -3.175415    5.742117
    149          1           0        7.312650   -5.015870    3.986251
    150          1           0        7.986671   -4.007051    5.317727
    151          1           0        7.610878   -3.301650    3.682022
    152          1           0        6.773675    2.549587    5.415796
    153          1           0        5.833612    1.035593    5.616487
    154          1           0        5.038635    2.468710    4.850690
    155          1           0        6.523101    4.456952    0.362054
    156          1           0        9.627467    7.351931   -0.389552
    157          1           0        9.889430    6.121713   -1.783079
    158          1           0       10.624037    6.013615   -0.164159
 ---------------------------------------------------------------------

 SCF Done:  E(RCAM-B3LYP) =  -4069.81161656     A.U. after   19 cycles

 Excitation energies and oscillator strengths:

 Excited State   1:      Singlet-A      1.6655 eV  744.43 nm  f=0.0071  <S**2>=0.000
     309 -> 315        0.10966
     310 -> 316       -0.13171
     311 -> 313        0.43783
     312 -> 314        0.52891
 This state for optimization and/or second-order correction.
 Total Energy, E(TD-HF/TD-DFT) =  -4069.75041123
 Copying the excited state density for this state as the 1-particle RhoCI density.

 Excited State   2:      Singlet-A      1.6893 eV  733.93 nm  f=0.7367  <S**2>=0.000
     309 -> 315        0.13717
     310 -> 316        0.11289
     311 -> 313        0.52772
     312 -> 314       -0.43692

 Excited State   3:      Singlet-A      2.1846 eV  567.53 nm  f=0.0433  <S**2>=0.000
     309 -> 313       -0.19662
     310 -> 314        0.61230
     312 -> 316        0.25907

 Excited State   4:      Singlet-A      2.1934 eV  565.25 nm  f=0.1460  <S**2>=0.000
     309 -> 313        0.60987
     310 -> 314        0.19483
     311 -> 315       -0.26578

 Excited State   5:      Singlet-A      2.6560 eV  466.81 nm  f=0.0000  <S**2>=0.000
     312 -> 313        0.70709

 The electronic state is 1-A.
 Alpha  occ. eigenvalues --  -46.87833 -46.87551 -19.26308 -19.26248 -19.19059
 Alpha  occ. eigenvalues --  -19.19044 -19.18843 -19.18628 -19.18192 -19.17929
 Alpha  occ. eigenvalues --  -14.42488 -14.42390 -14.41486 -14.41250 -14.39439
 Alpha  occ. eigenvalues --  -14.39246 -14.38621 -14.38487 -10.39104 -10.38986
 Alpha  occ. eigenvalues --  -10.35477 -10.35308 -10.34413 -10.34106 -10.31700
 Alpha  occ. eigenvalues --  -10.31666 -10.31442 -10.31198 -10.30948 -10.30923
 Alpha  occ. eigenvalues --  -10.30605 -10.30540 -10.30286 -10.30249 -10.30244
 Alpha  occ. eigenvalues --  -10.30039 -10.29954 -10.29780 -10.29664 -10.29333
 Alpha  occ. eigenvalues --  -10.29294 -10.29290 -10.28795 -10.28622 -10.28606
 Alpha  occ. eigenvalues --  -10.28587 -10.28399 -10.28297 -10.28161 -10.28041
 Alpha  occ. eigenvalues --  -10.27890 -10.27825 -10.27765 -10.27619 -10.27566
 Alpha  occ. eigenvalues --  -10.27539 -10.27528 -10.27483 -10.27439 -10.27415
 Alpha  occ. eigenvalues --  -10.27400 -10.27375 -10.27364 -10.27269 -10.27185
 Alpha  occ. eigenvalues --  -10.26929 -10.26764 -10.26611 -10.26440 -10.26354
 Alpha  occ. eigenvalues --  -10.26273 -10.26231 -10.26056 -10.26049 -10.25913
 Alpha  occ. eigenvalues --  -10.25865 -10.25826 -10.25707 -10.25463 -10.25281
 Alpha  occ. eigenvalues --  -10.24864 -10.24822 -10.24758 -10.24746 -10.24648
 Alpha  occ. eigenvalues --  -10.24581  -3.16576  -3.16301  -1.91458  -1.91183
 Alpha  occ. eigenvalues --   -1.91044  -1.90886  -1.90772  -1.90609  -1.16656
 Alpha  occ. eigenvalues --   -1.16542  -1.08649  -1.08535  -1.07244  -1.06882
 Alpha  occ. eigenvalues --   -1.06843  -1.06666  -1.04618  -1.04388  -1.03797
 Alpha  occ. eigenvalues --   -1.03556  -1.03269  -1.02929  -1.02446  -1.02002
 Alpha  occ. eigenvalues --   -0.92005  -0.91875  -0.89558  -0.89390  -0.89233
 Alpha  occ. eigenvalues --   -0.89052  -0.88324  -0.88116  -0.87900  -0.87712
 Alpha  occ. eigenvalues --   -0.87673  -0.87580  -0.87310  -0.87032  -0.85025
 Alpha  occ. eigenvalues --   -0.84902  -0.83974  -0.83773  -0.83002  -0.82848
 Alpha  occ. eigenvalues --   -0.82687  -0.82558  -0.81617  -0.81492  -0.80630
 Alpha  occ. eigenvalues --   -0.80341  -0.78832  -0.78536  -0.77258  -0.77045
 Alpha  occ. eigenvalues --   -0.76974  -0.76798  -0.75959  -0.75736  -0.74933
 Alpha  occ. eigenvalues --   -0.74696  -0.72809  -0.72589  -0.71707  -0.71473
 Alpha  occ. eigenvalues --   -0.69950  -0.69660  -0.68914  -0.68730  -0.67675
 Alpha  occ. eigenvalues --   -0.67498  -0.67265  -0.67113  -0.65328  -0.65172
 Alpha  occ. eigenvalues --   -0.64888  -0.64665  -0.64658  -0.64552  -0.64307
 Alpha  occ. eigenvalues --   -0.64101  -0.62327  -0.62175  -0.60477  -0.60244
 Alpha  occ. eigenvalues --   -0.59845  -0.59694  -0.59022  -0.58885  -0.58537
 Alpha  occ. eigenvalues --   -0.58319  -0.57613  -0.57440  -0.57342  -0.57133
 Alpha  occ. eigenvalues --   -0.56343  -0.56100  -0.56009  -0.55788  -0.55554
 Alpha  occ. eigenvalues --   -0.55373  -0.55356  -0.55142  -0.54556  -0.54386
 Alpha  occ. eigenvalues --   -0.53939  -0.53816  -0.53333  -0.53260  -0.53127
 Alpha  occ. eigenvalues --   -0.53044  -0.52949  -0.52803  -0.52795  -0.52586
 Alpha  occ. eigenvalues --   -0.52481  -0.52307  -0.51941  -0.51753  -0.51658
 Alpha  occ. eigenvalues --   -0.51567  -0.51230  -0.51094  -0.50611  -0.50398
 Alpha  occ. eigenvalues --   -0.50072  -0.49955  -0.49885  -0.49767  -0.49552
 Alpha  occ. eigenvalues --   -0.49394  -0.49247  -0.49134  -0.49100  -0.48997
 Alpha  occ. eigenvalues --   -0.48625  -0.48494  -0.48475  -0.48453  -0.48269
 Alpha  occ. eigenvalues --   -0.48247  -0.47732  -0.47499  -0.47332  -0.47022
 Alpha  occ. eigenvalues --   -0.46835  -0.46606  -0.46598  -0.46459  -0.46394
 Alpha  occ. eigenvalues --   -0.46194  -0.46168  -0.45974  -0.45851  -0.45709
 Alpha  occ. eigenvalues --   -0.45237  -0.45102  -0.44608  -0.44547  -0.44410
 Alpha  occ. eigenvalues --   -0.44377  -0.44182  -0.44129  -0.44051  -0.44025
 Alpha  occ. eigenvalues --   -0.43981  -0.43843  -0.43525  -0.43451  -0.43425
 Alpha  occ. eigenvalues --   -0.43282  -0.43061  -0.42829  -0.42791  -0.42730
 Alpha  occ. eigenvalues --   -0.42690  -0.42455  -0.42050  -0.41867  -0.41737
 Alpha  occ. eigenvalues --   -0.41578  -0.41559  -0.41363  -0.41177  -0.40913
 Alpha  occ. eigenvalues --   -0.40883  -0.40859  -0.40636  -0.40610  -0.40607
 Alpha  occ. eigenvalues --   -0.40391  -0.40286  -0.40143  -0.39486  -0.39329
 Alpha  occ. eigenvalues --   -0.38509  -0.38248  -0.37798  -0.37564  -0.37358
 Alpha  occ. eigenvalues --   -0.37306  -0.37163  -0.37099  -0.36742  -0.36669
 Alpha  occ. eigenvalues --   -0.36226  -0.36114  -0.34321  -0.34145  -0.33796
 Alpha  occ. eigenvalues --   -0.33759  -0.33221  -0.33067  -0.31373  -0.31186
 Alpha  occ. eigenvalues --   -0.31070  -0.30866  -0.30051  -0.29833  -0.29483
 Alpha  occ. eigenvalues --   -0.29353  -0.29225  -0.29095  -0.24116  -0.23926
 Alpha  occ. eigenvalues --   -0.21163  -0.21009
 Alpha virt. eigenvalues --   -0.08808  -0.08684  -0.01785  -0.01578  -0.00091
 Alpha virt. eigenvalues --    0.00069   0.02172   0.02324   0.03077   0.03323
 Alpha virt. eigenvalues --    0.04675   0.04834   0.05073   0.05270   0.06125

 Mulliken charges:
               1
     1  Mg   0.838636
     2  C   -0.003002
     3  C   -0.094334
     4  C   -0.045790
     5  C   -0.063992
     6  N   -0.256752
     7  C   -0.052514
     8  C   -0.013989
     9  C   -0.086963
    10  C    0.046260
    11  C    0.104810
    12  C    0.053564
    13  C   -0.071627
    14  H    0.035749
    15  N   -0.433150
    16  C    0.168369
    17  C   -0.177277
    18  C   -0.003962
    19  C    0.148684
    20  C    0.110224
    21  C    0.012387
    22  O   -0.249405
    23  C    0.062474
    24  N   -0.341118
    25  C    0.041176
    26  C   -0.028196
    27  C   -0.023998
    28  C    0.074817
    29  C    0.076128
    30  C    0.035141
    31  C   -0.004490
    32  N   -0.310514
    33  C    0.080408
    34  C   -0.169653
    35  C    0.008487
    36  C    0.082992
    37  C    0.127282
    38  C    0.046244
    39  O   -0.188049
    40  C   -0.005375
    41  C    0.212942
    42  O   -0.257083
    43  O   -0.304803
    44  C    0.157586
    45  H   -0.017676
    46  H   -0.016723
    47  H   -0.041447
    48  H    0.001053
    49  H   -0.004266
    50  H    0.025575
    51  H    0.016519
    52  H    0.016621
    53  H    0.010848
    54  H    0.044130
    55  H    0.018094
    56  H    0.017653
    57  H    0.005712
    58  H    0.026901
    59  H    0.039209
    60  H    0.037264
    61  H    0.035921
    62  H    0.031277
    63  H    0.016597
    64  H    0.009577
    65  H    0.023320
    66  H    0.012595
    67  H    0.004809
    68  H    0.006435
    69  H    0.004744
    70  H    0.008906
    71  H    0.017532
    72  H    0.029040
    73  H    0.047820
    74  H    0.009060
    75  H    0.046127
    76  H    0.035217
    77  H    0.043228
    78  H    0.046117
    79  H    0.053888
    80  Mg   0.838098
    81  C   -0.016753
    82  C   -0.087916
    83  C   -0.045532
    84  C   -0.064448
    85  N   -0.254553
    86  C   -0.049483
    87  C   -0.015119
    88  C   -0.090606
    89  C    0.045887
    90  C    0.114403
    91  C    0.062597
    92  C   -0.077708
    93  H    0.034620
    94  N   -0.423434
    95  C    0.162845
    96  C   -0.174981
    97  C   -0.007993
    98  C    0.152037
    99  C    0.099566
   100  C    0.015385
   101  O   -0.253258
   102  C    0.061293
   103  N   -0.349956
   104  C    0.037553
   105  C   -0.019850
   106  C   -0.034840
   107  C    0.089022
   108  C    0.073656
   109  C    0.034737
   110  C   -0.007627
   111  N   -0.324259
   112  C    0.078697
   113  C   -0.162658
   114  C    0.002639
   115  C    0.096277
   116  C    0.131335
   117  C    0.042828
   118  O   -0.187479
   119  C    0.000760
   120  C    0.211156
   121  O   -0.251233
   122  O   -0.305470
   123  C    0.152109
   124  H   -0.020221
   125  H   -0.015670
   126  H   -0.040323
   127  H   -0.000464
   128  H   -0.004820
   129  H    0.023394
   130  H    0.014617
   131  H    0.015522
   132  H    0.013755
   133  H    0.037660
   134  H    0.020764
   135  H    0.019294
   136  H    0.008398
   137  H    0.025530
   138  H    0.039455
   139  H    0.037896
   140  H    0.036166
   141  H    0.033754
   142  H    0.014152
   143  H    0.012679
   144  H    0.024968
   145  H    0.012006
   146  H    0.005771
   147  H    0.006046
   148  H    0.003635
   149  H    0.010819
   150  H    0.017741
   151  H    0.030150
   152  H    0.045845
   153  H    0.008277
   154  H    0.048401
   155  H    0.035848
   156  H    0.043935
   157  H    0.049251
   158  H    0.053428
 Sum of Mulliken charges =  -0.00000

 Dipole moment (field-independent basis, Debye):
    X=             -3.6216    Y=             -2.0752    Z=             -7.8606  Tot=              8.9001
 Quadrupole moment (field-independent basis, Debye-Ang):
   XX=           -510.6141   YY=           -553.3461   ZZ=           -446.7236
   XY=             -3.3333   XZ=            -14.0868   YZ=            -44.2079

 Normal termination of Gaussian 16 at Sat Sep 11 05:31:49 2021.
