 Gaussian 16, Revision A.03,
 Gaussian 16:  ES64L-G16RevA.03 25-Dec-2016

 -----------------------------------
 #p cam-b3lyp/Def2SVP td=(nstates=5)
 -----------------------------------

 --------------------------------
 TDDFT excited states in gaussian
 --------------------------------
 Symbolic Z-matrix:
 Charge =  0 Multiplicity = 1

                         Standard orientation:
 ---------------------------------------------------------------------
 Center     Atomic      Atomic             Coordinates (Angstroms)
 Number     Number       Type             X           Y           Z
 ---------------------------------------------------------------------
      1         12           0       15.588723    0.635290    0.318460
      2          6           0       15.866860   -2.456788   -1.463086
      3          6           0       16.511399    2.208278   -2.565537
      4          6           0       15.791845    3.328449    1.980463
      5          6           0       15.804513   -1.213210    3.265008
      6          7           0       16.096312   -0.135275   -1.693809
      7          6           0       16.106555   -1.336842   -2.262406
      8          6           0       16.321613   -1.288676   -3.804743
      9          6           0       17.061084    0.119760   -3.911933
     10          6           0       16.496745    0.785587   -2.669307
     11          6           0       18.576976    0.024179   -3.772512
     12          6           0       14.969192   -1.287192   -4.593848
     13          6           0       15.087910   -1.569533   -6.094362
     14          1           0       14.035406   -2.331859   -6.748918
     15          7           0       15.600774    2.516048   -0.286067
     16          6           0       15.992414    2.974236   -1.499314
     17          6           0       15.815048    4.441707   -1.457476
     18          6           0       15.468602    4.818472   -0.058864
     19          6           0       15.634379    3.556220    0.615388
     20          6           0       15.926864    5.318830   -2.666568
     21          6           0       15.064101    6.113257    0.572043
     22          8           0       15.034221    6.271816    1.840326
     23          6           0       14.785396    7.232512   -0.345907
     24          7           0       15.992077    1.037638    2.326707
     25          6           0       15.961714    2.288454    2.799488
     26          6           0       15.999193    2.306489    4.298891
     27          6           0       15.815885    0.789955    4.763946
     28          6           0       15.785086    0.117512    3.369262
     29          6           0       17.274230    2.883122    4.929594
     30          6           0       14.660239    0.492229    5.752005
     31          6           0       13.329969    0.712240    5.067115
     32          7           0       15.620649   -1.469206    0.848673
     33          6           0       15.738427   -2.012638    2.136106
     34          6           0       15.822875   -3.476500    1.981034
     35          6           0       15.764655   -3.683227    0.604183
     36          6           0       15.677474   -2.426519   -0.060180
     37          6           0       15.995199   -4.417529    3.034220
     38          6           0       15.780630   -4.672091   -0.461532
     39          8           0       15.746240   -5.902774   -0.503139
     40          6           0       15.970220   -3.911730   -1.847798
     41          6           0       14.950831   -4.458909   -2.809438
     42          8           0       13.731683   -4.261719   -2.630107
     43          8           0       15.574838   -4.918691   -3.904772
     44          6           0       14.617952   -5.448978   -4.912402
     45          1           0       17.017176    2.788776   -3.339587
     46          1           0       15.755513    4.227278    2.599515
     47          1           0       15.788297   -1.859731    4.144326
     48          1           0       16.963174   -2.076949   -4.199015
     49          1           0       16.762901    0.669037   -4.804740
     50          1           0       18.888690   -0.982126   -3.493039
     51          1           0       18.842815    0.735969   -2.990733
     52          1           0       19.072164    0.375132   -4.678269
     53          1           0       14.573411   -0.272139   -4.626805
     54          1           0       14.262605   -1.989186   -4.149703
     55          1           0       16.067599   -1.975995   -6.347161
     56          1           0       15.043935   -0.618582   -6.625359
     57          1           0       16.353056    4.781700   -3.512970
     58          1           0       16.662919    6.088358   -2.434710
     59          1           0       14.975999    5.785403   -2.924440
     60          1           0       15.673292    7.436464   -0.944733
     61          1           0       14.425001    8.050060    0.277456
     62          1           0       14.006411    6.929344   -1.046064
     63          1           0       15.184008    2.905134    4.703270
     64          1           0       16.702918    0.406988    5.269102
     65          1           0       17.089089    3.717101    5.607020
     66          1           0       17.946290    3.175905    4.123428
     67          1           0       17.884980    2.159524    5.468859
     68          1           0       14.701141    1.174882    6.600096
     69          1           0       14.680157   -0.524849    6.143676
     70          1           0       13.178536    1.786284    5.168749
     71          1           0       12.542672    0.156894    5.577962
     72          1           0       13.389547    0.490984    4.001290
     73          1           0       15.310628   -5.239229    2.824120
     74          1           0       15.788037   -3.967719    4.004971
     75          1           0       17.047474   -4.671664    2.907773
     76          1           0       16.990170   -4.108739   -2.176448
     77          1           0       14.914820   -6.475460   -5.127897
     78          1           0       14.614092   -4.739094   -5.739720
     79          1           0       13.592798   -5.598444   -4.571727
     80         12           0      -16.141818    0.275925   -0.401004
     81          6           0      -14.250089   -1.627926    1.981387
     82          6           0      -14.857004    3.084235    1.047182
     83          6           0      -18.133946    1.985963   -2.182743
     84          6           0      -18.112938   -2.556153   -0.890613
     85          7           0      -14.743476    0.562000    1.288699
     86          6           0      -14.041238   -0.236385    2.078488
     87          6           0      -13.001060    0.493472    2.970064
     88          6           0      -13.688083    1.944612    3.002335
     89          6           0      -14.452563    1.882539    1.681581
     90          6           0      -14.694192    2.109213    4.129272
     91          6           0      -11.579038    0.545755    2.308891
     92          6           0      -10.447653    0.966780    3.249338
     93          1           0       -9.133528    0.354224    3.075211
     94          7           0      -16.101871    2.199884   -0.886123
     95          6           0      -15.515696    3.200952   -0.196533
     96          6           0      -15.787922    4.428632   -0.959996
     97          6           0      -16.722203    4.093927   -2.068953
     98          6           0      -17.045669    2.721149   -1.735849
     99          6           0      -15.120721    5.739116   -0.658504
    100          6           0      -17.248656    4.883268   -3.229119
    101          8           0      -18.234955    4.467542   -3.934250
    102          6           0      -16.636529    6.200282   -3.457729
    103          7           0      -17.999163   -0.142083   -1.236386
    104          6           0      -18.626996    0.759158   -2.011960
    105          6           0      -19.807535    0.140017   -2.721452
    106          6           0      -19.697409   -1.431733   -2.447528
    107          6           0      -18.468623   -1.440059   -1.511892
    108          6           0      -21.184065    0.637830   -2.281328
    109          6           0      -19.686570   -2.363629   -3.690155
    110          6           0      -18.414868   -2.155170   -4.480533
    111          7           0      -16.088959   -1.786039    0.242088
    112          6           0      -17.027386   -2.797570   -0.058341
    113          6           0      -16.626871   -4.001610    0.698150
    114          6           0      -15.487386   -3.597021    1.409746
    115          6           0      -15.209909   -2.231027    1.133007
    116          6           0      -17.316871   -5.246580    0.706479
    117          6           0      -14.462375   -4.011858    2.340312
    118          8           0      -14.137441   -5.081165    2.854845
    119          6           0      -13.689497   -2.719792    2.849841
    120          6           0      -12.213633   -2.996610    2.762100
    121          8           0      -11.666941   -3.166397    1.658049
    122          8           0      -11.655894   -2.800390    3.970734
    123          6           0      -10.190612   -3.051940    3.932029
    124          1           0      -14.692795    4.027261    1.569311
    125          1           0      -18.791077    2.498411   -2.889180
    126          1           0      -18.618904   -3.508095   -1.065191
    127          1           0      -12.911124    0.102194    3.976343
    128          1           0      -12.942727    2.735207    2.974684
    129          1           0      -14.868590    1.180778    4.652462
    130          1           0      -15.605887    2.456779    3.661246
    131          1           0      -14.377315    2.910031    4.803531
    132          1           0      -11.547404    1.377097    1.592926
    133          1           0      -11.337249   -0.393408    1.850472
    134          1           0      -10.752033    0.930594    4.302427
    135          1           0      -10.222797    2.021201    3.071434
    136          1           0      -14.612522    5.717549    0.313441
    137          1           0      -15.916286    6.481470   -0.532611
    138          1           0      -14.454977    6.066988   -1.459710
    139          1           0      -16.761154    6.815474   -2.569772
    140          1           0      -17.081759    6.572959   -4.382258
    141          1           0      -15.558269    6.065269   -3.598253
    142          1           0      -19.752689    0.315388   -3.788855
    143          1           0      -20.546398   -1.802458   -1.854563
    144          1           0      -21.784982    1.051692   -3.113014
    145          1           0      -21.046874    1.379416   -1.505593
    146          1           0      -21.806257   -0.104303   -1.784026
    147          1           0      -20.512832   -2.111869   -4.359550
    148          1           0      -19.782107   -3.415453   -3.442101
    149          1           0      -18.646272   -1.279140   -5.093808
    150          1           0      -18.201322   -3.024645   -5.098961
    151          1           0      -17.581591   -1.885327   -3.821392
    152          1           0      -16.564372   -6.020118    0.629747
    153          1           0      -18.035850   -5.308108   -0.107805
    154          1           0      -17.806008   -5.191951    1.682708
    155          1           0      -14.010063   -2.529214    3.874776
    156          1           0       -9.974752   -3.801563    4.699593
    157          1           0       -9.714100   -2.060385    4.048223
    158          1           0       -9.787715   -3.532287    3.048070
 ---------------------------------------------------------------------

 SCF Done:  E(RCAM-B3LYP) =  -4069.81176309     A.U. after   19 cycles

 Excitation energies and oscillator strengths:

 Excited State   1:      Singlet-A      1.6753 eV  740.06 nm  f=0.2086  <S**2>=0.000
     310 -> 316       -0.16829
     311 -> 313        0.66542
     312 -> 314       -0.16698
     310 <- 316       -0.10145
 This state for optimization and/or second-order correction.
 Total Energy, E(TD-HF/TD-DFT) =  -4069.75019628
 Copying the excited state density for this state as the 1-particle RhoCI density.

 Excited State   2:      Singlet-A      1.6801 eV  737.95 nm  f=0.5687  <S**2>=0.000
     309 -> 315        0.17030
     311 -> 313        0.16692
     312 -> 314        0.66506
     309 <- 315        0.10195

 Excited State   3:      Singlet-A      2.1861 eV  567.16 nm  f=0.0998  <S**2>=0.000
     310 -> 313        0.64229
     311 -> 316        0.27300

 Excited State   4:      Singlet-A      2.1925 eV  565.50 nm  f=0.1012  <S**2>=0.000
     309 -> 314        0.64052
     312 -> 315       -0.27817

 Excited State   5:      Singlet-A      3.0647 eV  404.56 nm  f=0.0000  <S**2>=0.000
     312 -> 313        0.70711

 The electronic state is 1-A.
 Alpha  occ. eigenvalues --  -46.87784 -46.87659 -19.26335 -19.26262 -19.19148
 Alpha  occ. eigenvalues --  -19.18998 -19.18806 -19.18715 -19.18153 -19.18047
 Alpha  occ. eigenvalues --  -14.42496 -14.42437 -14.41438 -14.41358 -14.39390
 Alpha  occ. eigenvalues --  -14.39351 -14.38598 -14.38574 -10.39079 -10.39059
 Alpha  occ. eigenvalues --  -10.35440 -10.35393 -10.34373 -10.34224 -10.31736
 Alpha  occ. eigenvalues --  -10.31654 -10.31391 -10.31306 -10.31021 -10.30895
 Alpha  occ. eigenvalues --  -10.30556 -10.30495 -10.30397 -10.30359 -10.30196
 Alpha  occ. eigenvalues --  -10.30141 -10.29909 -10.29894 -10.29618 -10.29436
 Alpha  occ. eigenvalues --  -10.29400 -10.29243 -10.28732 -10.28713 -10.28640
 Alpha  occ. eigenvalues --  -10.28517 -10.28403 -10.28352 -10.28136 -10.28101
 Alpha  occ. eigenvalues --  -10.28000 -10.27780 -10.27714 -10.27668 -10.27572
 Alpha  occ. eigenvalues --  -10.27520 -10.27492 -10.27481 -10.27470 -10.27467
 Alpha  occ. eigenvalues --  -10.27464 -10.27441 -10.27390 -10.27378 -10.27141
 Alpha  occ. eigenvalues --  -10.27044 -10.26686 -10.26682 -10.26417 -10.26404
 Alpha  occ. eigenvalues --  -10.26219 -10.26176 -10.26140 -10.26022 -10.26007
 Alpha  occ. eigenvalues --  -10.25934 -10.25850 -10.25829 -10.25428 -10.25402
 Alpha  occ. eigenvalues --  -10.24871 -10.24819 -10.24776 -10.24732 -10.24689
 Alpha  occ. eigenvalues --  -10.24680  -3.16527  -3.16409  -1.91408  -1.91291
 Alpha  occ. eigenvalues --   -1.90995  -1.90880  -1.90837  -1.90717  -1.16629
 Alpha  occ. eigenvalues --   -1.16610  -1.08653  -1.08611  -1.07208  -1.06968
 Alpha  occ. eigenvalues --   -1.06933  -1.06621  -1.04567  -1.04493  -1.03748
 Alpha  occ. eigenvalues --   -1.03662  -1.03221  -1.03038  -1.02399  -1.02110
 Alpha  occ. eigenvalues --   -0.91984  -0.91958  -0.89509  -0.89494  -0.89172
 Alpha  occ. eigenvalues --   -0.89146  -0.88276  -0.88221  -0.87857  -0.87792
 Alpha  occ. eigenvalues --   -0.87682  -0.87659  -0.87263  -0.87120  -0.84995
 Alpha  occ. eigenvalues --   -0.84967  -0.83926  -0.83876  -0.82958  -0.82932
 Alpha  occ. eigenvalues --   -0.82649  -0.82634  -0.81589  -0.81568  -0.80582
 Alpha  occ. eigenvalues --   -0.80438  -0.78785  -0.78635  -0.77205  -0.77142
 Alpha  occ. eigenvalues --   -0.76919  -0.76893  -0.75907  -0.75834  -0.74887
 Alpha  occ. eigenvalues --   -0.74802  -0.72761  -0.72698  -0.71659  -0.71579
 Alpha  occ. eigenvalues --   -0.69898  -0.69759  -0.68858  -0.68823  -0.67628
 Alpha  occ. eigenvalues --   -0.67599  -0.67204  -0.67195  -0.65271  -0.65267
 Alpha  occ. eigenvalues --   -0.64839  -0.64768  -0.64649  -0.64606  -0.64258
 Alpha  occ. eigenvalues --   -0.64203  -0.62280  -0.62270  -0.60431  -0.60340
 Alpha  occ. eigenvalues --   -0.59793  -0.59789  -0.58991  -0.58974  -0.58490
 Alpha  occ. eigenvalues --   -0.58423  -0.57568  -0.57548  -0.57296  -0.57235
 Alpha  occ. eigenvalues --   -0.56296  -0.56202  -0.55959  -0.55878  -0.55508
 Alpha  occ. eigenvalues --   -0.55448  -0.55326  -0.55245  -0.54509  -0.54483
 Alpha  occ. eigenvalues --   -0.53907  -0.53879  -0.53287  -0.53226  -0.53208
 Alpha  occ. eigenvalues --   -0.53138  -0.52899  -0.52897  -0.52744  -0.52667
 Alpha  occ. eigenvalues --   -0.52429  -0.52402  -0.51901  -0.51883  -0.51654
 Alpha  occ. eigenvalues --   -0.51601  -0.51198  -0.51182  -0.50563  -0.50476
 Alpha  occ. eigenvalues --   -0.50021  -0.49978  -0.49907  -0.49868  -0.49501
 Alpha  occ. eigenvalues --   -0.49485  -0.49200  -0.49199  -0.49100  -0.49080
 Alpha  occ. eigenvalues --   -0.48577  -0.48553  -0.48451  -0.48432  -0.48375
 Alpha  occ. eigenvalues --   -0.48337  -0.47681  -0.47592  -0.47284  -0.47117
 Alpha  occ. eigenvalues --   -0.46784  -0.46707  -0.46549  -0.46539  -0.46346
 Alpha  occ. eigenvalues --   -0.46269  -0.46149  -0.46083  -0.45817  -0.45805
 Alpha  occ. eigenvalues --   -0.45209  -0.45191  -0.44562  -0.44510  -0.44495
 Alpha  occ. eigenvalues --   -0.44473  -0.44133  -0.44124  -0.44076  -0.44073
 Alpha  occ. eigenvalues --   -0.44005  -0.43936  -0.43546  -0.43478  -0.43382
 Alpha  occ. eigenvalues --   -0.43372  -0.43013  -0.42923  -0.42896  -0.42683
 Alpha  occ. eigenvalues --   -0.42640  -0.42554  -0.41997  -0.41962  -0.41690
 Alpha  occ. eigenvalues --   -0.41666  -0.41518  -0.41454  -0.41128  -0.40987
 Alpha  occ. eigenvalues --   -0.40855  -0.40813  -0.40720  -0.40695  -0.40560
 Alpha  occ. eigenvalues --   -0.40493  -0.40220  -0.40217  -0.39432  -0.39427
 Alpha  occ. eigenvalues --   -0.38458  -0.38350  -0.37731  -0.37647  -0.37309
 Alpha  occ. eigenvalues --   -0.37265  -0.37248  -0.37195  -0.36761  -0.36695
 Alpha  occ. eigenvalues --   -0.36214  -0.36177  -0.34273  -0.34252  -0.33851
 Alpha  occ. eigenvalues --   -0.33751  -0.33174  -0.33173  -0.31336  -0.31274
 Alpha  occ. eigenvalues --   -0.31023  -0.30971  -0.30012  -0.29951  -0.29437
 Alpha  occ. eigenvalues --   -0.29326  -0.29308  -0.29210  -0.24067  -0.24035
 Alpha  occ. eigenvalues --   -0.21116  -0.21115
 Alpha virt. eigenvalues --   -0.08791  -0.08762  -0.01738  -0.01683  -0.00046
 Alpha virt. eigenvalues --   -0.00028   0.02209   0.02214   0.03133   0.03228
 Alpha virt. eigenvalues --    0.04732   0.04733   0.05118   0.05176   0.06192

 Mulliken charges:
               1
     1  Mg   0.838716
     2  C   -0.002930
     3  C   -0.094105
     4  C   -0.045935
     5  C   -0.063959
     6  N   -0.256783
     7  C   -0.052456
     8  C   -0.014008
     9  C   -0.086985
    10  C    0.046325
    11  C    0.104810
    12  C    0.053459
    13  C   -0.071844
    14  H    0.036246
    15  N   -0.433139
    16  C    0.168411
    17  C   -0.177154
    18  C   -0.004038
    19  C    0.148731
    20  C    0.110174
    21  C    0.012255
    22  O   -0.249694
    23  C    0.062494
    24  N   -0.341131
    25  C    0.041257
    26  C   -0.028160
    27  C   -0.023950
    28  C    0.074813
    29  C    0.076178
    30  C    0.035131
    31  C   -0.004490
    32  N   -0.310470
    33  C    0.080422
    34  C   -0.169704
    35  C    0.008391
    36  C    0.082995
    37  C    0.127304
    38  C    0.046146
    39  O   -0.188358
    40  C   -0.005356
    41  C    0.212903
    42  O   -0.257067
    43  O   -0.304813
    44  C    0.157654
    45  H   -0.017604
    46  H   -0.016893
    47  H   -0.041499
    48  H    0.000962
    49  H   -0.004015
    50  H    0.025480
    51  H    0.016419
    52  H    0.016663
    53  H    0.011200
    54  H    0.044161
    55  H    0.017867
    56  H    0.017946
    57  H    0.005895
    58  H    0.026793
    59  H    0.039534
    60  H    0.037348
    61  H    0.035569
    62  H    0.031500
    63  H    0.016498
    64  H    0.009454
    65  H    0.023155
    66  H    0.012553
    67  H    0.004743
    68  H    0.006309
    69  H    0.004746
    70  H    0.008722
    71  H    0.018128
    72  H    0.029025
    73  H    0.047625
    74  H    0.009097
    75  H    0.046014
    76  H    0.035160
    77  H    0.042988
    78  H    0.046411
    79  H    0.053759
    80  Mg   0.837846
    81  C   -0.016814
    82  C   -0.087772
    83  C   -0.045541
    84  C   -0.064897
    85  N   -0.254553
    86  C   -0.049807
    87  C   -0.015111
    88  C   -0.090495
    89  C    0.045753
    90  C    0.114374
    91  C    0.062515
    92  C   -0.077968
    93  H    0.035106
    94  N   -0.423483
    95  C    0.162920
    96  C   -0.174625
    97  C   -0.007820
    98  C    0.152112
    99  C    0.099374
   100  C    0.015560
   101  O   -0.253211
   102  C    0.061192
   103  N   -0.350080
   104  C    0.037536
   105  C   -0.019828
   106  C   -0.034824
   107  C    0.088910
   108  C    0.073670
   109  C    0.034724
   110  C   -0.007649
   111  N   -0.324126
   112  C    0.078471
   113  C   -0.163127
   114  C    0.002264
   115  C    0.096215
   116  C    0.131485
   117  C    0.042403
   118  O   -0.187791
   119  C    0.000918
   120  C    0.211289
   121  O   -0.250979
   122  O   -0.305657
   123  C    0.151979
   124  H   -0.019655
   125  H   -0.015599
   126  H   -0.040466
   127  H   -0.000615
   128  H   -0.004285
   129  H    0.022459
   130  H    0.014384
   131  H    0.016299
   132  H    0.013909
   133  H    0.037727
   134  H    0.020783
   135  H    0.019590
   136  H    0.008782
   137  H    0.026117
   138  H    0.039798
   139  H    0.038246
   140  H    0.036372
   141  H    0.033911
   142  H    0.014397
   143  H    0.012399
   144  H    0.025121
   145  H    0.011625
   146  H    0.005650
   147  H    0.006242
   148  H    0.003657
   149  H    0.010914
   150  H    0.017949
   151  H    0.030122
   152  H    0.046063
   153  H    0.008502
   154  H    0.046927
   155  H    0.035027
   156  H    0.043986
   157  H    0.049526
   158  H    0.053676
 Sum of Mulliken charges =  -0.00000

 Dipole moment (field-independent basis, Debye):
    X=              2.0864    Y=              7.4727    Z=             -1.0752  Tot=              7.8326
 Quadrupole moment (field-independent basis, Debye-Ang):
   XX=           -439.2359   YY=           -541.2408   ZZ=           -472.0972
   XY=             10.6980   XZ=            -57.9526   YZ=              6.3286

 Normal termination of Gaussian 16 at Sun Sep 12 14:56:33 2021.
