 Gaussian 16, Revision A.03,
 Gaussian 16:  ES64L-G16RevA.03 25-Dec-2016

 -----------------------------------
 #p cam-b3lyp/Def2SVP td=(nstates=5)
 -----------------------------------

 --------------------------------
 TDDFT excited states in gaussian
 --------------------------------
 Symbolic Z-matrix:
 Charge =  0 Multiplicity = 1

                         Standard orientation:
 ---------------------------------------------------------------------
 Center     Atomic      Atomic             Coordinates (Angstroms)
 Number     Number       Type             X           Y           Z
 ---------------------------------------------------------------------
      1         12           0        7.537091    0.801158    0.398544
      2          6           0        7.920937   -2.348982   -1.257203
      3          6           0        8.463889    2.285312   -2.530859
      4          6           0        7.646248    3.560685    1.957298
      5          6           0        7.754282   -0.926279    3.417558
      6          7           0        8.094980   -0.032907   -1.574713
      7          6           0        8.144440   -1.254810   -2.095940
      8          6           0        8.381932   -1.260516   -3.635726
      9          6           0        9.087018    0.161449   -3.786949
     10          6           0        8.486911    0.859779   -2.579418
     11          6           0       10.602519    0.110650   -3.622093
     12          6           0        7.042220   -1.324492   -4.443692
     13          6           0        7.191149   -1.661237   -5.930223
     14          1           0        6.168516   -2.475240   -6.569729
     15          7           0        7.510760    2.656920   -0.278439
     16          6           0        7.909294    3.078046   -1.502820
     17          6           0        7.694154    4.540947   -1.520648
     18          6           0        7.316771    4.962184   -0.142883
     19          6           0        7.504096    3.731557    0.582270
     20          6           0        7.802300    5.373461   -2.761202
     21          6           0        6.869904    6.269380    0.431296
     22          8           0        6.816487    6.475835    1.691890
     23          6           0        6.577078    7.344850   -0.533411
     24          7           0        7.899143    1.290871    2.395225
     25          6           0        7.829799    2.557758    2.818513
     26          6           0        7.843715    2.634488    4.316464
     27          6           0        7.691777    1.132745    4.837461
     28          6           0        7.699518    0.406519    3.469687
     29          6           0        9.093858    3.267852    4.942565
     30          6           0        6.528974    0.843424    5.819602
     31          6           0        5.204258    1.002326    5.107581
     32          7           0        7.614197   -1.279821    1.010610
     33          6           0        7.725877   -1.770034    2.319767
     34          6           0        7.849791   -3.236099    2.222979
     35          6           0        7.818040   -3.497136    0.854514
     36          6           0        7.709265   -2.269629    0.140591
     37          6           0        8.029681   -4.131086    3.314341
     38          6           0        7.875491   -4.525562   -0.171593
     39          8           0        7.872960   -5.757411   -0.165795
     40          6           0        8.067065   -3.814490   -1.583508
     41          6           0        7.076806   -4.424547   -2.537724
     42          8           0        5.850433   -4.252278   -2.383780
     43          8           0        7.729063   -4.909833   -3.605244
     44          6           0        6.801559   -5.503166   -4.605167
     45          1           0        8.966644    2.848490   -3.319534
     46          1           0        7.577610    4.481443    2.540335
     47          1           0        7.740925   -1.538661    4.321031
     48          1           0        9.049268   -2.046485   -3.989758
     49          1           0        8.788787    0.668020   -4.704646
     50          1           0       10.935307   -0.875724   -3.299232
     51          1           0       10.838156    0.858673   -2.864841
     52          1           0       11.102539    0.439185   -4.533587
     53          1           0        6.621383   -0.322067   -4.521800
     54          1           0        6.346903   -2.026948   -3.982805
     55          1           0        8.184606   -2.051591   -6.152883
     56          1           0        7.131260   -0.732900   -6.498382
     57          1           0        8.254956    4.815366   -3.579845
     58          1           0        8.514950    6.170175   -2.548870
     59          1           0        6.843995    5.804943   -3.050697
     60          1           0        7.468634    7.548545   -1.126863
     61          1           0        6.186515    8.176176    0.052428
     62          1           0        5.816904    6.994844   -1.232396
     63          1           0        7.007484    3.226922    4.685469
     64          1           0        8.580351    0.792648    5.369856
     65          1           0        8.877223    4.122219    5.584306
     66          1           0        9.770614    3.546701    4.135387
     67          1           0        9.714383    2.581640    5.518308
     68          1           0        6.539491    1.559062    6.641001
     69          1           0        6.568640   -0.156958    6.250780
     70          1           0        5.024095    2.075199    5.165173
     71          1           0        4.423521    0.446836    5.628246
     72          1           0        5.285832    0.741808    4.052137
     73          1           0        7.369480   -4.977743    3.126519
     74          1           0        7.796258   -3.649749    4.263778
     75          1           0        9.089883   -4.362529    3.213046
     76          1           0        9.096623   -3.997494   -1.889520
     77          1           0        7.127641   -6.529142   -4.776277
     78          1           0        6.792441   -4.826008   -5.459438
     79          1           0        5.775401   -5.665936   -4.273740
     80         12           0       -8.308811    0.196226   -0.188932
     81          6           0       -5.691598   -1.997156    0.914858
     82          6           0       -6.063307    2.752598    0.050398
     83          6           0      -10.699064    2.213694   -0.721787
     84          6           0      -10.583174   -2.272866    0.747316
     85          7           0       -6.181661    0.245455    0.415275
     86          6           0       -5.275542   -0.658973    0.754840
     87          6           0       -3.826427   -0.111579    0.854742
     88          6           0       -4.171100    1.432598    1.129701
     89          6           0       -5.542939    1.499535    0.461662
     90          6           0       -4.341562    1.757843    2.604320
     91          6           0       -3.025770   -0.292101   -0.482559
     92          6           0       -1.517127   -0.064407   -0.364597
     93          1           0       -0.623770   -0.884030   -1.178610
     94          7           0       -8.283199    2.088504   -0.786576
     95          6           0       -7.281036    2.978378   -0.628196
     96          6           0       -7.761825    4.235627   -1.221761
     97          6           0       -9.191599    4.061077   -1.595947
     98          6           0       -9.458392    2.759359   -1.017642
     99          6           0       -6.867820    5.418201   -1.457785
    100          6           0      -10.162163    4.928475   -2.338783
    101          8           0      -11.419918    4.681726   -2.342092
    102          6           0       -9.608539    6.127600   -2.984616
    103          7           0      -10.352041    0.090476    0.180363
    104          6           0      -11.175240    1.084129   -0.197712
    105          6           0      -12.622199    0.668610   -0.079181
    106          6           0      -12.594764   -0.900451    0.228817
    107          6           0      -11.068084   -1.112261    0.327750
    108          6           0      -13.433690    1.384755    1.000167
    109          6           0      -13.408240   -1.818959   -0.723681
    110          6           0      -12.781284   -1.820492   -2.099290
    111          7           0       -8.189190   -1.847739    0.500959
    112          6           0       -9.263397   -2.690882    0.860521
    113          6           0       -8.678320   -3.945866    1.375428
    114          6           0       -7.293213   -3.735263    1.300606
    115          6           0       -7.033469   -2.432793    0.795026
    116          6           0       -9.408854   -5.060697    1.875036
    117          6           0       -5.991816   -4.314620    1.544334
    118          8           0       -5.585297   -5.423800    1.888139
    119          6           0       -4.897654   -3.167981    1.424206
    120          6           0       -3.777659   -3.683150    0.562383
    121          8           0       -3.970847   -3.938135   -0.639388
    122          8           0       -2.619156   -3.583591    1.239378
    123          6           0       -1.476943   -4.072180    0.421789
    124          1           0       -5.507792    3.654820    0.307864
    125          1           0      -11.560950    2.828484   -0.991333
    126          1           0      -11.225181   -3.128479    0.967368
    127          1           0       -3.244231   -0.514332    1.674865
    128          1           0       -3.468471    2.090167    0.624462
    129          1           0       -4.319228    0.869566    3.218006
    130          1           0       -5.301036    2.251296    2.687721
    131          1           0       -3.595694    2.494403    2.916549
    132          1           0       -3.285905    0.524222   -1.168625
    133          1           0       -3.213097   -1.257281   -0.911461
    134          1           0       -1.182523   -0.052272    0.679830
    135          1           0       -1.287941    0.939158   -0.731140
    136          1           0       -5.911989    5.311528   -0.930135
    137          1           0       -7.346229    6.280827   -0.981477
    138          1           0       -6.726105    5.633959   -2.518926
    139          1           0       -9.129807    6.753103   -2.234936
    140          1           0      -10.438187    6.570172   -3.539313
    141          1           0       -8.823767    5.817708   -3.683694
    142          1           0      -13.149782    0.834769   -1.010394
    143          1           0      -13.008608   -1.127974    1.222203
    144          1           0      -14.333123    1.893316    0.604627
    145          1           0      -12.786187    2.092176    1.500993
    146          1           0      -13.766483    0.753807    1.822581
    147          1           0      -14.423507   -1.433631   -0.845754
    148          1           0      -13.492108   -2.841335   -0.370535
    149          1           0      -13.193020   -0.917112   -2.559145
    150          1           0      -13.071565   -2.711974   -2.651585
    151          1           0      -11.694392   -1.692428   -2.036581
    152          1           0       -8.942477   -5.947112    1.466062
    153          1           0      -10.460364   -5.001718    1.601860
    154          1           0       -9.255827   -4.928488    2.949455
    155          1           0       -4.560885   -2.929451    2.433785
    156          1           0       -0.974347   -4.848623    1.006773
    157          1           0       -0.886214   -3.172528    0.165998
    158          1           0       -1.707364   -4.610354   -0.490202
 ---------------------------------------------------------------------

 SCF Done:  E(RCAM-B3LYP) =  -4069.81194801     A.U. after   19 cycles

 Excitation energies and oscillator strengths:

 Excited State   1:      Singlet-A      1.6689 eV  742.92 nm  f=0.0125  <S**2>=0.000
     309 -> 315       -0.10775
     310 -> 316        0.13404
     311 -> 313       -0.42836
     312 -> 314        0.53637
 This state for optimization and/or second-order correction.
 Total Energy, E(TD-HF/TD-DFT) =  -4069.75061776
 Copying the excited state density for this state as the 1-particle RhoCI density.

 Excited State   2:      Singlet-A      1.6858 eV  735.47 nm  f=0.7400  <S**2>=0.000
     309 -> 315        0.13822
     310 -> 316        0.10976
     311 -> 313        0.53546
     312 -> 314        0.42773

 Excited State   3:      Singlet-A      2.1853 eV  567.36 nm  f=0.1061  <S**2>=0.000
     310 -> 314        0.64244
     312 -> 316       -0.27236

 Excited State   4:      Singlet-A      2.1924 eV  565.52 nm  f=0.0963  <S**2>=0.000
     309 -> 313        0.64052
     311 -> 315       -0.27801

 Excited State   5:      Singlet-A      2.7202 eV  455.79 nm  f=0.0000  <S**2>=0.000
     312 -> 313        0.70693

 The electronic state is 1-A.
 Alpha  occ. eigenvalues --  -46.87944 -46.87556 -19.26377 -19.26056 -19.19134
 Alpha  occ. eigenvalues --  -19.18979 -19.18917 -19.18635 -19.18290 -19.17914
 Alpha  occ. eigenvalues --  -14.42589 -14.42386 -14.41593 -14.41257 -14.39550
 Alpha  occ. eigenvalues --  -14.39250 -14.38731 -14.38493 -10.39192 -10.38852
 Alpha  occ. eigenvalues --  -10.35613 -10.35314 -10.34509 -10.34086 -10.31745
 Alpha  occ. eigenvalues --  -10.31536 -10.31353 -10.31188 -10.31046 -10.30904
 Alpha  occ. eigenvalues --  -10.30707 -10.30652 -10.30354 -10.30294 -10.30249
 Alpha  occ. eigenvalues --  -10.30062 -10.30052 -10.29793 -10.29773 -10.29399
 Alpha  occ. eigenvalues --  -10.29342 -10.29298 -10.28865 -10.28627 -10.28560
 Alpha  occ. eigenvalues --  -10.28506 -10.28399 -10.28294 -10.28232 -10.28002
 Alpha  occ. eigenvalues --  -10.27930 -10.27897 -10.27863 -10.27730 -10.27645
 Alpha  occ. eigenvalues --  -10.27627 -10.27594 -10.27562 -10.27540 -10.27441
 Alpha  occ. eigenvalues --  -10.27390 -10.27367 -10.27365 -10.27297 -10.27276
 Alpha  occ. eigenvalues --  -10.26883 -10.26820 -10.26588 -10.26499 -10.26357
 Alpha  occ. eigenvalues --  -10.26340 -10.26337 -10.26160 -10.26069 -10.25953
 Alpha  occ. eigenvalues --  -10.25897 -10.25837 -10.25753 -10.25565 -10.25329
 Alpha  occ. eigenvalues --  -10.24968 -10.24932 -10.24875 -10.24763 -10.24664
 Alpha  occ. eigenvalues --  -10.24588  -3.16687  -3.16306  -1.91569  -1.91188
 Alpha  occ. eigenvalues --   -1.91155  -1.90997  -1.90777  -1.90614  -1.16729
 Alpha  occ. eigenvalues --   -1.16362  -1.08745  -1.08510  -1.07382  -1.06889
 Alpha  occ. eigenvalues --   -1.06753  -1.06699  -1.04719  -1.04381  -1.03903
 Alpha  occ. eigenvalues --   -1.03557  -1.03378  -1.02937  -1.02554  -1.02007
 Alpha  occ. eigenvalues --   -0.92105  -0.91860  -0.89666  -0.89398  -0.89306
 Alpha  occ. eigenvalues --   -0.89007  -0.88431  -0.88130  -0.87999  -0.87807
 Alpha  occ. eigenvalues --   -0.87687  -0.87567  -0.87424  -0.87032  -0.85106
 Alpha  occ. eigenvalues --   -0.84858  -0.84081  -0.83780  -0.83125  -0.82850
 Alpha  occ. eigenvalues --   -0.82777  -0.82516  -0.81700  -0.81400  -0.80726
 Alpha  occ. eigenvalues --   -0.80283  -0.78939  -0.78539  -0.77352  -0.77053
 Alpha  occ. eigenvalues --   -0.77024  -0.76736  -0.76040  -0.75675  -0.75033
 Alpha  occ. eigenvalues --   -0.74690  -0.72910  -0.72593  -0.71802  -0.71460
 Alpha  occ. eigenvalues --   -0.70060  -0.69673  -0.69001  -0.68690  -0.67779
 Alpha  occ. eigenvalues --   -0.67481  -0.67348  -0.67053  -0.65410  -0.65121
 Alpha  occ. eigenvalues --   -0.64985  -0.64749  -0.64647  -0.64493  -0.64412
 Alpha  occ. eigenvalues --   -0.64099  -0.62411  -0.62072  -0.60591  -0.60248
 Alpha  occ. eigenvalues --   -0.59930  -0.59665  -0.59122  -0.58875  -0.58638
 Alpha  occ. eigenvalues --   -0.58300  -0.57705  -0.57446  -0.57385  -0.57124
 Alpha  occ. eigenvalues --   -0.56443  -0.56091  -0.56085  -0.55677  -0.55659
 Alpha  occ. eigenvalues --   -0.55472  -0.55312  -0.55113  -0.54650  -0.54326
 Alpha  occ. eigenvalues --   -0.54015  -0.53765  -0.53440  -0.53353  -0.53114
 Alpha  occ. eigenvalues --   -0.53044  -0.53002  -0.52898  -0.52742  -0.52592
 Alpha  occ. eigenvalues --   -0.52564  -0.52313  -0.52037  -0.51776  -0.51742
 Alpha  occ. eigenvalues --   -0.51511  -0.51324  -0.51062  -0.50730  -0.50396
 Alpha  occ. eigenvalues --   -0.50177  -0.50063  -0.49872  -0.49778  -0.49647
 Alpha  occ. eigenvalues --   -0.49372  -0.49345  -0.49213  -0.49071  -0.48963
 Alpha  occ. eigenvalues --   -0.48713  -0.48608  -0.48578  -0.48403  -0.48279
 Alpha  occ. eigenvalues --   -0.48222  -0.47828  -0.47465  -0.47431  -0.47004
 Alpha  occ. eigenvalues --   -0.46932  -0.46676  -0.46592  -0.46497  -0.46407
 Alpha  occ. eigenvalues --   -0.46292  -0.46159  -0.45953  -0.45935  -0.45656
 Alpha  occ. eigenvalues --   -0.45341  -0.45109  -0.44701  -0.44649  -0.44370
 Alpha  occ. eigenvalues --   -0.44347  -0.44288  -0.44210  -0.44148  -0.44003
 Alpha  occ. eigenvalues --   -0.43964  -0.43809  -0.43611  -0.43517  -0.43362
 Alpha  occ. eigenvalues --   -0.43241  -0.43158  -0.42833  -0.42792  -0.42774
 Alpha  occ. eigenvalues --   -0.42673  -0.42463  -0.42149  -0.41846  -0.41835
 Alpha  occ. eigenvalues --   -0.41657  -0.41541  -0.41318  -0.41270  -0.41002
 Alpha  occ. eigenvalues --   -0.40975  -0.40871  -0.40709  -0.40615  -0.40570
 Alpha  occ. eigenvalues --   -0.40385  -0.40352  -0.40060  -0.39599  -0.39343
 Alpha  occ. eigenvalues --   -0.38609  -0.38249  -0.37867  -0.37483  -0.37462
 Alpha  occ. eigenvalues --   -0.37390  -0.37161  -0.37054  -0.36830  -0.36556
 Alpha  occ. eigenvalues --   -0.36320  -0.36067  -0.34426  -0.34142  -0.33891
 Alpha  occ. eigenvalues --   -0.33646  -0.33326  -0.33062  -0.31508  -0.31193
 Alpha  occ. eigenvalues --   -0.31175  -0.30861  -0.30147  -0.29813  -0.29596
 Alpha  occ. eigenvalues --   -0.29460  -0.29229  -0.29104  -0.24221  -0.23927
 Alpha  occ. eigenvalues --   -0.21268  -0.21013
 Alpha virt. eigenvalues --   -0.08916  -0.08688  -0.01895  -0.01582  -0.00205
 Alpha virt. eigenvalues --    0.00071   0.02067   0.02324   0.02925   0.03326
 Alpha virt. eigenvalues --    0.04589   0.04868   0.04986   0.05391   0.06071

 Mulliken charges:
               1
     1  Mg   0.837813
     2  C   -0.003149
     3  C   -0.094049
     4  C   -0.046191
     5  C   -0.063952
     6  N   -0.256816
     7  C   -0.052411
     8  C   -0.013934
     9  C   -0.086979
    10  C    0.046192
    11  C    0.104741
    12  C    0.053472
    13  C   -0.072112
    14  H    0.036787
    15  N   -0.433159
    16  C    0.168141
    17  C   -0.177202
    18  C   -0.004260
    19  C    0.148493
    20  C    0.110112
    21  C    0.011773
    22  O   -0.249833
    23  C    0.062691
    24  N   -0.341104
    25  C    0.041234
    26  C   -0.028174
    27  C   -0.024017
    28  C    0.074657
    29  C    0.076091
    30  C    0.035157
    31  C   -0.004550
    32  N   -0.310486
    33  C    0.080235
    34  C   -0.169711
    35  C    0.008516
    36  C    0.082669
    37  C    0.127319
    38  C    0.045995
    39  O   -0.187742
    40  C   -0.005251
    41  C    0.213196
    42  O   -0.257856
    43  O   -0.304646
    44  C    0.157480
    45  H   -0.017345
    46  H   -0.016943
    47  H   -0.041196
    48  H    0.001301
    49  H   -0.003896
    50  H    0.025669
    51  H    0.016452
    52  H    0.016956
    53  H    0.010869
    54  H    0.043823
    55  H    0.018169
    56  H    0.018005
    57  H    0.006139
    58  H    0.027040
    59  H    0.039113
    60  H    0.037777
    61  H    0.035381
    62  H    0.030838
    63  H    0.016138
    64  H    0.009868
    65  H    0.023228
    66  H    0.012738
    67  H    0.005066
    68  H    0.006573
    69  H    0.005223
    70  H    0.008260
    71  H    0.018079
    72  H    0.028485
    73  H    0.047837
    74  H    0.009280
    75  H    0.046416
    76  H    0.035559
    77  H    0.043546
    78  H    0.046576
    79  H    0.053792
    80  Mg   0.837632
    81  C   -0.016618
    82  C   -0.087849
    83  C   -0.045724
    84  C   -0.065176
    85  N   -0.254551
    86  C   -0.049783
    87  C   -0.014866
    88  C   -0.090454
    89  C    0.045764
    90  C    0.114413
    91  C    0.062734
    92  C   -0.079078
    93  H    0.038388
    94  N   -0.423446
    95  C    0.162776
    96  C   -0.174797
    97  C   -0.008064
    98  C    0.152050
    99  C    0.099437
   100  C    0.015386
   101  O   -0.253470
   102  C    0.061288
   103  N   -0.350125
   104  C    0.037436
   105  C   -0.019755
   106  C   -0.034823
   107  C    0.089036
   108  C    0.073760
   109  C    0.034795
   110  C   -0.007639
   111  N   -0.324175
   112  C    0.078582
   113  C   -0.163261
   114  C    0.002444
   115  C    0.096166
   116  C    0.131489
   117  C    0.042310
   118  O   -0.187226
   119  C    0.001097
   120  C    0.211460
   121  O   -0.251256
   122  O   -0.306015
   123  C    0.151412
   124  H   -0.019776
   125  H   -0.015881
   126  H   -0.040642
   127  H   -0.000224
   128  H   -0.004314
   129  H    0.022425
   130  H    0.014060
   131  H    0.016341
   132  H    0.013139
   133  H    0.037995
   134  H    0.020977
   135  H    0.018489
   136  H    0.008705
   137  H    0.025885
   138  H    0.039302
   139  H    0.038139
   140  H    0.036069
   141  H    0.033678
   142  H    0.014202
   143  H    0.012282
   144  H    0.024894
   145  H    0.011599
   146  H    0.005506
   147  H    0.006045
   148  H    0.003599
   149  H    0.010791
   150  H    0.017802
   151  H    0.030267
   152  H    0.046168
   153  H    0.008306
   154  H    0.046874
   155  H    0.034992
   156  H    0.045555
   157  H    0.051139
   158  H    0.053909
 Sum of Mulliken charges =  -0.00000

 Dipole moment (field-independent basis, Debye):
    X=              3.6847    Y=              7.1168    Z=             -1.8073  Tot=              8.2154
 Quadrupole moment (field-independent basis, Debye-Ang):
   XX=           -482.4736   YY=           -551.2125   ZZ=           -475.0110
   XY=             21.9513   XZ=            -35.1688   YZ=             -9.6508

 Normal termination of Gaussian 16 at Sun Sep 12 02:20:14 2021.
