 Gaussian 16, Revision A.03,
 Gaussian 16:  ES64L-G16RevA.03 25-Dec-2016

 -----------------------------------
 #p cam-b3lyp/Def2SVP td=(nstates=5)
 -----------------------------------

 --------------------------------
 TDDFT excited states in gaussian
 --------------------------------
 Symbolic Z-matrix:
 Charge =  0 Multiplicity = 1

                         Standard orientation:
 ---------------------------------------------------------------------
 Center     Atomic      Atomic             Coordinates (Angstroms)
 Number     Number       Type             X           Y           Z
 ---------------------------------------------------------------------
      1         12           0       15.885346   -0.635765    0.460665
      2          6           0       16.156706    1.964895   -1.983746
      3          6           0       16.691606    1.697910    2.815866
      4          6           0       16.097562   -2.995150    2.568956
      5          6           0       16.223216   -2.921170   -2.148631
      6          7           0       16.341652    1.525291    0.311434
      7          6           0       16.353213    2.414940   -0.676271
      8          6           0       16.518862    3.883509   -0.183077
      9          6           0       17.231988    3.600742    1.214597
     10          6           0       16.696438    2.205293    1.482610
     11          6           0       18.752849    3.533392    1.119999
     12          6           0       15.142443    4.604164    0.011489
     13          6           0       15.218409    6.125097    0.173804
     14          1           0       14.158160    6.943828   -0.394439
     15          7           0       15.848315   -0.596457    2.435490
     16          6           0       16.194232    0.443795    3.231419
     17          6           0       15.994835   -0.022042    4.620634
     18          6           0       15.686568   -1.478317    4.572406
     19          6           0       15.893623   -1.757394    3.174328
     20          6           0       16.054537    0.886827    5.809812
     21          6           0       15.281464   -2.464463    5.621949
     22          8           0       15.288955   -3.725215    5.409765
     23          6           0       14.956173   -1.913863    6.950131
     24          7           0       16.345176   -2.664003    0.280545
     25          6           0       16.309706   -3.476552    1.342378
     26          6           0       16.394029   -4.916561    0.931033
     27          6           0       16.249701   -4.931240   -0.659157
     28          6           0       16.185809   -3.403487   -0.904429
     29          6           0       17.678890   -5.653463    1.333673
     30          6           0       15.130607   -5.821435   -1.255481
     31          6           0       13.776109   -5.262735   -0.880931
     32          7           0       15.967566   -0.538563   -1.706092
     33          6           0       16.134446   -1.612372   -2.592523
     34          6           0       16.237363   -1.041515   -3.948103
     35          6           0       16.139182    0.334777   -3.753097
     36          6           0       16.011075    0.607983   -2.361250
     37          6           0       16.457743   -1.775490   -5.146914
     38          6           0       16.137438    1.639543   -4.394532
     39          8           0       16.121433    2.031779   -5.562174
     40          6           0       16.271159    2.753573   -3.264539
     41          6           0       15.230908    3.805446   -3.537944
     42          8           0       14.015007    3.545979   -3.430118
     43          8           0       15.827429    5.002230   -3.649353
     44          6           0       14.847925    6.094890   -3.891883
     45          1           0       17.163445    2.285404    3.605903
     46          1           0       16.066354   -3.846878    3.251615
     47          1           0       16.244997   -3.578010   -3.020147
     48          1           0       17.160224    4.503717   -0.809511
     49          1           0       16.897133    4.290381    1.989189
     50          1           0       19.089244    3.562602    0.083705
     51          1           0       19.031732    2.587249    1.584253
     52          1           0       19.213635    4.312627    1.727655
     53          1           0       14.729646    4.334239    0.983497
     54          1           0       14.461484    4.362325   -0.805295
     55          1           0       16.196035    6.508871   -0.119240
     56          1           0       15.142562    6.359468    1.235650
     57          1           0       16.462431    1.862391    5.548196
     58          1           0       16.785126    0.462711    6.498342
     59          1           0       15.088696    0.975540    6.307421
     60          1           0       15.821424   -1.376309    7.338622
     61          1           0       14.602539   -2.754665    7.545819
     62          1           0       14.160500   -1.176282    6.841378
     63          1           0       15.582500   -5.496450    1.368727
     64          1           0       17.158190   -5.282376   -1.149082
     65          1           0       17.501839   -6.546275    1.933876
     66          1           0       18.320499   -4.948378    1.861388
     67          1           0       18.317786   -5.946538    0.501004
     68          1           0       15.187244   -6.828458   -0.843604
     69          1           0       15.179088   -5.904023   -2.341336
     70          1           0       13.610799   -5.672233    0.114968
     71          1           0       13.014245   -5.612604   -1.578330
     72          1           0       13.805668   -4.177095   -0.786072
     73          1           0       15.780125   -1.355917   -5.890393
     74          1           0       16.274050   -2.839467   -4.999224
     75          1           0       17.509448   -1.554580   -5.328490
     76          1           0       17.283288    3.150883   -3.334264
     77          1           0       15.154239    6.603481   -4.806071
     78          1           0       14.806702    6.683234   -2.975064
     79          1           0       13.836513    5.785389   -4.157577
     80         12           0      -15.844415   -0.648870   -0.456105
     81          6           0      -16.357317    1.922725    1.993976
     82          6           0      -16.430634    1.716100   -2.843123
     83          6           0      -15.844500   -2.972418   -2.616792
     84          6           0      -16.428673   -2.978380    2.069312
     85          7           0      -16.320820    1.506632   -0.317863
     86          6           0      -16.429204    2.388386    0.664535
     87          6           0      -16.545460    3.863375    0.194990
     88          6           0      -17.127451    3.601452   -1.278633
     89          6           0      -16.566029    2.201364   -1.517880
     90          6           0      -18.644399    3.521468   -1.321161
     91          6           0      -15.153423    4.585539    0.142827
     92          6           0      -15.223378    6.106787   -0.007660
     93          1           0      -14.217869    6.920254    0.670342
     94          7           0      -15.615177   -0.570905   -2.425859
     95          6           0      -15.879853    0.476199   -3.235066
     96          6           0      -15.564242    0.021232   -4.597988
     97          6           0      -15.248563   -1.432166   -4.546023
     98          6           0      -15.584773   -1.725814   -3.167329
     99          6           0      -15.504084    0.953015   -5.773403
    100          6           0      -14.741688   -2.400582   -5.571420
    101          8           0      -14.765733   -3.666469   -5.371935
    102          6           0      -14.302999   -1.828750   -6.852845
    103          7           0      -16.306569   -2.673087   -0.349811
    104          6           0      -16.172445   -3.470184   -1.424322
    105          6           0      -16.295111   -4.925988   -1.042277
    106          6           0      -16.298496   -4.951719    0.556751
    107          6           0      -16.265569   -3.432754    0.834360
    108          6           0      -17.536314   -5.648694   -1.565257
    109          6           0      -15.238927   -5.852645    1.248368
    110          6           0      -13.853428   -5.297890    1.007507
    111          7           0      -16.126823   -0.583863    1.684935
    112          6           0      -16.382900   -1.674167    2.545026
    113          6           0      -16.615696   -1.119102    3.894154
    114          6           0      -16.500733    0.268248    3.719402
    115          6           0      -16.236356    0.558628    2.353655
    116          6           0      -16.937427   -1.871256    5.059005
    117          6           0      -16.553446    1.553740    4.377748
    118          8           0      -16.656629    1.928267    5.545149
    119          6           0      -16.588300    2.689597    3.266446
    120          6           0      -15.580205    3.740093    3.644198
    121          8           0      -14.365374    3.474380    3.657895
    122          8           0      -16.194457    4.935124    3.714707
    123          6           0      -15.233436    6.011229    4.075599
    124          1           0      -16.821043    2.323213   -3.660365
    125          1           0      -15.747327   -3.819179   -3.300194
    126          1           0      -16.520228   -3.645200    2.929335
    127          1           0      -17.238861    4.468700    0.766433
    128          1           0      -16.715319    4.305401   -1.996951
    129          1           0      -19.076520    3.536268   -0.331624
    130          1           0      -18.875958    2.590158   -1.821237
    131          1           0      -19.045931    4.314042   -1.959079
    132          1           0      -14.650735    4.326590   -0.797908
    133          1           0      -14.561408    4.334190    1.001300
    134          1           0      -16.229713    6.494845    0.191468
    135          1           0      -15.040528    6.360703   -1.054606
    136          1           0      -15.944867    1.929089   -5.535915
    137          1           0      -16.162331    0.538081   -6.544380
    138          1           0      -14.496478    1.049340   -6.183398
    139          1           0      -15.128005   -1.285092   -7.307005
    140          1           0      -13.891855   -2.665566   -7.420800
    141          1           0      -13.512974   -1.095312   -6.656483
    142          1           0      -15.444850   -5.492930   -1.401064
    143          1           0      -17.253468   -5.323558    0.956264
    144          1           0      -17.297754   -6.544058   -2.169823
    145          1           0      -18.122978   -4.945848   -2.141784
    146          1           0      -18.242604   -5.966168   -0.800035
    147          1           0      -15.251917   -6.854940    0.813174
    148          1           0      -15.396555   -5.963078    2.316053
    149          1           0      -13.597848   -5.692634    0.019610
    150          1           0      -13.160466   -5.655064    1.766633
    151          1           0      -13.875188   -4.204651    0.930112
    152          1           0      -16.341390   -1.465907    5.865809
    153          1           0      -16.742684   -2.931809    4.913814
    154          1           0      -18.006548   -1.657556    5.140032
    155          1           0      -17.603197    3.087962    3.236893
    156          1           0      -15.630338    6.508632    4.965959
    157          1           0      -15.118208    6.626983    3.163829
    158          1           0      -14.251248    5.710820    4.421314
 ---------------------------------------------------------------------

 SCF Done:  E(RCAM-B3LYP) =  -4069.81177655     A.U. after   19 cycles

 Excitation energies and oscillator strengths:

 Excited State   1:      Singlet-A      1.6753 eV  740.05 nm  f=0.2153  <S**2>=0.000
     310 -> 316        0.16871
     311 -> 313        0.66685
     312 -> 314        0.16120
     310 <- 316        0.10172
 This state for optimization and/or second-order correction.
 Total Energy, E(TD-HF/TD-DFT) =  -4069.75020867
 Copying the excited state density for this state as the 1-particle RhoCI density.

 Excited State   2:      Singlet-A      1.6802 eV  737.93 nm  f=0.5621  <S**2>=0.000
     309 -> 315        0.17072
     311 -> 313       -0.16115
     312 -> 314        0.66648
     309 <- 315        0.10221

 Excited State   3:      Singlet-A      2.1862 eV  567.13 nm  f=0.0956  <S**2>=0.000
     310 -> 313        0.64214
     311 -> 316       -0.27301

 Excited State   4:      Singlet-A      2.1926 eV  565.47 nm  f=0.1045  <S**2>=0.000
     309 -> 314        0.64036
     312 -> 315       -0.27819

 Excited State   5:      Singlet-A      3.0604 eV  405.12 nm  f=0.0000  <S**2>=0.000
     312 -> 313        0.70711

 The electronic state is 1-A.
 Alpha  occ. eigenvalues --  -46.87759 -46.87661 -19.26353 -19.26252 -19.19164
 Alpha  occ. eigenvalues --  -19.18986 -19.18775 -19.18710 -19.18135 -19.18054
 Alpha  occ. eigenvalues --  -14.42498 -14.42413 -14.41412 -14.41360 -14.39365
 Alpha  occ. eigenvalues --  -14.39352 -14.38601 -14.38550 -10.39094 -10.39046
 Alpha  occ. eigenvalues --  -10.35408 -10.35387 -10.34355 -10.34232 -10.31761
 Alpha  occ. eigenvalues --  -10.31648 -10.31369 -10.31311 -10.31023 -10.30872
 Alpha  occ. eigenvalues --  -10.30533 -10.30470 -10.30399 -10.30362 -10.30169
 Alpha  occ. eigenvalues --  -10.30141 -10.29896 -10.29884 -10.29593 -10.29437
 Alpha  occ. eigenvalues --  -10.29401 -10.29217 -10.28720 -10.28713 -10.28654
 Alpha  occ. eigenvalues --  -10.28502 -10.28406 -10.28328 -10.28142 -10.28081
 Alpha  occ. eigenvalues --  -10.28002 -10.27756 -10.27690 -10.27670 -10.27546
 Alpha  occ. eigenvalues --  -10.27519 -10.27485 -10.27466 -10.27464 -10.27462
 Alpha  occ. eigenvalues --  -10.27441 -10.27413 -10.27377 -10.27367 -10.27124
 Alpha  occ. eigenvalues --  -10.27054 -10.26692 -10.26668 -10.26406 -10.26366
 Alpha  occ. eigenvalues --  -10.26200 -10.26146 -10.26138 -10.26028 -10.25982
 Alpha  occ. eigenvalues --  -10.25936 -10.25856 -10.25810 -10.25400 -10.25400
 Alpha  occ. eigenvalues --  -10.24874 -10.24797 -10.24751 -10.24729 -10.24691
 Alpha  occ. eigenvalues --  -10.24647  -3.16502  -3.16411  -1.91384  -1.91293
 Alpha  occ. eigenvalues --   -1.90970  -1.90882  -1.90812  -1.90719  -1.16647
 Alpha  occ. eigenvalues --   -1.16600  -1.08662  -1.08593  -1.07176  -1.06962
 Alpha  occ. eigenvalues --   -1.06949  -1.06609  -1.04544  -1.04496  -1.03723
 Alpha  occ. eigenvalues --   -1.03664  -1.03197  -1.03040  -1.02374  -1.02112
 Alpha  occ. eigenvalues --   -0.91989  -0.91936  -0.89495  -0.89483  -0.89152
 Alpha  occ. eigenvalues --   -0.89152  -0.88250  -0.88221  -0.87835  -0.87796
 Alpha  occ. eigenvalues --   -0.87685  -0.87636  -0.87235  -0.87118  -0.85000
 Alpha  occ. eigenvalues --   -0.84945  -0.83900  -0.83877  -0.82928  -0.82927
 Alpha  occ. eigenvalues --   -0.82653  -0.82612  -0.81599  -0.81551  -0.80560
 Alpha  occ. eigenvalues --   -0.80444  -0.78759  -0.78635  -0.77182  -0.77145
 Alpha  occ. eigenvalues --   -0.76900  -0.76899  -0.75888  -0.75841  -0.74862
 Alpha  occ. eigenvalues --   -0.74804  -0.72738  -0.72700  -0.71636  -0.71583
 Alpha  occ. eigenvalues --   -0.69870  -0.69758  -0.68836  -0.68828  -0.67604
 Alpha  occ. eigenvalues --   -0.67602  -0.67199  -0.67182  -0.65273  -0.65250
 Alpha  occ. eigenvalues --   -0.64818  -0.64772  -0.64655  -0.64584  -0.64232
 Alpha  occ. eigenvalues --   -0.64205  -0.62281  -0.62263  -0.60404  -0.60339
 Alpha  occ. eigenvalues --   -0.59798  -0.59768  -0.58994  -0.58951  -0.58467
 Alpha  occ. eigenvalues --   -0.58427  -0.57557  -0.57550  -0.57272  -0.57237
 Alpha  occ. eigenvalues --   -0.56273  -0.56205  -0.55944  -0.55889  -0.55483
 Alpha  occ. eigenvalues --   -0.55452  -0.55304  -0.55250  -0.54490  -0.54488
 Alpha  occ. eigenvalues --   -0.53914  -0.53859  -0.53261  -0.53228  -0.53185
 Alpha  occ. eigenvalues --   -0.53142  -0.52903  -0.52879  -0.52717  -0.52665
 Alpha  occ. eigenvalues --   -0.52401  -0.52401  -0.51889  -0.51880  -0.51658
 Alpha  occ. eigenvalues --   -0.51579  -0.51203  -0.51160  -0.50532  -0.50471
 Alpha  occ. eigenvalues --   -0.49994  -0.49980  -0.49880  -0.49867  -0.49487
 Alpha  occ. eigenvalues --   -0.49477  -0.49203  -0.49178  -0.49106  -0.49061
 Alpha  occ. eigenvalues --   -0.48560  -0.48558  -0.48424  -0.48408  -0.48378
 Alpha  occ. eigenvalues --   -0.48337  -0.47658  -0.47595  -0.47260  -0.47118
 Alpha  occ. eigenvalues --   -0.46760  -0.46710  -0.46554  -0.46519  -0.46322
 Alpha  occ. eigenvalues --   -0.46271  -0.46127  -0.46088  -0.45825  -0.45788
 Alpha  occ. eigenvalues --   -0.45210  -0.45165  -0.44542  -0.44516  -0.44477
 Alpha  occ. eigenvalues --   -0.44469  -0.44129  -0.44107  -0.44078  -0.44052
 Alpha  occ. eigenvalues --   -0.43983  -0.43938  -0.43556  -0.43460  -0.43387
 Alpha  occ. eigenvalues --   -0.43349  -0.42991  -0.42933  -0.42904  -0.42664
 Alpha  occ. eigenvalues --   -0.42619  -0.42553  -0.41973  -0.41965  -0.41671
 Alpha  occ. eigenvalues --   -0.41668  -0.41497  -0.41459  -0.41105  -0.40991
 Alpha  occ. eigenvalues --   -0.40832  -0.40783  -0.40721  -0.40697  -0.40535
 Alpha  occ. eigenvalues --   -0.40494  -0.40226  -0.40197  -0.39426  -0.39403
 Alpha  occ. eigenvalues --   -0.38432  -0.38351  -0.37711  -0.37654  -0.37283
 Alpha  occ. eigenvalues --   -0.37267  -0.37227  -0.37200  -0.36774  -0.36679
 Alpha  occ. eigenvalues --   -0.36219  -0.36157  -0.34255  -0.34249  -0.33865
 Alpha  occ. eigenvalues --   -0.33736  -0.33177  -0.33150  -0.31304  -0.31269
 Alpha  occ. eigenvalues --   -0.30999  -0.30974  -0.29995  -0.29959  -0.29411
 Alpha  occ. eigenvalues --   -0.29327  -0.29285  -0.29213  -0.24044  -0.24037
 Alpha  occ. eigenvalues --   -0.21118  -0.21091
 Alpha virt. eigenvalues --   -0.08793  -0.08737  -0.01712  -0.01684  -0.00028
 Alpha virt. eigenvalues --   -0.00020   0.02205   0.02236   0.03163   0.03228
 Alpha virt. eigenvalues --    0.04728   0.04755   0.05132   0.05162   0.06181

 Mulliken charges:
               1
     1  Mg   0.838861
     2  C   -0.002965
     3  C   -0.094097
     4  C   -0.045871
     5  C   -0.063977
     6  N   -0.256798
     7  C   -0.052472
     8  C   -0.014007
     9  C   -0.087026
    10  C    0.046345
    11  C    0.104820
    12  C    0.053474
    13  C   -0.071815
    14  H    0.036136
    15  N   -0.433158
    16  C    0.168436
    17  C   -0.177123
    18  C   -0.003979
    19  C    0.148738
    20  C    0.110168
    21  C    0.012320
    22  O   -0.249602
    23  C    0.062458
    24  N   -0.341156
    25  C    0.041243
    26  C   -0.028160
    27  C   -0.023971
    28  C    0.074847
    29  C    0.076172
    30  C    0.035131
    31  C   -0.004505
    32  N   -0.310468
    33  C    0.080422
    34  C   -0.169733
    35  C    0.008324
    36  C    0.082975
    37  C    0.127315
    38  C    0.046093
    39  O   -0.188524
    40  C   -0.005343
    41  C    0.212858
    42  O   -0.257070
    43  O   -0.304807
    44  C    0.157703
    45  H   -0.017602
    46  H   -0.016820
    47  H   -0.041525
    48  H    0.000897
    49  H   -0.004010
    50  H    0.025440
    51  H    0.016440
    52  H    0.016641
    53  H    0.011262
    54  H    0.044130
    55  H    0.017821
    56  H    0.017984
    57  H    0.005873
    58  H    0.026822
    59  H    0.039649
    60  H    0.037323
    61  H    0.035708
    62  H    0.031583
    63  H    0.016592
    64  H    0.009415
    65  H    0.023220
    66  H    0.012529
    67  H    0.004715
    68  H    0.006355
    69  H    0.004692
    70  H    0.008820
    71  H    0.018162
    72  H    0.029001
    73  H    0.047533
    74  H    0.009098
    75  H    0.045952
    76  H    0.035106
    77  H    0.042879
    78  H    0.046417
    79  H    0.053689
    80  Mg   0.837886
    81  C   -0.016822
    82  C   -0.087768
    83  C   -0.045504
    84  C   -0.064878
    85  N   -0.254560
    86  C   -0.049849
    87  C   -0.015107
    88  C   -0.090504
    89  C    0.045756
    90  C    0.114380
    91  C    0.062509
    92  C   -0.077910
    93  H    0.034919
    94  N   -0.423508
    95  C    0.162954
    96  C   -0.174603
    97  C   -0.007759
    98  C    0.152153
    99  C    0.099364
   100  C    0.015620
   101  O   -0.253147
   102  C    0.061168
   103  N   -0.350087
   104  C    0.037541
   105  C   -0.019851
   106  C   -0.034802
   107  C    0.088911
   108  C    0.073652
   109  C    0.034733
   110  C   -0.007682
   111  N   -0.324109
   112  C    0.078431
   113  C   -0.163154
   114  C    0.002215
   115  C    0.096199
   116  C    0.131493
   117  C    0.042362
   118  O   -0.187945
   119  C    0.000929
   120  C    0.211249
   121  O   -0.250986
   122  O   -0.305645
   123  C    0.152032
   124  H   -0.019633
   125  H   -0.015533
   126  H   -0.040482
   127  H   -0.000683
   128  H   -0.004282
   129  H    0.022429
   130  H    0.014419
   131  H    0.016295
   132  H    0.013973
   133  H    0.037683
   134  H    0.020753
   135  H    0.019636
   136  H    0.008775
   137  H    0.026171
   138  H    0.039911
   139  H    0.038247
   140  H    0.036490
   141  H    0.033982
   142  H    0.014454
   143  H    0.012384
   144  H    0.025178
   145  H    0.011626
   146  H    0.005646
   147  H    0.006274
   148  H    0.003622
   149  H    0.010984
   150  H    0.017959
   151  H    0.030107
   152  H    0.045985
   153  H    0.008510
   154  H    0.046890
   155  H    0.034990
   156  H    0.043866
   157  H    0.049514
   158  H    0.053585
 Sum of Mulliken charges =  -0.00000

 Dipole moment (field-independent basis, Debye):
    X=              0.4204    Y=              3.1480    Z=              0.0387  Tot=              3.1762
 Quadrupole moment (field-independent basis, Debye-Ang):
   XX=           -408.9737   YY=           -460.0855   ZZ=           -538.9457
   XY=              1.3877   XZ=            122.7441   YZ=              0.4905

 Normal termination of Gaussian 16 at Sun Sep 12 12:23:27 2021.
