 Gaussian 16, Revision A.03,
 Gaussian 16:  ES64L-G16RevA.03 25-Dec-2016

 -----------------------------------
 #p cam-b3lyp/Def2SVP td=(nstates=5)
 -----------------------------------

 --------------------------------
 TDDFT excited states in gaussian
 --------------------------------
 Symbolic Z-matrix:
 Charge =  0 Multiplicity = 1

                         Standard orientation:
 ---------------------------------------------------------------------
 Center     Atomic      Atomic             Coordinates (Angstroms)
 Number     Number       Type             X           Y           Z
 ---------------------------------------------------------------------
      1         12           0       -7.877690   -0.690486    0.133156
      2          6           0       -8.037045    2.877783    0.366136
      3          6           0       -8.774264   -0.367843   -3.143293
      4          6           0       -8.186512   -3.844595    0.019839
      5          6           0       -8.113372   -0.780463    3.609076
      6          7           0       -8.319876    1.083261   -1.115419
      7          6           0       -8.286822    2.397978   -0.921514
      8          6           0       -8.468015    3.220539   -2.232215
      9          6           0       -9.240267    2.133826   -3.106674
     10          6           0       -8.721268    0.872096   -2.439889
     11          6           0      -10.756026    2.186949   -2.944946
     12          6           0       -7.098526    3.611461   -2.882915
     13          6           0       -7.176019    4.682385   -3.974918
     14          1           0       -6.089997    5.643833   -4.091197
     15          7           0       -7.923620   -1.918546   -1.413649
     16          6           0       -8.299128   -1.613467   -2.679037
     17          6           0       -8.159943   -2.862748   -3.457887
     18          6           0       -7.854933   -3.963323   -2.501960
     19          6           0       -8.003959   -3.282201   -1.241308
     20          6           0       -8.266482   -2.917702   -4.950998
     21          6           0       -7.497728   -5.403359   -2.693876
     22          8           0       -7.500625   -6.239582   -1.726768
     23          6           0       -7.226697   -5.834231   -4.077326
     24          7           0       -8.336512   -2.125218    1.578376
     25          6           0       -8.348532   -3.428419    1.277532
     26          6           0       -8.420433   -4.273719    2.514560
     27          6           0       -8.209399   -3.276897    3.744017
     28          6           0       -8.129990   -1.945349    2.957286
     29          6           0       -9.723620   -5.060064    2.712994
     30          6           0       -7.069283   -3.616194    4.736706
     31          6           0       -5.729823   -3.464015    4.051295
     32          7           0       -7.868365    0.766293    1.742117
     33          6           0       -8.001507    0.508078    3.114077
     34          6           0       -8.045351    1.814031    3.797181
     35          6           0       -7.950725    2.747552    2.766925
     36          6           0       -7.880334    2.068199    1.517198
     37          6           0       -8.217637    2.018140    5.194711
     38          6           0       -7.917513    4.161313    2.429235
     39          8           0       -7.851060    5.206469    3.077869
     40          6           0       -8.094811    4.304315    0.853182
     41          6           0       -7.040368    5.258303    0.361893
     42          8           0       -5.830977    4.953898    0.407481
     43          8           0       -7.627554    6.269038   -0.297023
     44          6           0       -6.634962    7.236589   -0.836244
     45          1           0       -9.276892   -0.404197   -4.111789
     46          1           0       -8.186976   -4.936463    0.036061
     47          1           0       -8.100737   -0.731133    4.699425
     48          1           0       -9.080323    4.116177   -2.125740
     49          1           0       -8.935918    2.162256   -4.152754
     50          1           0      -11.048433    2.879118   -2.155439
     51          1           0      -11.057442    1.170507   -2.691006
     52          1           0      -11.239278    2.414136   -3.895540
     53          1           0       -6.727910    2.772475   -3.471818
     54          1           0       -6.384652    3.925043   -2.120435
     55          1           0       -8.139128    5.193480   -3.964311
     56          1           0       -7.144096    4.184738   -4.944210
     57          1           0       -8.659652   -1.987367   -5.358966
     58          1           0       -9.026840   -3.661353   -5.188798
     59          1           0       -7.322127   -3.194590   -5.419889
     60          1           0       -8.105668   -5.641839   -4.692910
     61          1           0       -6.901326   -6.871807   -4.010842
     62          1           0       -6.424620   -5.220055   -4.487703
     63          1           0       -7.630032   -5.023137    2.522579
     64          1           0       -9.097680   -3.208813    4.372503
     65          1           0       -9.575044   -6.135392    2.814484
     66          1           0      -10.384428   -4.833797    1.876677
     67          1           0      -10.327932   -4.736973    3.560246
     68          1           0       -7.146658   -4.652752    5.063060
     69          1           0       -7.072332   -2.987106    5.626925
     70          1           0       -5.607958   -4.418476    3.540427
     71          1           0       -4.940508   -3.312069    4.788251
     72          1           0       -5.759610   -2.686947    3.287251
     73          1           0       -7.507907    2.794833    5.479319
     74          1           0       -8.043980    1.098808    5.753526
     75          1           0       -9.260008    2.334951    5.225522
     76          1           0       -9.101738    4.684683    0.684247
     77          1           0       -6.900800    8.219543   -0.447185
     78          1           0       -6.630313    7.105063   -1.918410
     79          1           0       -5.614340    7.137450   -0.464973
     80         12           0        8.003041   -0.872100    0.004300
     81          6           0        7.997658    2.708802    0.241333
     82          6           0        6.960376   -0.510892   -3.223235
     83          6           0        7.564293   -4.012785   -0.100889
     84          6           0        7.926458   -0.964088    3.487315
     85          7           0        7.570948    0.919033   -1.219382
     86          6           0        7.663606    2.228345   -1.042030
     87          6           0        7.460941    3.068040   -2.331750
     88          6           0        6.595876    2.009516   -3.174405
     89          6           0        7.093646    0.717972   -2.528800
     90          6           0        5.100664    2.121648   -2.927186
     91          6           0        8.817005    3.400998   -3.047470
     92          6           0        8.723493    4.472447   -4.136057
     93          1           0        9.846729    5.389593   -4.308272
     94          7           0        7.835064   -2.094001   -1.550468
     95          6           0        7.417799   -1.776109   -2.793896
     96          6           0        7.453721   -3.029600   -3.563076
     97          6           0        7.768585   -4.144375   -2.628805
     98          6           0        7.713135   -3.447907   -1.359181
     99          6           0        7.281339   -3.074888   -5.053595
    100          6           0        8.057552   -5.599500   -2.841696
    101          8           0        8.069566   -6.433076   -1.868119
    102          6           0        8.233749   -6.035976   -4.234502
    103          7           0        7.564645   -2.284245    1.465804
    104          6           0        7.479113   -3.591019    1.160929
    105          6           0        7.430267   -4.440201    2.408685
    106          6           0        7.745790   -3.443767    3.619126
    107          6           0        7.838477   -2.115748    2.836081
    108          6           0        6.107298   -5.158734    2.672987
    109          6           0        8.919007   -3.829905    4.561001
    110          6           0       10.230473   -3.743340    3.814042
    111          7           0        8.153554    0.574418    1.602111
    112          6           0        8.070536    0.324625    2.989479
    113          6           0        8.113343    1.634613    3.671038
    114          6           0        8.195751    2.564365    2.623530
    115          6           0        8.183386    1.883105    1.376442
    116          6           0        8.027908    1.844395    5.076318
    117          6           0        8.279676    3.967804    2.288860
    118          8           0        8.412655    5.007887    2.932516
    119          6           0        8.027656    4.131073    0.728023
    120          6           0        9.094330    5.037587    0.177608
    121          8           0       10.286591    4.683872    0.178351
    122          8           0        8.510450    6.072871   -0.452977
    123          6           0        9.527718    6.994376   -1.025532
    124          1           0        6.416846   -0.516394   -4.168442
    125          1           0        7.520396   -5.104082   -0.076148
    126          1           0        8.006068   -0.913300    4.575323
    127          1           0        6.897460    3.983105   -2.194172
    128          1           0        6.858799    2.034727   -4.228731
    129          1           0        4.874633    2.818362   -2.133690
    130          1           0        4.770919    1.125772   -2.661601
    131          1           0        4.582599    2.372650   -3.857218
    132          1           0        9.121101    2.540165   -3.656755
    133          1           0        9.567510    3.676864   -2.332435
    134          1           0        7.778392    5.026942   -4.088535
    135          1           0        8.694702    3.976651   -5.109383
    136          1           0        6.900026   -2.123068   -5.443530
    137          1           0        6.481173   -3.793561   -5.261254
    138          1           0        8.187251   -3.394830   -5.572858
    139          1           0        7.336546   -5.801880   -4.802559
    140          1           0        8.520571   -7.087786   -4.177080
    141          1           0        9.049492   -5.457217   -4.681967
    142          1           0        8.190006   -5.211666    2.381427
    143          1           0        6.888455   -3.347121    4.301377
    144          1           0        6.217511   -6.255597    2.766919
    145          1           0        5.419776   -4.912616    1.874691
    146          1           0        5.566778   -4.821231    3.555670
    147          1           0        8.816155   -4.867419    4.888327
    148          1           0        8.977133   -3.215066    5.452960
    149          1           0       10.282566   -4.704902    3.294638
    150          1           0       11.059726   -3.624415    4.508473
    151          1           0       10.197345   -2.957576    3.050418
    152          1           0        8.774219    2.586725    5.326236
    153          1           0        8.186246    0.919345    5.626755
    154          1           0        6.997133    2.199473    5.158202
    155          1           0        7.028595    4.549306    0.599480
    156          1           0        9.318025    7.990752   -0.624351
    157          1           0        9.460828    6.868745   -2.122563
    158          1           0       10.558122    6.855801   -0.719708
 ---------------------------------------------------------------------

 SCF Done:  E(RCAM-B3LYP) =  -4069.81168163     A.U. after   19 cycles

 Excitation energies and oscillator strengths:

 Excited State   1:      Singlet-A      1.6698 eV  742.50 nm  f=0.0164  <S**2>=0.000
     309 -> 315       -0.10402
     310 -> 316        0.13751
     311 -> 313       -0.41258
     312 -> 314        0.54852
 This state for optimization and/or second-order correction.
 Total Energy, E(TD-HF/TD-DFT) =  -4069.75031697
 Copying the excited state density for this state as the 1-particle RhoCI density.

 Excited State   2:      Singlet-A      1.6852 eV  735.72 nm  f=0.7404  <S**2>=0.000
     309 -> 315        0.14143
     310 -> 316        0.10577
     311 -> 313        0.54769
     312 -> 314        0.41204

 Excited State   3:      Singlet-A      2.1853 eV  567.35 nm  f=0.0573  <S**2>=0.000
     309 -> 313       -0.14014
     310 -> 314        0.62731
     312 -> 316       -0.26603

 Excited State   4:      Singlet-A      2.1929 eV  565.39 nm  f=0.1359  <S**2>=0.000
     309 -> 313        0.62529
     310 -> 314        0.13905
     311 -> 315       -0.27189

 Excited State   5:      Singlet-A      2.7635 eV  448.64 nm  f=0.0000  <S**2>=0.000
     312 -> 313        0.70710

 The electronic state is 1-A.
 Alpha  occ. eigenvalues --  -46.87841 -46.87588 -19.26324 -19.26276 -19.19089
 Alpha  occ. eigenvalues --  -19.19061 -19.18860 -19.18658 -19.18205 -19.17970
 Alpha  occ. eigenvalues --  -14.42496 -14.42426 -14.41492 -14.41287 -14.39448
 Alpha  occ. eigenvalues --  -14.39282 -14.38629 -14.38526 -10.39120 -10.39017
 Alpha  occ. eigenvalues --  -10.35494 -10.35337 -10.34425 -10.34147 -10.31719
 Alpha  occ. eigenvalues --  -10.31689 -10.31449 -10.31234 -10.30957 -10.30954
 Alpha  occ. eigenvalues --  -10.30613 -10.30549 -10.30325 -10.30287 -10.30250
 Alpha  occ. eigenvalues --  -10.30074 -10.29960 -10.29820 -10.29673 -10.29368
 Alpha  occ. eigenvalues --  -10.29331 -10.29299 -10.28803 -10.28648 -10.28612
 Alpha  occ. eigenvalues --  -10.28604 -10.28409 -10.28333 -10.28168 -10.28066
 Alpha  occ. eigenvalues --  -10.27929 -10.27834 -10.27773 -10.27629 -10.27599
 Alpha  occ. eigenvalues --  -10.27538 -10.27537 -10.27484 -10.27451 -10.27447
 Alpha  occ. eigenvalues --  -10.27421 -10.27411 -10.27399 -10.27308 -10.27197
 Alpha  occ. eigenvalues --  -10.26967 -10.26772 -10.26634 -10.26463 -10.26375
 Alpha  occ. eigenvalues --  -10.26280 -10.26217 -10.26079 -10.26061 -10.25934
 Alpha  occ. eigenvalues --  -10.25871 -10.25863 -10.25764 -10.25466 -10.25326
 Alpha  occ. eigenvalues --  -10.24873 -10.24829 -10.24798 -10.24723 -10.24676
 Alpha  occ. eigenvalues --  -10.24619  -3.16584  -3.16338  -1.91466  -1.91221
 Alpha  occ. eigenvalues --   -1.91052  -1.90894  -1.90809  -1.90646  -1.16673
 Alpha  occ. eigenvalues --   -1.16570  -1.08662  -1.08576  -1.07261  -1.06911
 Alpha  occ. eigenvalues --   -1.06873  -1.06683  -1.04627  -1.04423  -1.03804
 Alpha  occ. eigenvalues --   -1.03592  -1.03277  -1.02967  -1.02454  -1.02039
 Alpha  occ. eigenvalues --   -0.92014  -0.91912  -0.89559  -0.89426  -0.89240
 Alpha  occ. eigenvalues --   -0.89079  -0.88325  -0.88153  -0.87908  -0.87720
 Alpha  occ. eigenvalues --   -0.87717  -0.87614  -0.87321  -0.87062  -0.85033
 Alpha  occ. eigenvalues --   -0.84931  -0.83974  -0.83809  -0.83014  -0.82877
 Alpha  occ. eigenvalues --   -0.82697  -0.82586  -0.81627  -0.81525  -0.80640
 Alpha  occ. eigenvalues --   -0.80373  -0.78842  -0.78570  -0.77263  -0.77077
 Alpha  occ. eigenvalues --   -0.76981  -0.76829  -0.75968  -0.75766  -0.74936
 Alpha  occ. eigenvalues --   -0.74733  -0.72816  -0.72627  -0.71714  -0.71508
 Alpha  occ. eigenvalues --   -0.69944  -0.69693  -0.68922  -0.68759  -0.67684
 Alpha  occ. eigenvalues --   -0.67533  -0.67275  -0.67140  -0.65336  -0.65202
 Alpha  occ. eigenvalues --   -0.64896  -0.64699  -0.64665  -0.64584  -0.64309
 Alpha  occ. eigenvalues --   -0.64136  -0.62338  -0.62207  -0.60487  -0.60277
 Alpha  occ. eigenvalues --   -0.59853  -0.59725  -0.59029  -0.58921  -0.58546
 Alpha  occ. eigenvalues --   -0.58354  -0.57624  -0.57477  -0.57349  -0.57168
 Alpha  occ. eigenvalues --   -0.56352  -0.56135  -0.56022  -0.55818  -0.55565
 Alpha  occ. eigenvalues --   -0.55387  -0.55377  -0.55178  -0.54562  -0.54419
 Alpha  occ. eigenvalues --   -0.53947  -0.53842  -0.53342  -0.53270  -0.53161
 Alpha  occ. eigenvalues --   -0.53075  -0.52958  -0.52834  -0.52806  -0.52611
 Alpha  occ. eigenvalues --   -0.52475  -0.52339  -0.51949  -0.51803  -0.51668
 Alpha  occ. eigenvalues --   -0.51594  -0.51237  -0.51129  -0.50624  -0.50423
 Alpha  occ. eigenvalues --   -0.50072  -0.49965  -0.49914  -0.49802  -0.49562
 Alpha  occ. eigenvalues --   -0.49424  -0.49257  -0.49143  -0.49132  -0.49029
 Alpha  occ. eigenvalues --   -0.48634  -0.48502  -0.48487  -0.48486  -0.48306
 Alpha  occ. eigenvalues --   -0.48277  -0.47740  -0.47529  -0.47340  -0.47054
 Alpha  occ. eigenvalues --   -0.46840  -0.46640  -0.46607  -0.46487  -0.46401
 Alpha  occ. eigenvalues --   -0.46202  -0.46201  -0.46013  -0.45860  -0.45747
 Alpha  occ. eigenvalues --   -0.45240  -0.45139  -0.44618  -0.44555  -0.44442
 Alpha  occ. eigenvalues --   -0.44408  -0.44187  -0.44137  -0.44062  -0.44055
 Alpha  occ. eigenvalues --   -0.44014  -0.43875  -0.43535  -0.43483  -0.43432
 Alpha  occ. eigenvalues --   -0.43315  -0.43069  -0.42860  -0.42827  -0.42739
 Alpha  occ. eigenvalues --   -0.42693  -0.42489  -0.42051  -0.41899  -0.41745
 Alpha  occ. eigenvalues --   -0.41595  -0.41585  -0.41393  -0.41185  -0.40918
 Alpha  occ. eigenvalues --   -0.40917  -0.40872  -0.40663  -0.40635  -0.40611
 Alpha  occ. eigenvalues --   -0.40425  -0.40295  -0.40167  -0.39478  -0.39363
 Alpha  occ. eigenvalues --   -0.38510  -0.38283  -0.37805  -0.37591  -0.37361
 Alpha  occ. eigenvalues --   -0.37314  -0.37197  -0.37131  -0.36753  -0.36700
 Alpha  occ. eigenvalues --   -0.36234  -0.36147  -0.34329  -0.34181  -0.33812
 Alpha  occ. eigenvalues --   -0.33790  -0.33229  -0.33104  -0.31389  -0.31216
 Alpha  occ. eigenvalues --   -0.31079  -0.30902  -0.30064  -0.29874  -0.29493
 Alpha  occ. eigenvalues --   -0.29362  -0.29260  -0.29136  -0.24124  -0.23963
 Alpha  occ. eigenvalues --   -0.21171  -0.21046
 Alpha virt. eigenvalues --   -0.08817  -0.08721  -0.01793  -0.01614  -0.00103
 Alpha virt. eigenvalues --    0.00036   0.02162   0.02283   0.03070   0.03290
 Alpha virt. eigenvalues --    0.04669   0.04800   0.05058   0.05239   0.06118

 Mulliken charges:
               1
     1  Mg   0.838616
     2  C   -0.003037
     3  C   -0.094316
     4  C   -0.045826
     5  C   -0.063900
     6  N   -0.256765
     7  C   -0.052509
     8  C   -0.013983
     9  C   -0.086971
    10  C    0.046244
    11  C    0.104807
    12  C    0.053548
    13  C   -0.071656
    14  H    0.035783
    15  N   -0.433138
    16  C    0.168336
    17  C   -0.177300
    18  C   -0.004035
    19  C    0.148660
    20  C    0.110210
    21  C    0.012243
    22  O   -0.249496
    23  C    0.062528
    24  N   -0.341152
    25  C    0.041219
    26  C   -0.028187
    27  C   -0.024017
    28  C    0.074877
    29  C    0.076132
    30  C    0.035102
    31  C   -0.004510
    32  N   -0.310505
    33  C    0.080444
    34  C   -0.169570
    35  C    0.008450
    36  C    0.082977
    37  C    0.127277
    38  C    0.046224
    39  O   -0.188132
    40  C   -0.005353
    41  C    0.212938
    42  O   -0.257178
    43  O   -0.304773
    44  C    0.157645
    45  H   -0.017665
    46  H   -0.016762
    47  H   -0.041341
    48  H    0.001044
    49  H   -0.004231
    50  H    0.025563
    51  H    0.016520
    52  H    0.016641
    53  H    0.010889
    54  H    0.044069
    55  H    0.018081
    56  H    0.017728
    57  H    0.005767
    58  H    0.026890
    59  H    0.039175
    60  H    0.037360
    61  H    0.035732
    62  H    0.031178
    63  H    0.016595
    64  H    0.009566
    65  H    0.023293
    66  H    0.012552
    67  H    0.004833
    68  H    0.006458
    69  H    0.004822
    70  H    0.008812
    71  H    0.018146
    72  H    0.028889
    73  H    0.047798
    74  H    0.009190
    75  H    0.046115
    76  H    0.035229
    77  H    0.043180
    78  H    0.046193
    79  H    0.053739
    80  Mg   0.837978
    81  C   -0.016779
    82  C   -0.087793
    83  C   -0.045510
    84  C   -0.064736
    85  N   -0.254547
    86  C   -0.049630
    87  C   -0.015105
    88  C   -0.090575
    89  C    0.045831
    90  C    0.114381
    91  C    0.062547
    92  C   -0.077755
    93  H    0.034673
    94  N   -0.423481
    95  C    0.162880
    96  C   -0.174754
    97  C   -0.007918
    98  C    0.152100
    99  C    0.099452
   100  C    0.015481
   101  O   -0.253270
   102  C    0.061254
   103  N   -0.350014
   104  C    0.037560
   105  C   -0.019854
   106  C   -0.034833
   107  C    0.088989
   108  C    0.073636
   109  C    0.034734
   110  C   -0.007640
   111  N   -0.324183
   112  C    0.078567
   113  C   -0.162946
   114  C    0.002467
   115  C    0.096225
   116  C    0.131424
   117  C    0.042608
   118  O   -0.187609
   119  C    0.000839
   120  C    0.211202
   121  O   -0.251193
   122  O   -0.305466
   123  C    0.152095
   124  H   -0.019941
   125  H   -0.015669
   126  H   -0.040401
   127  H   -0.000393
   128  H   -0.004690
   129  H    0.023201
   130  H    0.014604
   131  H    0.015939
   132  H    0.013769
   133  H    0.037649
   134  H    0.020865
   135  H    0.019349
   136  H    0.008536
   137  H    0.025847
   138  H    0.039542
   139  H    0.038081
   140  H    0.036228
   141  H    0.033782
   142  H    0.014245
   143  H    0.012575
   144  H    0.024976
   145  H    0.011850
   146  H    0.005762
   147  H    0.006160
   148  H    0.003661
   149  H    0.010847
   150  H    0.017819
   151  H    0.030122
   152  H    0.045942
   153  H    0.008393
   154  H    0.047599
   155  H    0.035657
   156  H    0.043986
   157  H    0.049331
   158  H    0.053446
 Sum of Mulliken charges =  -0.00000

 Dipole moment (field-independent basis, Debye):
    X=             -4.3548    Y=             -2.2063    Z=             -7.5183  Tot=              8.9642
 Quadrupole moment (field-independent basis, Debye-Ang):
   XX=           -521.4029   YY=           -550.9025   ZZ=           -447.7833
   XY=             -6.3622   XZ=              2.0288   YZ=            -48.8934

 Normal termination of Gaussian 16 at Sun Sep 12 06:25:21 2021.
