 Gaussian 16, Revision A.03,
 Gaussian 16:  ES64L-G16RevA.03 25-Dec-2016

 -----------------------------------
 #p cam-b3lyp/Def2SVP td=(nstates=5)
 -----------------------------------

 --------------------------------
 TDDFT excited states in gaussian
 --------------------------------
 Symbolic Z-matrix:
 Charge =  0 Multiplicity = 1

                         Standard orientation:
 ---------------------------------------------------------------------
 Center     Atomic      Atomic             Coordinates (Angstroms)
 Number     Number       Type             X           Y           Z
 ---------------------------------------------------------------------
      1         12           0        4.480862   -0.558768    1.048984
      2          6           0        5.123575    2.325902   -0.970375
      3          6           0        4.679853    1.487360    3.772370
      4          6           0        4.368333   -3.152437    2.870203
      5          6           0        5.450251   -2.500946   -1.677532
      6          7           0        4.856667    1.613830    1.247060
      7          6           0        5.027974    2.617332    0.392187
      8          6           0        5.020803    4.018065    1.074293
      9          6           0        5.446173    3.582648    2.547884
     10          6           0        4.932917    2.153534    2.536570
     11          6           0        6.955794    3.560671    2.764821
     12          6           0        3.601543    4.679286    1.059510
     13          6           0        3.571740    6.170368    1.407564
     14          1           0        2.612703    7.028862    0.728901
     15          7           0        4.039906   -0.761412    2.964015
     16          6           0        4.167233    0.181334    3.928537
     17          6           0        3.710557   -0.454701    5.182964
     18          6           0        3.486910   -1.900627    4.904797
     19          6           0        3.987643   -2.002515    3.557852
     20          6           0        3.483905    0.303446    6.454809
     21          6           0        2.922663   -3.016043    5.726748
     22          8           0        3.032109   -4.241039    5.377491
     23          6           0        2.307903   -2.638790    7.012358
     24          7           0        5.061900   -2.539336    0.736928
     25          6           0        4.848494   -3.475896    1.667678
     26          6           0        5.082068   -4.852795    1.120384
     27          6           0        5.266058   -4.676593   -0.455957
     28          6           0        5.182332   -3.132101   -0.532137
     29          6           0        6.290711   -5.604975    1.694333
     30          6           0        4.334952   -5.511720   -1.370301
     31          6           0        2.907964   -5.032676   -1.224284
     32          7           0        4.998795   -0.196269   -1.027403
     33          6           0        5.392939   -1.150043   -1.976950
     34          6           0        5.743509   -0.416012   -3.206733
     35          6           0        5.543495    0.923741   -2.879775
     36          6           0        5.121506    1.022294   -1.523123
     37          6           0        6.237843   -0.993303   -4.409564
     38          6           0        5.611773    2.296640   -3.353424
     39          8           0        5.816046    2.827901   -4.445910
     40          6           0        5.460004    3.267207   -2.100111
     41          6           0        4.449488    4.321529   -2.461462
     42          8           0        3.250623    4.024275   -2.639589
     43          8           0        4.999683    5.535745   -2.308145
     44          6           0        4.040367    6.628104   -2.622181
     45          1           0        4.952642    1.984315    4.705409
     46          1           0        4.238282   -4.081539    3.429037
     47          1           0        5.680010   -3.045962   -2.594931
     48          1           0        5.746828    4.723941    0.670496
     49          1           0        4.928518    4.165172    3.309737
     50          1           0        7.494805    3.723406    1.831598
     51          1           0        7.177932    2.571311    3.165215
     52          1           0        7.246037    4.269890    3.540414
     53          1           0        3.012172    4.283857    1.886757
     54          1           0        3.113594    4.524003    0.096640
     55          1           0        4.569595    6.608339    1.370455
     56          1           0        3.269995    6.271774    2.450093
     57          1           0        3.890618    1.312333    6.397570
     58          1           0        4.077628   -0.185366    7.226991
     59          1           0        2.433791    0.309631    6.747308
     60          1           0        3.049647   -2.133802    7.631512
     61          1           0        1.879801   -3.553507    7.420857
     62          1           0        1.517622   -1.911061    6.825771
     63          1           0        4.226271   -5.499372    1.310058
     64          1           0        6.270768   -4.945372   -0.783050
     65          1           0        6.036787   -6.567983    2.138003
     66          1           0        6.777543   -4.955625    2.421403
     67          1           0        7.099018   -5.780248    0.984870
     68          1           0        4.353292   -6.559972   -1.074030
     69          1           0        4.607752   -5.460186   -2.424424
     70          1           0        2.562236   -5.564095   -0.338339
     71          1           0        2.321583   -5.311489   -2.100430
     72          1           0        2.866855   -3.966323   -1.001377
     73          1           0        5.707341   -0.501138   -5.224616
     74          1           0        6.077734   -2.071117   -4.426468
     75          1           0        7.292995   -0.728911   -4.341676
     76          1           0        6.445403    3.692132   -1.911566
     77          1           0        4.502680    7.250976   -3.388034
     78          1           0        3.785550    7.099202   -1.672686
     79          1           0        3.120004    6.331234   -3.126304
     80         12           0       -4.251622   -0.722883   -1.072076
     81          6           0       -6.146618    1.546199    0.962464
     82          6           0       -3.524348    1.929215   -3.090021
     83          6           0       -2.954443   -2.766638   -3.123359
     84          6           0       -6.030948   -3.324048    0.415746
     85          7           0       -4.819783    1.412387   -0.971607
     86          6           0       -5.492062    2.171309   -0.119306
     87          6           0       -5.394426    3.694965   -0.399475
     88          6           0       -5.052444    3.629761   -1.967179
     89          6           0       -4.391117    2.253928   -2.016065
     90          6           0       -6.287666    3.597673   -2.851774
     91          6           0       -4.239191    4.379194    0.412471
     92          6           0       -4.281465    5.908831    0.426357
     93          1           0       -3.855558    6.605928    1.636785
     94          7           0       -2.975358   -0.413253   -2.559981
     95          6           0       -2.794527    0.731109   -3.252081
     96          6           0       -1.758317    0.436021   -4.253752
     97          6           0       -1.460101   -1.021160   -4.204878
     98          6           0       -2.489085   -1.470228   -3.288573
     99          6           0       -1.099639    1.501304   -5.081245
    100          6           0       -0.428622   -1.871925   -4.881969
    101          8           0       -0.502952   -3.151489   -4.877874
    102          6           0        0.619559   -1.161462   -5.629005
    103          7           0       -4.605454   -2.731444   -1.475560
    104          6           0       -3.864572   -3.395907   -2.379720
    105          6           0       -4.113486   -4.883312   -2.301800
    106          6           0       -4.999178   -5.102461   -0.988370
    107          6           0       -5.192404   -3.629820   -0.564827
    108          6           0       -4.825221   -5.502587   -3.504428
    109          6           0       -4.460018   -6.109611    0.064072
    110          6           0       -3.198493   -5.568445    0.697389
    111          7           0       -5.673153   -0.909916    0.544194
    112          6           0       -6.313517   -2.088854    0.984788
    113          6           0       -7.277633   -1.695075    2.032577
    114          6           0       -7.146703   -0.300500    2.113339
    115          6           0       -6.184501    0.145753    1.167545
    116          6           0       -8.156065   -2.573574    2.727345
    117          6           0       -7.611354    0.896730    2.776229
    118          8           0       -8.359164    1.129797    3.725018
    119          6           0       -7.076204    2.159383    1.972655
    120          6           0       -6.492639    3.127989    2.964510
    121          8           0       -5.477587    2.828931    3.617843
    122          8           0       -7.095592    4.322256    2.821212
    123          6           0       -6.543005    5.319621    3.776069
    124          1           0       -3.424247    2.641461   -3.909502
    125          1           0       -2.458330   -3.526748   -3.731312
    126          1           0       -6.553110   -4.087352    0.996609
    127          1           0       -6.314097    4.245615   -0.242128
    128          1           0       -4.343515    4.403829   -2.249324
    129          1           0       -7.194958    3.504472   -2.273607
    130          1           0       -6.162718    2.740590   -3.500504
    131          1           0       -6.304167    4.472518   -3.508057
    132          1           0       -3.289363    4.222275   -0.114738
    133          1           0       -4.210050    4.009353    1.418945
    134          1           0       -5.246094    6.297698    0.078182
    135          1           0       -3.561745    6.282532   -0.306002
    136          1           0       -1.640854    2.453287   -5.016227
    137          1           0       -1.202791    1.201273   -6.129669
    138          1           0       -0.038781    1.618584   -4.849948
    139          1           0        0.160100   -0.544093   -6.397255
    140          1           0        1.312666   -1.934392   -5.966714
    141          1           0        1.135963   -0.479434   -4.944319
    142          1           0       -3.182552   -5.425992   -2.192479
    143          1           0       -5.998243   -5.493296   -1.231159
    144          1           0       -4.252909   -6.324386   -3.974718
    145          1           0       -5.025745   -4.719055   -4.223047
    146          1           0       -5.821945   -5.890697   -3.301658
    147          1           0       -4.185909   -7.051043   -0.418333
    148          1           0       -5.176550   -6.344161    0.844176
    149          1           0       -2.422216   -5.847543   -0.021361
    150          1           0       -3.025756   -6.034053    1.665591
    151          1           0       -3.222152   -4.473695    0.748513
    152          1           0       -8.124057   -2.285659    3.769734
    153          1           0       -7.866864   -3.613718    2.592323
    154          1           0       -9.099939   -2.341664    2.226771
    155          1           0       -7.921981    2.586415    1.432410
    156          1           0       -7.387493    5.716321    4.348042
    157          1           0       -5.970281    6.037851    3.159729
    158          1           0       -5.903554    4.952379    4.570229
 ---------------------------------------------------------------------

 SCF Done:  E(RCAM-B3LYP) =  -4069.81340952     A.U. after   18 cycles

 Excitation energies and oscillator strengths:

 Excited State   1:      Singlet-A      1.6452 eV  753.61 nm  f=0.0555  <S**2>=0.000
     309 -> 315        0.11588
     310 -> 316       -0.11978
     311 -> 313       -0.47688
     312 -> 314        0.49567
 This state for optimization and/or second-order correction.
 Total Energy, E(TD-HF/TD-DFT) =  -4069.75294942
 Copying the excited state density for this state as the 1-particle RhoCI density.

 Excited State   2:      Singlet-A      1.7056 eV  726.94 nm  f=0.6583  <S**2>=0.000
     309 -> 315       -0.13146
     310 -> 316       -0.12554
     311 -> 313        0.49297
     312 -> 314        0.47449

 Excited State   3:      Singlet-A      2.1857 eV  567.25 nm  f=0.0048  <S**2>=0.000
     309 -> 313        0.39793
     310 -> 314        0.50643
     311 -> 315        0.16715
     312 -> 316        0.21340

 Excited State   4:      Singlet-A      2.1974 eV  564.24 nm  f=0.1708  <S**2>=0.000
     309 -> 313        0.50280
     310 -> 314       -0.39416
     311 -> 315        0.22181
     312 -> 316       -0.17368

 Excited State   5:      Singlet-A      2.4033 eV  515.89 nm  f=0.0000  <S**2>=0.000
     312 -> 313        0.70697

 The electronic state is 1-A.
 Alpha  occ. eigenvalues --  -46.87783 -46.87409 -19.26535 -19.26269 -19.19298
 Alpha  occ. eigenvalues --  -19.19065 -19.18745 -19.18391 -19.18283 -19.17841
 Alpha  occ. eigenvalues --  -14.42445 -14.42248 -14.41418 -14.41112 -14.39384
 Alpha  occ. eigenvalues --  -14.39085 -14.38599 -14.38353 -10.39332 -10.38986
 Alpha  occ. eigenvalues --  -10.35371 -10.35052 -10.34508 -10.34027 -10.31958
 Alpha  occ. eigenvalues --  -10.31723 -10.31430 -10.31075 -10.30909 -10.30749
 Alpha  occ. eigenvalues --  -10.30585 -10.30505 -10.30161 -10.30132 -10.30102
 Alpha  occ. eigenvalues --  -10.29904 -10.29864 -10.29689 -10.29628 -10.29223
 Alpha  occ. eigenvalues --  -10.29138 -10.29112 -10.28793 -10.28640 -10.28541
 Alpha  occ. eigenvalues --  -10.28511 -10.28378 -10.28142 -10.28133 -10.27915
 Alpha  occ. eigenvalues --  -10.27810 -10.27723 -10.27716 -10.27566 -10.27422
 Alpha  occ. eigenvalues --  -10.27394 -10.27385 -10.27363 -10.27352 -10.27311
 Alpha  occ. eigenvalues --  -10.27281 -10.27241 -10.27193 -10.27151 -10.26870
 Alpha  occ. eigenvalues --  -10.26802 -10.26780 -10.26514 -10.26265 -10.26256
 Alpha  occ. eigenvalues --  -10.25972 -10.25945 -10.25931 -10.25903 -10.25893
 Alpha  occ. eigenvalues --  -10.25823 -10.25679 -10.25653 -10.25358 -10.25242
 Alpha  occ. eigenvalues --  -10.24874 -10.24769 -10.24613 -10.24524 -10.24454
 Alpha  occ. eigenvalues --  -10.24302  -3.16526  -3.16160  -1.91407  -1.91043
 Alpha  occ. eigenvalues --   -1.90994  -1.90836  -1.90631  -1.90467  -1.16884
 Alpha  occ. eigenvalues --   -1.16558  -1.08762  -1.08466  -1.07142  -1.06910
 Alpha  occ. eigenvalues --   -1.06847  -1.06647  -1.04584  -1.04243  -1.03738
 Alpha  occ. eigenvalues --   -1.03412  -1.03226  -1.02786  -1.02402  -1.01858
 Alpha  occ. eigenvalues --   -0.92015  -0.91756  -0.89439  -0.89264  -0.89215
 Alpha  occ. eigenvalues --   -0.88937  -0.88199  -0.88006  -0.87903  -0.87667
 Alpha  occ. eigenvalues --   -0.87556  -0.87432  -0.87221  -0.86710  -0.85004
 Alpha  occ. eigenvalues --   -0.84777  -0.83841  -0.83674  -0.82867  -0.82653
 Alpha  occ. eigenvalues --   -0.82601  -0.82342  -0.81684  -0.81423  -0.80623
 Alpha  occ. eigenvalues --   -0.80214  -0.78770  -0.78292  -0.77195  -0.76965
 Alpha  occ. eigenvalues --   -0.76886  -0.76711  -0.75966  -0.75609  -0.74845
 Alpha  occ. eigenvalues --   -0.74588  -0.72767  -0.72444  -0.71675  -0.71356
 Alpha  occ. eigenvalues --   -0.69742  -0.69545  -0.68885  -0.68591  -0.67650
 Alpha  occ. eigenvalues --   -0.67360  -0.67233  -0.66940  -0.65323  -0.65058
 Alpha  occ. eigenvalues --   -0.64890  -0.64623  -0.64549  -0.64442  -0.64191
 Alpha  occ. eigenvalues --   -0.63985  -0.62406  -0.62116  -0.60390  -0.60006
 Alpha  occ. eigenvalues --   -0.59826  -0.59563  -0.58992  -0.58762  -0.58517
 Alpha  occ. eigenvalues --   -0.58193  -0.57710  -0.57377  -0.57282  -0.56980
 Alpha  occ. eigenvalues --   -0.56342  -0.56101  -0.55946  -0.55702  -0.55513
 Alpha  occ. eigenvalues --   -0.55337  -0.55175  -0.55049  -0.54537  -0.54315
 Alpha  occ. eigenvalues --   -0.53930  -0.53698  -0.53282  -0.53232  -0.52986
 Alpha  occ. eigenvalues --   -0.52974  -0.52880  -0.52710  -0.52686  -0.52263
 Alpha  occ. eigenvalues --   -0.52247  -0.52188  -0.51969  -0.51674  -0.51639
 Alpha  occ. eigenvalues --   -0.51389  -0.51211  -0.50986  -0.50467  -0.50046
 Alpha  occ. eigenvalues --   -0.49944  -0.49851  -0.49653  -0.49596  -0.49522
 Alpha  occ. eigenvalues --   -0.49245  -0.49199  -0.49136  -0.48918  -0.48891
 Alpha  occ. eigenvalues --   -0.48668  -0.48464  -0.48391  -0.48347  -0.48181
 Alpha  occ. eigenvalues --   -0.48004  -0.47678  -0.47319  -0.47277  -0.46809
 Alpha  occ. eigenvalues --   -0.46773  -0.46588  -0.46479  -0.46362  -0.46320
 Alpha  occ. eigenvalues --   -0.46164  -0.46000  -0.45908  -0.45868  -0.45644
 Alpha  occ. eigenvalues --   -0.45130  -0.44994  -0.44646  -0.44463  -0.44310
 Alpha  occ. eigenvalues --   -0.44244  -0.44168  -0.44047  -0.44002  -0.43906
 Alpha  occ. eigenvalues --   -0.43836  -0.43599  -0.43580  -0.43390  -0.43372
 Alpha  occ. eigenvalues --   -0.43167  -0.43037  -0.42876  -0.42777  -0.42676
 Alpha  occ. eigenvalues --   -0.42539  -0.42299  -0.41939  -0.41755  -0.41717
 Alpha  occ. eigenvalues --   -0.41536  -0.41448  -0.41244  -0.41145  -0.40856
 Alpha  occ. eigenvalues --   -0.40766  -0.40764  -0.40498  -0.40476  -0.40406
 Alpha  occ. eigenvalues --   -0.40288  -0.40268  -0.39993  -0.39251  -0.39214
 Alpha  occ. eigenvalues --   -0.38394  -0.38148  -0.37795  -0.37467  -0.37298
 Alpha  occ. eigenvalues --   -0.37258  -0.37042  -0.36960  -0.36882  -0.36651
 Alpha  occ. eigenvalues --   -0.36206  -0.36021  -0.34291  -0.34015  -0.34003
 Alpha  occ. eigenvalues --   -0.33738  -0.33191  -0.32926  -0.31278  -0.31033
 Alpha  occ. eigenvalues --   -0.30961  -0.30726  -0.30149  -0.29756  -0.29451
 Alpha  occ. eigenvalues --   -0.29338  -0.29035  -0.28937  -0.24077  -0.23790
 Alpha  occ. eigenvalues --   -0.21117  -0.20852
 Alpha virt. eigenvalues --   -0.08768  -0.08514  -0.01724  -0.01432  -0.00040
 Alpha virt. eigenvalues --    0.00280   0.02154   0.02433   0.02841   0.03747
 Alpha virt. eigenvalues --    0.04706   0.04874   0.04947   0.05285   0.06101

 Mulliken charges:
               1
     1  Mg   0.839261
     2  C   -0.003924
     3  C   -0.093615
     4  C   -0.045462
     5  C   -0.062641
     6  N   -0.256987
     7  C   -0.052650
     8  C   -0.014208
     9  C   -0.087157
    10  C    0.046685
    11  C    0.104747
    12  C    0.053299
    13  C   -0.071370
    14  H    0.033927
    15  N   -0.433377
    16  C    0.169217
    17  C   -0.176126
    18  C   -0.003211
    19  C    0.149098
    20  C    0.109912
    21  C    0.013033
    22  O   -0.249374
    23  C    0.061879
    24  N   -0.341399
    25  C    0.041936
    26  C   -0.028176
    27  C   -0.023960
    28  C    0.075100
    29  C    0.076235
    30  C    0.034790
    31  C   -0.006014
    32  N   -0.309676
    33  C    0.079338
    34  C   -0.172230
    35  C    0.006286
    36  C    0.081500
    37  C    0.127739
    38  C    0.043210
    39  O   -0.190613
    40  C   -0.004450
    41  C    0.213074
    42  O   -0.260903
    43  O   -0.303799
    44  C    0.158393
    45  H   -0.017283
    46  H   -0.016349
    47  H   -0.040773
    48  H    0.000440
    49  H   -0.003564
    50  H    0.025281
    51  H    0.016758
    52  H    0.016846
    53  H    0.012701
    54  H    0.042361
    55  H    0.017969
    56  H    0.019025
    57  H    0.005974
    58  H    0.026931
    59  H    0.042165
    60  H    0.037125
    61  H    0.036065
    62  H    0.033806
    63  H    0.017158
    64  H    0.008991
    65  H    0.023248
    66  H    0.012142
    67  H    0.004782
    68  H    0.005594
    69  H    0.005612
    70  H    0.006621
    71  H    0.026995
    72  H    0.028013
    73  H    0.044717
    74  H    0.010566
    75  H    0.046136
    76  H    0.035456
    77  H    0.043076
    78  H    0.047153
    79  H    0.050955
    80  Mg   0.836903
    81  C   -0.017107
    82  C   -0.084772
    83  C   -0.046026
    84  C   -0.065052
    85  N   -0.254496
    86  C   -0.050763
    87  C   -0.015080
    88  C   -0.090748
    89  C    0.045489
    90  C    0.114402
    91  C    0.061917
    92  C   -0.077097
    93  H    0.032089
    94  N   -0.423919
    95  C    0.163480
    96  C   -0.171403
    97  C   -0.007703
    98  C    0.151986
    99  C    0.097417
   100  C    0.015599
   101  O   -0.256376
   102  C    0.059361
   103  N   -0.350094
   104  C    0.038059
   105  C   -0.019740
   106  C   -0.034397
   107  C    0.088357
   108  C    0.073954
   109  C    0.034898
   110  C   -0.007430
   111  N   -0.323726
   112  C    0.077429
   113  C   -0.164124
   114  C    0.001659
   115  C    0.095318
   116  C    0.131735
   117  C    0.041424
   118  O   -0.189692
   119  C    0.001116
   120  C    0.211268
   121  O   -0.252164
   122  O   -0.305374
   123  C    0.152498
   124  H   -0.018851
   125  H   -0.016435
   126  H   -0.041300
   127  H   -0.001453
   128  H   -0.003359
   129  H    0.021972
   130  H    0.014566
   131  H    0.016081
   132  H    0.016116
   133  H    0.036494
   134  H    0.020499
   135  H    0.020172
   136  H    0.008756
   137  H    0.024479
   138  H    0.054663
   139  H    0.038935
   140  H    0.032761
   141  H    0.043509
   142  H    0.013590
   143  H    0.011774
   144  H    0.024272
   145  H    0.011740
   146  H    0.005360
   147  H    0.005333
   148  H    0.003292
   149  H    0.010290
   150  H    0.018569
   151  H    0.030284
   152  H    0.044855
   153  H    0.008028
   154  H    0.046204
   155  H    0.034560
   156  H    0.043417
   157  H    0.049366
   158  H    0.052357
 Sum of Mulliken charges =  -0.00000

 Dipole moment (field-independent basis, Debye):
    X=              2.2501    Y=              3.0903    Z=              0.5065  Tot=              3.8561
 Quadrupole moment (field-independent basis, Debye-Ang):
   XX=           -523.9842   YY=           -462.8697   ZZ=           -521.0059
   XY=              3.4454   XZ=             47.3364   YZ=             14.6140

 Normal termination of Gaussian 16 at Thu Sep  9 15:51:30 2021.
