 Gaussian 16, Revision A.03,
 Gaussian 16:  ES64L-G16RevA.03 25-Dec-2016

 -----------------------------------
 #p cam-b3lyp/Def2SVP td=(nstates=5)
 -----------------------------------

 --------------------------------
 TDDFT excited states in gaussian
 --------------------------------
 Symbolic Z-matrix:
 Charge =  0 Multiplicity = 1

                         Standard orientation:
 ---------------------------------------------------------------------
 Center     Atomic      Atomic             Coordinates (Angstroms)
 Number     Number       Type             X           Y           Z
 ---------------------------------------------------------------------
      1         12           0       -3.933641   -0.324467    0.368990
      2          6           0       -3.740718    3.243736    0.161818
      3          6           0       -5.061420   -0.301707   -2.851361
      4          6           0       -4.542809   -3.421528    0.675169
      5          6           0       -3.891422    0.022078    3.836523
      6          7           0       -4.309573    1.324962   -1.058843
      7          6           0       -4.138587    2.643047   -1.034643
      8          6           0       -4.349117    3.318937   -2.422527
      9          6           0       -5.288085    2.221187   -3.097273
     10          6           0       -4.835907    1.000767   -2.314948
     11          6           0       -6.773985    2.447953   -2.838080
     12          6           0       -3.007061    3.487864   -3.211249
     13          6           0       -3.073686    4.424320   -4.421194
     14          1           0       -1.916097    5.248998   -4.733030
     15          7           0       -4.220058   -1.715728   -1.004039
     16          6           0       -4.667843   -1.525695   -2.268421
     17          6           0       -4.709699   -2.865995   -2.891740
     18          6           0       -4.431205   -3.871127   -1.828611
     19          6           0       -4.412545   -3.033972   -0.656348
     20          6           0       -4.942721   -3.086039   -4.354966
     21          6           0       -4.226437   -5.352703   -1.862327
     22          8           0       -4.227968   -6.063898   -0.799890
     23          6           0       -4.110798   -5.969709   -3.196109
     24          7           0       -4.404141   -1.523558    2.011684
     25          6           0       -4.561935   -2.845076    1.878740
     26          6           0       -4.610693   -3.526234    3.214250
     27          6           0       -4.207929   -2.417815    4.290791
     28          6           0       -4.069631   -1.203884    3.339205
     29          6           0       -5.960758   -4.146015    3.600522
     30          6           0       -3.026929   -2.752180    5.236231
     31          6           0       -1.739724   -2.820090    4.445288
     32          7           0       -3.657181    1.303797    1.777313
     33          6           0       -3.701045    1.224728    3.176776
     34          6           0       -3.567145    2.599914    3.691559
     35          6           0       -3.470707    3.390347    2.547986
     36          6           0       -3.566338    2.564281    1.391802
     37          6           0       -3.604745    2.984508    5.060905
     38          6           0       -3.333854    4.743340    2.033653
     39          8           0       -3.117592    5.845571    2.539429
     40          6           0       -3.625459    4.716243    0.468386
     41          6           0       -2.530590    5.492413   -0.211415
     42          8           0       -1.355110    5.073352   -0.212449
     43          8           0       -3.073137    6.472841   -0.949620
     44          6           0       -2.042303    7.263067   -1.674242
     45          1           0       -5.642815   -0.400760   -3.770116
     46          1           0       -4.643527   -4.497982    0.828602
     47          1           0       -3.785065    0.198523    4.908441
     48          1           0       -4.864664    4.278822   -2.387071
     49          1           0       -5.069043    2.094335   -4.157297
     50          1           0       -6.935131    3.254947   -2.123439
     51          1           0       -7.146865    1.504930   -2.437879
     52          1           0       -7.310170    2.609330   -3.773623
     53          1           0       -2.765552    2.551590   -3.714366
     54          1           0       -2.207115    3.814729   -2.545990
     55          1           0       -3.980953    5.028963   -4.407744
     56          1           0       -3.167632    3.814842   -5.320032
     57          1           0       -5.279691   -2.175188   -4.848266
     58          1           0       -5.785867   -3.770836   -4.443660
     59          1           0       -4.069777   -3.511667   -4.850084
     60          1           0       -5.015473   -5.762550   -3.768120
     61          1           0       -3.879028   -7.019946   -3.022517
     62          1           0       -3.291344   -5.493759   -3.735475
     63          1           0       -3.895451   -4.346383    3.261269
     64          1           0       -5.031597   -2.185275    4.966195
     65          1           0       -5.905068   -5.211300    3.825848
     66          1           0       -6.663864   -3.953849    2.790580
     67          1           0       -6.461018   -3.664792    4.440512
     68          1           0       -3.173439   -3.729436    5.694981
     69          1           0       -2.898573   -2.025192    6.038269
     70          1           0       -1.749407   -3.835719    4.051288
     71          1           0       -0.882045   -2.663612    5.100354
     72          1           0       -1.759511   -2.139948    3.593524
     73          1           0       -2.804932    3.712661    5.195298
     74          1           0       -3.472228    2.124843    5.717425
     75          1           0       -4.607086    3.407765    5.124321
     76          1           0       -4.603063    5.175011    0.323665
     77          1           0       -2.182802    8.307163   -1.394317
     78          1           0       -2.138488    7.004637   -2.728931
     79          1           0       -1.008387    7.104604   -1.365623
     80         12           0        3.935649   -1.232051   -0.240868
     81          6           0        4.187428    2.280003    0.452752
     82          6           0        2.907407   -0.386072   -3.381193
     83          6           0        3.272934   -4.294362   -0.741375
     84          6           0        3.867903   -1.765843    3.202408
     85          7           0        3.627427    0.727576   -1.219196
     86          6           0        3.814276    1.993390   -0.876930
     87          6           0        3.666550    3.004227   -2.045662
     88          6           0        2.724324    2.126450   -3.005139
     89          6           0        3.131253    0.730771   -2.537004
     90          6           0        1.242056    2.310771   -2.725407
     91          6           0        5.039814    3.330254   -2.731125
     92          6           0        5.018425    4.536776   -3.672198
     93          1           0        6.203620    5.387119   -3.740747
     94          7           0        3.673920   -2.228861   -1.936882
     95          6           0        3.275040   -1.725042   -3.123606
     96          6           0        3.217851   -2.868529   -4.047365
     97          6           0        3.456260   -4.113627   -3.267875
     98          6           0        3.456309   -3.584161   -1.918896
     99          6           0        3.036160   -2.709406   -5.528957
    100          6           0        3.639477   -5.545956   -3.669207
    101          8           0        3.596093   -6.496635   -2.810627
    102          6           0        3.777925   -5.810884   -5.108694
    103          7           0        3.403761   -2.786143    1.033591
    104          6           0        3.223658   -4.033537    0.565089
    105          6           0        3.119655   -5.030654    1.694390
    106          6           0        3.510918   -4.222959    3.018072
    107          6           0        3.694926   -2.815052    2.410323
    108          6           0        1.749846   -5.682334    1.882391
    109          6           0        4.657609   -4.808665    3.886808
    110          6           0        5.968629   -4.719216    3.139407
    111          7           0        4.196209   -0.017364    1.526806
    112          6           0        4.101605   -0.437137    2.871775
    113          6           0        4.240968    0.767975    3.714809
    114          6           0        4.385086    1.816656    2.793955
    115          6           0        4.318577    1.304099    1.470180
    116          6           0        4.176886    0.800672    5.136414
    117          6           0        4.567716    3.242078    2.640633
    118          8           0        4.777545    4.178743    3.410292
    119          6           0        4.321200    3.622163    1.117095
    120          6           0        5.447561    4.514638    0.672902
    121          8           0        6.611465    4.080756    0.612225
    122          8           0        4.936484    5.660965    0.188022
    123          6           0        6.014548    6.574589   -0.275538
    124          1           0        2.360749   -0.231642   -4.311890
    125          1           0        3.151213   -5.373954   -0.855982
    126          1           0        3.955682   -1.861210    4.286788
    127          1           0        3.170573    3.931337   -1.784445
    128          1           0        2.983762    2.268553   -4.051012
    129          1           0        1.069899    2.913750   -1.846249
    130          1           0        0.843083    1.314697   -2.585076
    131          1           0        0.739215    2.715188   -3.608544
    132          1           0        5.278897    2.535731   -3.449680
    133          1           0        5.811247    3.458318   -1.996872
    134          1           0        4.115625    5.145669   -3.541303
    135          1           0        4.950001    4.173604   -4.700523
    136          1           0        2.722215   -1.690874   -5.788621
    137          1           0        2.185751   -3.337279   -5.816073
    138          1           0        3.914593   -3.022816   -6.097103
    139          1           0        2.897285   -5.443095   -5.629910
    140          1           0        3.989023   -6.878900   -5.190292
    141          1           0        4.631010   -5.238218   -5.489364
    142          1           0        3.822136   -5.843732    1.558307
    143          1           0        2.665680   -4.154816    3.718622
    144          1           0        1.781730   -6.787176    1.833600
    145          1           0        1.078209   -5.287772    1.131548
    146          1           0        1.238700   -5.424025    2.808248
    147          1           0        4.482242   -5.869843    4.079959
    148          1           0        4.763457   -4.319348    4.849275
    149          1           0        5.949552   -5.607208    2.500511
    150          1           0        6.807291   -4.749281    3.832075
    151          1           0        5.988450   -3.841353    2.483196
    152          1           0        4.975470    1.450300    5.469199
    153          1           0        4.271063   -0.196348    5.561673
    154          1           0        3.174520    1.213905    5.277009
    155          1           0        3.354059    4.122713    1.056685
    156          1           0        5.878404    7.523324    0.252710
    157          1           0        5.934042    6.596186   -1.378624
    158          1           0        7.033712    6.325648   -0.003940
 ---------------------------------------------------------------------

 SCF Done:  E(RCAM-B3LYP) =  -4069.81230587     A.U. after   19 cycles

 Excitation energies and oscillator strengths:

 Excited State   1:      Singlet-A      1.6386 eV  756.63 nm  f=0.0087  <S**2>=0.000
     309 -> 315       -0.11260
     310 -> 316        0.11963
     311 -> 313       -0.46834
     312 -> 314        0.50432
 This state for optimization and/or second-order correction.
 Total Energy, E(TD-HF/TD-DFT) =  -4069.75208700
 Copying the excited state density for this state as the 1-particle RhoCI density.

 Excited State   2:      Singlet-A      1.7097 eV  725.20 nm  f=0.6712  <S**2>=0.000
     309 -> 315        0.13480
     310 -> 316        0.12311
     311 -> 313        0.50098
     312 -> 314        0.46524

 Excited State   3:      Singlet-A      2.1765 eV  569.64 nm  f=0.0174  <S**2>=0.000
     309 -> 313       -0.31129
     310 -> 314        0.56676
     311 -> 315        0.12641
     312 -> 316       -0.23175

 Excited State   4:      Singlet-A      2.1987 eV  563.90 nm  f=0.1510  <S**2>=0.000
     309 -> 313        0.55995
     310 -> 314        0.30505
     311 -> 315       -0.24913
     312 -> 316       -0.13729

 Excited State   5:      Singlet-A      2.2259 eV  557.00 nm  f=0.0000  <S**2>=0.000
     312 -> 313        0.70707

 The electronic state is 1-A.
 Alpha  occ. eigenvalues --  -46.87931 -46.87364 -19.26565 -19.25940 -19.19354
 Alpha  occ. eigenvalues --  -19.18875 -19.18774 -19.18505 -19.18280 -19.17668
 Alpha  occ. eigenvalues --  -14.42603 -14.42180 -14.41586 -14.41063 -14.39529
 Alpha  occ. eigenvalues --  -14.39065 -14.38714 -14.38292 -10.39383 -10.38688
 Alpha  occ. eigenvalues --  -10.35507 -10.35191 -10.34511 -10.33829 -10.31957
 Alpha  occ. eigenvalues --  -10.31567 -10.31410 -10.31081 -10.30962 -10.30708
 Alpha  occ. eigenvalues --  -10.30693 -10.30624 -10.30335 -10.30100 -10.30050
 Alpha  occ. eigenvalues --  -10.30046 -10.29892 -10.29746 -10.29590 -10.29373
 Alpha  occ. eigenvalues --  -10.29176 -10.29119 -10.29002 -10.28952 -10.28501
 Alpha  occ. eigenvalues --  -10.28400 -10.28333 -10.28283 -10.28086 -10.27906
 Alpha  occ. eigenvalues --  -10.27876 -10.27708 -10.27708 -10.27698 -10.27636
 Alpha  occ. eigenvalues --  -10.27626 -10.27574 -10.27558 -10.27376 -10.27338
 Alpha  occ. eigenvalues --  -10.27337 -10.27291 -10.27198 -10.27149 -10.27111
 Alpha  occ. eigenvalues --  -10.27080 -10.26558 -10.26436 -10.26415 -10.26373
 Alpha  occ. eigenvalues --  -10.26348 -10.26298 -10.26150 -10.25955 -10.25894
 Alpha  occ. eigenvalues --  -10.25664 -10.25595 -10.25540 -10.25373 -10.25093
 Alpha  occ. eigenvalues --  -10.24948 -10.24916 -10.24895 -10.24562 -10.24551
 Alpha  occ. eigenvalues --  -10.24386  -3.16673  -3.16114  -1.91554  -1.91142
 Alpha  occ. eigenvalues --   -1.90997  -1.90983  -1.90585  -1.90422  -1.16915
 Alpha  occ. eigenvalues --   -1.16240  -1.08746  -1.08259  -1.07270  -1.06943
 Alpha  occ. eigenvalues --   -1.06762  -1.06557  -1.04737  -1.04169  -1.03897
 Alpha  occ. eigenvalues --   -1.03360  -1.03360  -1.02748  -1.02542  -1.01809
 Alpha  occ. eigenvalues --   -0.92125  -0.91629  -0.89663  -0.89419  -0.89223
 Alpha  occ. eigenvalues --   -0.88749  -0.88427  -0.87976  -0.87952  -0.87840
 Alpha  occ. eigenvalues --   -0.87504  -0.87382  -0.87380  -0.86904  -0.85197
 Alpha  occ. eigenvalues --   -0.84656  -0.84086  -0.83610  -0.83067  -0.82830
 Alpha  occ. eigenvalues --   -0.82739  -0.82324  -0.81780  -0.81259  -0.80757
 Alpha  occ. eigenvalues --   -0.80130  -0.78914  -0.78385  -0.77390  -0.77143
 Alpha  occ. eigenvalues --   -0.76851  -0.76555  -0.76110  -0.75461  -0.75043
 Alpha  occ. eigenvalues --   -0.74499  -0.72906  -0.72403  -0.71825  -0.71232
 Alpha  occ. eigenvalues --   -0.70062  -0.69516  -0.69067  -0.68499  -0.67786
 Alpha  occ. eigenvalues --   -0.67435  -0.67309  -0.66921  -0.65498  -0.65019
 Alpha  occ. eigenvalues --   -0.64911  -0.64802  -0.64461  -0.64414  -0.64324
 Alpha  occ. eigenvalues --   -0.63927  -0.62504  -0.61934  -0.60556  -0.60095
 Alpha  occ. eigenvalues --   -0.59995  -0.59431  -0.59137  -0.58681  -0.58655
 Alpha  occ. eigenvalues --   -0.58107  -0.57772  -0.57450  -0.57169  -0.56935
 Alpha  occ. eigenvalues --   -0.56449  -0.56208  -0.55922  -0.55647  -0.55541
 Alpha  occ. eigenvalues --   -0.55508  -0.55171  -0.54947  -0.54721  -0.54174
 Alpha  occ. eigenvalues --   -0.54127  -0.53544  -0.53432  -0.53390  -0.53124
 Alpha  occ. eigenvalues --   -0.52962  -0.52892  -0.52834  -0.52603  -0.52596
 Alpha  occ. eigenvalues --   -0.52408  -0.52173  -0.52009  -0.51816  -0.51601
 Alpha  occ. eigenvalues --   -0.51355  -0.51338  -0.50882  -0.50675  -0.50294
 Alpha  occ. eigenvalues --   -0.50183  -0.50053  -0.49688  -0.49677  -0.49600
 Alpha  occ. eigenvalues --   -0.49371  -0.49277  -0.49183  -0.48877  -0.48773
 Alpha  occ. eigenvalues --   -0.48683  -0.48599  -0.48549  -0.48214  -0.48117
 Alpha  occ. eigenvalues --   -0.48055  -0.47859  -0.47440  -0.47291  -0.46960
 Alpha  occ. eigenvalues --   -0.46861  -0.46772  -0.46503  -0.46413  -0.46309
 Alpha  occ. eigenvalues --   -0.46217  -0.46002  -0.45983  -0.45779  -0.45480
 Alpha  occ. eigenvalues --   -0.45339  -0.44907  -0.44732  -0.44672  -0.44293
 Alpha  occ. eigenvalues --   -0.44273  -0.44198  -0.44169  -0.44156  -0.43823
 Alpha  occ. eigenvalues --   -0.43764  -0.43676  -0.43637  -0.43562  -0.43217
 Alpha  occ. eigenvalues --   -0.43177  -0.43054  -0.42926  -0.42819  -0.42601
 Alpha  occ. eigenvalues --   -0.42540  -0.42302  -0.42191  -0.41859  -0.41745
 Alpha  occ. eigenvalues --   -0.41679  -0.41317  -0.41297  -0.41138  -0.41078
 Alpha  occ. eigenvalues --   -0.40953  -0.40724  -0.40646  -0.40505  -0.40487
 Alpha  occ. eigenvalues --   -0.40385  -0.40182  -0.39909  -0.39608  -0.39197
 Alpha  occ. eigenvalues --   -0.38634  -0.38069  -0.38027  -0.37470  -0.37456
 Alpha  occ. eigenvalues --   -0.37349  -0.36982  -0.36960  -0.36870  -0.36416
 Alpha  occ. eigenvalues --   -0.36387  -0.35900  -0.34427  -0.34055  -0.33944
 Alpha  occ. eigenvalues --   -0.33489  -0.33331  -0.32875  -0.31412  -0.31178
 Alpha  occ. eigenvalues --   -0.31060  -0.30653  -0.30145  -0.29560  -0.29558
 Alpha  occ. eigenvalues --   -0.29433  -0.29066  -0.28900  -0.24223  -0.23721
 Alpha  occ. eigenvalues --   -0.21262  -0.20818
 Alpha virt. eigenvalues --   -0.08899  -0.08498  -0.01881  -0.01395  -0.00171
 Alpha virt. eigenvalues --    0.00243   0.02077   0.02387   0.02638   0.03623
 Alpha virt. eigenvalues --    0.04485   0.04739   0.05069   0.05564   0.05794

 Mulliken charges:
               1
     1  Mg   0.838643
     2  C   -0.004084
     3  C   -0.095303
     4  C   -0.045290
     5  C   -0.063486
     6  N   -0.256641
     7  C   -0.053437
     8  C   -0.013204
     9  C   -0.086858
    10  C    0.045969
    11  C    0.104785
    12  C    0.049761
    13  C   -0.072073
    14  H    0.033483
    15  N   -0.433368
    16  C    0.168600
    17  C   -0.177533
    18  C   -0.003175
    19  C    0.149132
    20  C    0.110341
    21  C    0.013736
    22  O   -0.248859
    23  C    0.062265
    24  N   -0.340883
    25  C    0.041130
    26  C   -0.028484
    27  C   -0.023867
    28  C    0.074628
    29  C    0.076059
    30  C    0.035086
    31  C   -0.006746
    32  N   -0.310738
    33  C    0.080624
    34  C   -0.168839
    35  C    0.008935
    36  C    0.083125
    37  C    0.126970
    38  C    0.046537
    39  O   -0.186970
    40  C   -0.006048
    41  C    0.214529
    42  O   -0.259467
    43  O   -0.304108
    44  C    0.157246
    45  H   -0.017814
    46  H   -0.016383
    47  H   -0.041137
    48  H    0.001286
    49  H   -0.004942
    50  H    0.025810
    51  H    0.017059
    52  H    0.016715
    53  H    0.010407
    54  H    0.045784
    55  H    0.019682
    56  H    0.017583
    57  H    0.005114
    58  H    0.027339
    59  H    0.038619
    60  H    0.036686
    61  H    0.037213
    62  H    0.031632
    63  H    0.016554
    64  H    0.009923
    65  H    0.023498
    66  H    0.012769
    67  H    0.004991
    68  H    0.006227
    69  H    0.005137
    70  H    0.009109
    71  H    0.016938
    72  H    0.031184
    73  H    0.049327
    74  H    0.009166
    75  H    0.046180
    76  H    0.035631
    77  H    0.044568
    78  H    0.045558
    79  H    0.053134
    80  Mg   0.836617
    81  C   -0.015481
    82  C   -0.088238
    83  C   -0.045840
    84  C   -0.066026
    85  N   -0.254981
    86  C   -0.046704
    87  C   -0.015444
    88  C   -0.091665
    89  C    0.046236
    90  C    0.107406
    91  C    0.062651
    92  C   -0.076790
    93  H    0.033363
    94  N   -0.423360
    95  C    0.162771
    96  C   -0.176321
    97  C   -0.008608
    98  C    0.151768
    99  C    0.100434
   100  C    0.014552
   101  O   -0.253413
   102  C    0.061649
   103  N   -0.350405
   104  C    0.037400
   105  C   -0.020013
   106  C   -0.034782
   107  C    0.089626
   108  C    0.073022
   109  C    0.034822
   110  C   -0.007457
   111  N   -0.324606
   112  C    0.079474
   113  C   -0.163306
   114  C    0.004054
   115  C    0.095729
   116  C    0.131051
   117  C    0.044007
   118  O   -0.186769
   119  C   -0.000597
   120  C    0.210206
   121  O   -0.252586
   122  O   -0.303606
   123  C    0.152563
   124  H   -0.021791
   125  H   -0.015892
   126  H   -0.041778
   127  H    0.004797
   128  H   -0.007303
   129  H    0.041990
   130  H    0.011078
   131  H    0.011784
   132  H    0.012723
   133  H    0.037281
   134  H    0.020684
   135  H    0.018120
   136  H    0.007640
   137  H    0.022887
   138  H    0.038994
   139  H    0.036364
   140  H    0.035717
   141  H    0.033750
   142  H    0.013760
   143  H    0.011592
   144  H    0.025123
   145  H    0.014214
   146  H    0.004888
   147  H    0.005693
   148  H    0.002781
   149  H    0.010809
   150  H    0.017298
   151  H    0.030519
   152  H    0.045826
   153  H    0.007132
   154  H    0.047780
   155  H    0.045752
   156  H    0.043802
   157  H    0.048377
   158  H    0.052536
 Sum of Mulliken charges =  -0.00000

 Dipole moment (field-independent basis, Debye):
    X=             -5.0951    Y=             -1.3821    Z=             -6.8176  Tot=              8.6226
 Quadrupole moment (field-independent basis, Debye-Ang):
   XX=           -519.4748   YY=           -547.4823   ZZ=           -451.6985
   XY=             -7.0667   XZ=             -0.9965   YZ=            -46.6801

 Normal termination of Gaussian 16 at Wed Sep  8 16:42:02 2021.
