 Gaussian 16, Revision A.03,
 Gaussian 16:  ES64L-G16RevA.03 25-Dec-2016

 -----------------------------------
 #p cam-b3lyp/Def2SVP td=(nstates=5)
 -----------------------------------

 --------------------------------
 TDDFT excited states in gaussian
 --------------------------------
 Symbolic Z-matrix:
 Charge =  0 Multiplicity = 1

                         Standard orientation:
 ---------------------------------------------------------------------
 Center     Atomic      Atomic             Coordinates (Angstroms)
 Number     Number       Type             X           Y           Z
 ---------------------------------------------------------------------
      1         12           0        6.826886    0.426273    0.878749
      2          6           0        7.227388   -2.530594   -1.098307
      3          6           0        8.019946    2.190763   -1.787005
      4          6           0        6.911834    2.985579    2.749406
      5          6           0        6.759046   -1.637889    3.685936
      6          7           0        7.502609   -0.202862   -1.133273
      7          6           0        7.549800   -1.359254   -1.787261
      8          6           0        7.901633   -1.201417   -3.296790
      9          6           0        8.663542    0.197650   -3.232731
     10          6           0        7.998528    0.780077   -1.998041
     11          6           0       10.159866    0.064984   -2.968312
     12          6           0        6.624810   -1.117623   -4.199250
     13          6           0        6.873244   -1.290703   -5.700476
     14          1           0        5.874557   -1.983794   -6.500224
     15          7           0        6.913836    2.345948    0.420343
     16          6           0        7.416913    2.885221   -0.716048
     17          6           0        7.253092    4.348554   -0.580031
     18          6           0        6.787969    4.627363    0.807059
     19          6           0        6.878910    3.316098    1.396713
     20          6           0        7.481825    5.310250   -1.705452
     21          6           0        6.343619    5.879158    1.495314
     22          8           0        6.202912    5.944336    2.764380
     23          6           0        6.160253    7.067814    0.642955
     24          7           0        7.054646    0.672270    2.939149
     25          6           0        6.996488    1.885190    3.499888
     26          6           0        6.900740    1.792014    4.993906
     27          6           0        6.659727    0.248852    5.326046
     28          6           0        6.745439   -0.318333    3.887565
     29          6           0        8.121090    2.297729    5.775577
     30          6           0        5.417544   -0.100176    6.183706
     31          6           0        4.155985    0.193439    5.403094
     32          7           0        6.787817   -1.711805    1.250423
     33          6           0        6.784555   -2.350648    2.498839
     34          6           0        6.865936   -3.800376    2.242458
     35          6           0        6.928004   -3.904010    0.854203
     36          6           0        6.914403   -2.600406    0.280858
     37          6           0        6.933337   -4.819384    3.233172
     38          6           0        7.027492   -4.811782   -0.277127
     39          8           0        6.983058   -6.035242   -0.413752
     40          6           0        7.348118   -3.954846   -1.580464
     41          6           0        6.412136   -4.411373   -2.666203
     42          8           0        5.184175   -4.206181   -2.580329
     43          8           0        7.125811   -4.800267   -3.733898
     44          6           0        6.256358   -5.237679   -4.858566
     45          1           0        8.599040    2.817592   -2.467944
     46          1           0        6.830760    3.836852    3.428522
     47          1           0        6.657441   -2.347054    4.509473
     48          1           0        8.566768   -1.969831   -3.691200
     49          1           0        8.452114    0.816464   -4.104562
     50          1           0       10.434135   -0.964588   -2.738792
     51          1           0       10.363173    0.712366   -2.115050
     52          1           0       10.737532    0.472822   -3.798219
     53          1           0        6.244999   -0.095992   -4.190627
     54          1           0        5.873668   -1.837699   -3.872750
     55          1           0        7.866879   -1.694872   -5.896042
     56          1           0        6.887371   -0.302575   -6.160479
     57          1           0        7.975480    4.829421   -2.549047
     58          1           0        8.202991    6.047325   -1.352818
     59          1           0        6.562970    5.811473   -2.010103
     60          1           0        7.100107    7.299440    0.141385
     61          1           0        5.755119    7.843512    1.291806
     62          1           0        5.443218    6.831030   -0.143647
     63          1           0        6.059642    2.373704    5.368894
     64          1           0        7.493970   -0.186086    5.876991
     65          1           0        7.885886    3.082697    6.494750
     66          1           0        8.865409    2.637065    5.055763
     67          1           0        8.673288    1.525563    6.310605
     68          1           0        5.390596    0.517286    7.080902
     69          1           0        5.391096   -1.143544    6.498246
     70          1           0        4.008241    1.259608    5.571284
     71          1           0        3.320182   -0.383884    5.799758
     72          1           0        4.307568    0.050295    4.333038
     73          1           0        6.260927   -5.611004    2.902760
     74          1           0        6.645794   -4.438701    4.212969
     75          1           0        7.989753   -5.082272    3.180907
     76          1           0        8.390957   -4.145295   -1.832134
     77          1           0        6.559609   -6.250630   -5.123521
     78          1           0        6.334059   -4.468805   -5.627462
     79          1           0        5.203360   -5.393501   -4.621386
     80         12           0       -6.324041    0.539470   -0.582335
     81          6           0       -8.885124   -1.687855    0.583401
     82          6           0       -8.773472    2.863728   -1.064698
     83          6           0       -4.169952    2.363660   -2.031370
     84          6           0       -4.311752   -2.260993   -1.086154
     85          7           0       -8.509311    0.477704   -0.246164
     86          6           0       -9.362423   -0.401066    0.258123
     87          6           0      -10.791735    0.154823    0.498161
     88          6           0      -10.764983    1.355448   -0.567975
     89          6           0       -9.260011    1.612459   -0.608942
     90          6           0      -11.216008    0.936671   -1.957407
     91          6           0      -10.987460    0.689297    1.960366
     92          6           0      -12.440391    0.960490    2.356845
     93          1           0      -12.847094    0.695510    3.734102
     94          7           0       -6.340870    2.485933   -0.969068
     95          6           0       -7.424233    3.278293   -1.109667
     96          6           0       -6.904129    4.621929   -1.406814
     97          6           0       -5.430871    4.524055   -1.592972
     98          6           0       -5.255740    3.085927   -1.558134
     99          6           0       -7.771088    5.847400   -1.411404
    100          6           0       -4.358923    5.553737   -1.785014
    101          8           0       -3.177523    5.233062   -2.164887
    102          6           0       -4.758355    6.957231   -1.605733
    103          7           0       -4.584200    0.102623   -1.633271
    104          6           0       -3.802671    1.084838   -2.115342
    105          6           0       -2.475148    0.542838   -2.588955
    106          6           0       -2.433428   -0.979241   -2.099965
    107          6           0       -3.843538   -1.084200   -1.478716
    108          6           0       -2.233413    0.599380   -4.097182
    109          6           0       -1.213152   -1.409097   -1.240411
    110          6           0       -1.256331   -0.713765    0.101248
    111          7           0       -6.457732   -1.571464   -0.141738
    112          6           0       -5.513666   -2.571317   -0.462851
    113          6           0       -6.099127   -3.867404   -0.063084
    114          6           0       -7.362679   -3.531271    0.445802
    115          6           0       -7.559491   -2.127142    0.350028
    116          6           0       -5.491405   -5.143063   -0.234757
    117          6           0       -8.579003   -4.046173    1.032421
    118          8           0       -8.952360   -5.148809    1.430602
    119          6           0       -9.669543   -2.889836    1.031220
    120          6           0      -10.301220   -2.845680    2.395611
    121          8           0       -9.630924   -2.523296    3.392292
    122          8           0      -11.634131   -2.978277    2.268575
    123          6           0      -12.306327   -2.929613    3.594322
    124          1           0       -9.487792    3.583184   -1.465963
    125          1           0       -3.350047    2.958580   -2.440394
    126          1           0       -3.707909   -3.170328   -1.120101
    127          1           0      -11.593049   -0.534844    0.261439
    128          1           0      -11.290923    2.229224   -0.192118
    129          1           0      -11.367986   -0.130182   -2.027167
    130          1           0      -10.428537    1.251400   -2.629634
    131          1           0      -12.106031    1.500697   -2.250790
    132          1           0      -10.581447    1.706873    2.026986
    133          1           0      -10.536512    0.025542    2.672192
    134          1           0      -13.150690    0.510015    1.652946
    135          1           0      -12.627487    2.034046    2.276214
    136          1           0       -8.836560    5.586396   -1.404645
    137          1           0       -7.618978    6.343073   -2.376311
    138          1           0       -7.517160    6.546000   -0.611314
    139          1           0       -5.559457    7.196354   -2.301089
    140          1           0       -3.837656    7.536915   -1.696002
    141          1           0       -5.170301    7.077686   -0.597559
    142          1           0       -1.652998    1.080978   -2.133350
    143          1           0       -2.410803   -1.679211   -2.948117
    144          1           0       -1.318020    1.156740   -4.371910
    145          1           0       -3.102693    1.041227   -4.565869
    146          1           0       -2.171341   -0.368582   -4.591548
    147          1           0       -0.282618   -1.097904   -1.721459
    148          1           0       -1.151643   -2.480766   -1.083133
    149          1           0       -0.809106    0.261763   -0.111886
    150          1           0       -0.672320   -1.263523    0.836600
    151          1           0       -2.290234   -0.539592    0.421169
    152          1           0       -5.655660   -5.692201    0.682833
    153          1           0       -4.430850   -5.051192   -0.459604
    154          1           0       -6.061312   -5.517163   -1.089465
    155          1           0      -10.395168   -3.124683    0.251552
    156          1           0      -12.899947   -3.844501    3.685326
    157          1           0      -12.854674   -1.969101    3.616152
    158          1           0      -11.680194   -2.995140    4.476429
 ---------------------------------------------------------------------

 SCF Done:  E(RCAM-B3LYP) =  -4069.81210203     A.U. after   19 cycles

 Excitation energies and oscillator strengths:

 Excited State   1:      Singlet-A      1.6643 eV  744.95 nm  f=0.0108  <S**2>=0.000
     309 -> 315       -0.10785
     310 -> 316        0.13293
     311 -> 313       -0.43092
     312 -> 314        0.53462
 This state for optimization and/or second-order correction.
 Total Energy, E(TD-HF/TD-DFT) =  -4069.75093909
 Copying the excited state density for this state as the 1-particle RhoCI density.

 Excited State   2:      Singlet-A      1.6894 eV  733.90 nm  f=0.7310  <S**2>=0.000
     309 -> 315        0.13880
     310 -> 316        0.11113
     311 -> 313        0.53342
     312 -> 314        0.43000

 Excited State   3:      Singlet-A      2.1849 eV  567.45 nm  f=0.0966  <S**2>=0.000
     310 -> 314        0.63884
     312 -> 316       -0.27071

 Excited State   4:      Singlet-A      2.1939 eV  565.13 nm  f=0.1037  <S**2>=0.000
     309 -> 313        0.63671
     311 -> 315       -0.27726

 Excited State   5:      Singlet-A      2.6709 eV  464.20 nm  f=0.0000  <S**2>=0.000
     312 -> 313        0.70687

 The electronic state is 1-A.
 Alpha  occ. eigenvalues --  -46.87778 -46.87530 -19.26332 -19.26259 -19.19077
 Alpha  occ. eigenvalues --  -19.19064 -19.18752 -19.18627 -19.18163 -19.17937
 Alpha  occ. eigenvalues --  -14.42433 -14.42373 -14.41424 -14.41215 -14.39377
 Alpha  occ. eigenvalues --  -14.39227 -14.38571 -14.38469 -10.39130 -10.38993
 Alpha  occ. eigenvalues --  -10.35382 -10.35307 -10.34386 -10.34114 -10.31734
 Alpha  occ. eigenvalues --  -10.31676 -10.31395 -10.31183 -10.30914 -10.30892
 Alpha  occ. eigenvalues --  -10.30553 -10.30483 -10.30264 -10.30227 -10.30168
 Alpha  occ. eigenvalues --  -10.29986 -10.29896 -10.29742 -10.29602 -10.29311
 Alpha  occ. eigenvalues --  -10.29273 -10.29221 -10.28754 -10.28622 -10.28579
 Alpha  occ. eigenvalues --  -10.28570 -10.28345 -10.28288 -10.28112 -10.28041
 Alpha  occ. eigenvalues --  -10.27876 -10.27767 -10.27705 -10.27550 -10.27546
 Alpha  occ. eigenvalues --  -10.27453 -10.27421 -10.27405 -10.27389 -10.27376
 Alpha  occ. eigenvalues --  -10.27361 -10.27345 -10.27280 -10.27189 -10.27166
 Alpha  occ. eigenvalues --  -10.26942 -10.26736 -10.26605 -10.26356 -10.26311
 Alpha  occ. eigenvalues --  -10.26224 -10.26121 -10.25990 -10.25936 -10.25816
 Alpha  occ. eigenvalues --  -10.25777 -10.25771 -10.25676 -10.25390 -10.25248
 Alpha  occ. eigenvalues --  -10.24813 -10.24760 -10.24749 -10.24619 -10.24558
 Alpha  occ. eigenvalues --  -10.24423  -3.16521  -3.16280  -1.91403  -1.91162
 Alpha  occ. eigenvalues --   -1.90989  -1.90831  -1.90750  -1.90588  -1.16681
 Alpha  occ. eigenvalues --   -1.16552  -1.08627  -1.08544  -1.07150  -1.06882
 Alpha  occ. eigenvalues --   -1.06849  -1.06696  -1.04565  -1.04374  -1.03736
 Alpha  occ. eigenvalues --   -1.03532  -1.03210  -1.02900  -1.02388  -1.01978
 Alpha  occ. eigenvalues --   -0.91961  -0.91864  -0.89484  -0.89311  -0.89187
 Alpha  occ. eigenvalues --   -0.89043  -0.88250  -0.88027  -0.87848  -0.87655
 Alpha  occ. eigenvalues --   -0.87654  -0.87555  -0.87226  -0.87015  -0.84974
 Alpha  occ. eigenvalues --   -0.84890  -0.83899  -0.83677  -0.82906  -0.82815
 Alpha  occ. eigenvalues --   -0.82631  -0.82538  -0.81591  -0.81478  -0.80582
 Alpha  occ. eigenvalues --   -0.80325  -0.78760  -0.78515  -0.77194  -0.77016
 Alpha  occ. eigenvalues --   -0.76930  -0.76761  -0.75918  -0.75725  -0.74868
 Alpha  occ. eigenvalues --   -0.74647  -0.72749  -0.72560  -0.71653  -0.71453
 Alpha  occ. eigenvalues --   -0.69860  -0.69521  -0.68859  -0.68712  -0.67618
 Alpha  occ. eigenvalues --   -0.67478  -0.67209  -0.67102  -0.65283  -0.65159
 Alpha  occ. eigenvalues --   -0.64842  -0.64632  -0.64607  -0.64526  -0.64236
 Alpha  occ. eigenvalues --   -0.64013  -0.62309  -0.62154  -0.60399  -0.60216
 Alpha  occ. eigenvalues --   -0.59795  -0.59685  -0.58968  -0.58857  -0.58485
 Alpha  occ. eigenvalues --   -0.58291  -0.57592  -0.57440  -0.57282  -0.57089
 Alpha  occ. eigenvalues --   -0.56287  -0.56076  -0.55996  -0.55779  -0.55486
 Alpha  occ. eigenvalues --   -0.55348  -0.55321  -0.55087  -0.54517  -0.54324
 Alpha  occ. eigenvalues --   -0.53894  -0.53809  -0.53268  -0.53200  -0.53099
 Alpha  occ. eigenvalues --   -0.53026  -0.52912  -0.52782  -0.52713  -0.52578
 Alpha  occ. eigenvalues --   -0.52390  -0.52135  -0.51894  -0.51731  -0.51604
 Alpha  occ. eigenvalues --   -0.51560  -0.51181  -0.51057  -0.50506  -0.50374
 Alpha  occ. eigenvalues --   -0.49989  -0.49879  -0.49868  -0.49692  -0.49491
 Alpha  occ. eigenvalues --   -0.49385  -0.49196  -0.49093  -0.49087  -0.48987
 Alpha  occ. eigenvalues --   -0.48589  -0.48447  -0.48433  -0.48403  -0.48244
 Alpha  occ. eigenvalues --   -0.48220  -0.47669  -0.47470  -0.47267  -0.46998
 Alpha  occ. eigenvalues --   -0.46774  -0.46562  -0.46551  -0.46442  -0.46335
 Alpha  occ. eigenvalues --   -0.46146  -0.46128  -0.45942  -0.45820  -0.45693
 Alpha  occ. eigenvalues --   -0.45166  -0.45054  -0.44569  -0.44472  -0.44406
 Alpha  occ. eigenvalues --   -0.44342  -0.44114  -0.44073  -0.44016  -0.43994
 Alpha  occ. eigenvalues --   -0.43911  -0.43838  -0.43495  -0.43422  -0.43368
 Alpha  occ. eigenvalues --   -0.43263  -0.43008  -0.42819  -0.42769  -0.42721
 Alpha  occ. eigenvalues --   -0.42621  -0.42373  -0.41985  -0.41784  -0.41687
 Alpha  occ. eigenvalues --   -0.41540  -0.41524  -0.41323  -0.41122  -0.40866
 Alpha  occ. eigenvalues --   -0.40853  -0.40774  -0.40629  -0.40565  -0.40538
 Alpha  occ. eigenvalues --   -0.40293  -0.40240  -0.40137  -0.39391  -0.39184
 Alpha  occ. eigenvalues --   -0.38438  -0.38176  -0.37754  -0.37549  -0.37289
 Alpha  occ. eigenvalues --   -0.37259  -0.37104  -0.37075  -0.36737  -0.36655
 Alpha  occ. eigenvalues --   -0.36189  -0.36065  -0.34267  -0.34120  -0.33814
 Alpha  occ. eigenvalues --   -0.33759  -0.33169  -0.33044  -0.31284  -0.31185
 Alpha  occ. eigenvalues --   -0.31014  -0.30846  -0.30026  -0.29840  -0.29417
 Alpha  occ. eigenvalues --   -0.29301  -0.29210  -0.29085  -0.24062  -0.23905
 Alpha  occ. eigenvalues --   -0.21103  -0.20985
 Alpha virt. eigenvalues --   -0.08747  -0.08667  -0.01722  -0.01552  -0.00021
 Alpha virt. eigenvalues --    0.00075   0.02218   0.02336   0.03104   0.03363
 Alpha virt. eigenvalues --    0.04727   0.04848   0.05057   0.05265   0.06163

 Mulliken charges:
               1
     1  Mg   0.838008
     2  C   -0.003566
     3  C   -0.094056
     4  C   -0.045590
     5  C   -0.063856
     6  N   -0.256813
     7  C   -0.052841
     8  C   -0.013875
     9  C   -0.087003
    10  C    0.046208
    11  C    0.104777
    12  C    0.053445
    13  C   -0.071708
    14  H    0.035422
    15  N   -0.433259
    16  C    0.168514
    17  C   -0.176806
    18  C   -0.003586
    19  C    0.148809
    20  C    0.110061
    21  C    0.012863
    22  O   -0.249420
    23  C    0.062144
    24  N   -0.341119
    25  C    0.041289
    26  C   -0.028247
    27  C   -0.023975
    28  C    0.074727
    29  C    0.076149
    30  C    0.035081
    31  C   -0.004550
    32  N   -0.310310
    33  C    0.079970
    34  C   -0.169938
    35  C    0.008198
    36  C    0.082409
    37  C    0.127383
    38  C    0.045638
    39  O   -0.188709
    40  C   -0.005140
    41  C    0.213135
    42  O   -0.258427
    43  O   -0.304491
    44  C    0.157820
    45  H   -0.017483
    46  H   -0.016552
    47  H   -0.041328
    48  H    0.000914
    49  H   -0.003944
    50  H    0.025475
    51  H    0.016588
    52  H    0.016731
    53  H    0.011212
    54  H    0.043110
    55  H    0.018128
    56  H    0.018294
    57  H    0.005776
    58  H    0.026850
    59  H    0.040592
    60  H    0.037039
    61  H    0.035927
    62  H    0.032762
    63  H    0.016895
    64  H    0.009476
    65  H    0.023365
    66  H    0.012462
    67  H    0.004790
    68  H    0.006583
    69  H    0.004813
    70  H    0.009178
    71  H    0.018590
    72  H    0.028403
    73  H    0.047333
    74  H    0.009327
    75  H    0.046041
    76  H    0.035272
    77  H    0.043193
    78  H    0.046490
    79  H    0.052921
    80  Mg   0.837734
    81  C   -0.017087
    82  C   -0.088097
    83  C   -0.045559
    84  C   -0.064771
    85  N   -0.254588
    86  C   -0.049817
    87  C   -0.015116
    88  C   -0.090445
    89  C    0.045682
    90  C    0.114468
    91  C    0.062581
    92  C   -0.077748
    93  H    0.034658
    94  N   -0.423372
    95  C    0.162779
    96  C   -0.174958
    97  C   -0.008150
    98  C    0.152113
    99  C    0.099490
   100  C    0.015438
   101  O   -0.253919
   102  C    0.061336
   103  N   -0.350180
   104  C    0.037578
   105  C   -0.019662
   106  C   -0.035694
   107  C    0.088958
   108  C    0.074158
   109  C    0.034840
   110  C   -0.008137
   111  N   -0.324203
   112  C    0.078629
   113  C   -0.162682
   114  C    0.002138
   115  C    0.096389
   116  C    0.131213
   117  C    0.042450
   118  O   -0.187909
   119  C    0.000897
   120  C    0.211224
   121  O   -0.251025
   122  O   -0.305666
   123  C    0.152090
   124  H   -0.020128
   125  H   -0.016105
   126  H   -0.038767
   127  H   -0.000816
   128  H   -0.004585
   129  H    0.022354
   130  H    0.014362
   131  H    0.015932
   132  H    0.013907
   133  H    0.037680
   134  H    0.020671
   135  H    0.019448
   136  H    0.008553
   137  H    0.025604
   138  H    0.039467
   139  H    0.037992
   140  H    0.035594
   141  H    0.034047
   142  H    0.014194
   143  H    0.013271
   144  H    0.024139
   145  H    0.010749
   146  H    0.006108
   147  H    0.008971
   148  H    0.006822
   149  H    0.009675
   150  H    0.019696
   151  H    0.028558
   152  H    0.046133
   153  H    0.010158
   154  H    0.046803
   155  H    0.034808
   156  H    0.043779
   157  H    0.049356
   158  H    0.053526
 Sum of Mulliken charges =  -0.00000

 Dipole moment (field-independent basis, Debye):
    X=              0.3982    Y=              6.7556    Z=             -4.0101  Tot=              7.8662
 Quadrupole moment (field-independent basis, Debye-Ang):
   XX=           -432.1517   YY=           -542.6088   ZZ=           -482.7111
   XY=            -28.2541   XZ=             -6.8123   YZ=             -5.2541

 Normal termination of Gaussian 16 at Sat Sep 11 03:58:02 2021.
