 Gaussian 16, Revision A.03,
 Gaussian 16:  ES64L-G16RevA.03 25-Dec-2016

 -----------------------------------
 #p cam-b3lyp/Def2SVP td=(nstates=5)
 -----------------------------------

 --------------------------------
 TDDFT excited states in gaussian
 --------------------------------
 Symbolic Z-matrix:
 Charge =  0 Multiplicity = 1

                         Standard orientation:
 ---------------------------------------------------------------------
 Center     Atomic      Atomic             Coordinates (Angstroms)
 Number     Number       Type             X           Y           Z
 ---------------------------------------------------------------------
      1         12           0       -3.928824   -0.322178    0.412612
      2          6           0       -3.749263    3.238874    0.098155
      3          6           0       -5.104706   -0.396606   -2.789704
      4          6           0       -4.524453   -3.410400    0.818483
      5          6           0       -3.835739    0.126005    3.867482
      6          7           0       -4.330803    1.283751   -1.057099
      7          6           0       -4.163258    2.602391   -1.074083
      8          6           0       -4.396462    3.236777   -2.477844
      9          6           0       -5.342264    2.117433   -3.105958
     10          6           0       -4.874934    0.921582   -2.295116
     11          6           0       -6.824765    2.348090   -2.831206
     12          6           0       -3.066845    3.385763   -3.291264
     13          6           0       -3.154247    4.286170   -4.526975
     14          1           0       -2.003824    5.104160   -4.880198
     15          7           0       -4.231752   -1.753797   -0.914623
     16          6           0       -4.698942   -1.602013   -2.177153
     17          6           0       -4.746270   -2.960113   -2.760253
     18          6           0       -4.449021   -3.932957   -1.672452
     19          6           0       -4.415233   -3.061742   -0.525621
     20          6           0       -5.000519   -3.223538   -4.212738
     21          6           0       -4.240529   -5.414382   -1.665840
     22          8           0       -4.224127   -6.094116   -0.583128
     23          6           0       -4.143083   -6.069953   -2.982568
     24          7           0       -4.371258   -1.473721    2.096606
     25          6           0       -4.527229   -2.798949    2.004807
     26          6           0       -4.554050   -3.440767    3.360274
     27          6           0       -4.138412   -2.300279    4.397716
     28          6           0       -4.017847   -1.114443    3.409016
     29          6           0       -5.896403   -4.052233    3.784786
     30          6           0       -2.942448   -2.603904    5.334679
     31          6           0       -1.667028   -2.691850    4.526800
     32          7           0       -3.636005    1.347351    1.768331
     33          6           0       -3.658704    1.309249    3.170011
     34          6           0       -3.521067    2.699262    3.642228
     35          6           0       -3.444014    3.456052    2.474677
     36          6           0       -3.554556    2.596205    1.344749
     37          6           0       -3.539284    3.123754    5.000134
     38          6           0       -3.318753    4.793708    1.918942
     39          8           0       -3.098114    5.910820    2.388913
     40          6           0       -3.633658    4.720013    0.359702
     41          6           0       -2.551312    5.478573   -0.358923
     42          8           0       -1.374781    5.062520   -0.365358
     43          8           0       -3.107652    6.435609   -1.117283
     44          6           0       -2.090044    7.206749   -1.880153
     45          1           0       -5.699491   -0.523972   -3.696318
     46          1           0       -4.619774   -4.482133    1.004871
     47          1           0       -3.713868    0.334066    4.932053
     48          1           0       -4.914174    4.196032   -2.462766
     49          1           0       -5.138738    1.960083   -4.164986
     50          1           0       -6.977519    3.175300   -2.138162
     51          1           0       -7.188910    1.416305   -2.397999
     52          1           0       -7.375344    2.480660   -3.762907
     53          1           0       -2.830202    2.435728   -3.770320
     54          1           0       -2.257978    3.733940   -2.647964
     55          1           0       -4.062944    4.888741   -4.517599
     56          1           0       -3.259877    3.650369   -5.406065
     57          1           0       -5.347443   -2.328366   -4.727379
     58          1           0       -5.842929   -3.912688   -4.268653
     59          1           0       -4.133860   -3.661379   -4.708248
     60          1           0       -5.056803   -5.881857   -3.546734
     61          1           0       -3.905729   -7.114081   -2.781799
     62          1           0       -3.333158   -5.608034   -3.547901
     63          1           0       -3.835834   -4.257443    3.420533
     64          1           0       -4.952550   -2.050036    5.078327
     65          1           0       -5.834291   -5.110314    4.040350
     66          1           0       -6.612093   -3.885611    2.980227
     67          1           0       -6.385421   -3.547802    4.617749
     68          1           0       -3.079275   -3.567640    5.824003
     69          1           0       -2.804197   -1.853399    6.113062
     70          1           0       -1.679688   -3.718617    4.162902
     71          1           0       -0.800099   -2.514146    5.164034
     72          1           0       -1.701505   -2.037029    3.655877
     73          1           0       -2.739643    3.857477    5.101105
     74          1           0       -3.394495    2.284036    5.679482
     75          1           0       -4.541776    3.546251    5.066191
     76          1           0       -4.614631    5.171962    0.216322
     77          1           0       -2.229337    8.258260   -1.628843
     78          1           0       -2.201251    6.917268   -2.925255
     79          1           0       -1.051177    7.059918   -1.582605
     80         12           0        3.933105   -1.227707   -0.288420
     81          6           0        4.199551    2.258509    0.520520
     82          6           0        2.883033   -0.274451   -3.390554
     83          6           0        3.258423   -4.269911   -0.886089
     84          6           0        3.890391   -1.876478    3.135465
     85          7           0        3.622594    0.764356   -1.198105
     86          6           0        3.815429    2.017527   -0.815075
     87          6           0        3.661430    3.067338   -1.948099
     88          6           0        2.709519    2.224486   -2.929100
     89          6           0        3.116318    0.812922   -2.511179
     90          6           0        1.229945    2.402889   -2.631842
     91          6           0        5.030245    3.412862   -2.632896
     92          6           0        5.004837    4.650300   -3.532819
     93          1           0        6.191734    5.499621   -3.582030
     94          7           0        3.655707   -2.166460   -2.014791
     95          6           0        3.249058   -1.622176   -3.180844
     96          6           0        3.181737   -2.733911   -4.141921
     97          6           0        3.422812   -4.005015   -3.406456
     98          6           0        3.434635   -3.521067   -2.040539
     99          6           0        2.989095   -2.524767   -5.615885
    100          6           0        3.599133   -5.423518   -3.856972
    101          8           0        3.559812   -6.402338   -3.030417
    102          6           0        3.725802   -5.640366   -5.305561
    103          7           0        3.406894   -2.822372    0.937345
    104          6           0        3.219870   -4.052921    0.428720
    105          6           0        3.121892   -5.087089    1.524756
    106          6           0        3.525460   -4.325163    2.871670
    107          6           0        3.708544   -2.898124    2.310036
    108          6           0        1.751842   -5.741406    1.701443
    109          6           0        4.677231   -4.942430    3.711364
    110          6           0        5.982709   -4.831114    2.957230
    111          7           0        4.210471   -0.073599    1.516894
    112          6           0        4.125074   -0.538000    2.847726
    113          6           0        4.274114    0.637834    3.729573
    114          6           0        4.413959    1.716447    2.843279
    115          6           0        4.335920    1.248733    1.503631
    116          6           0        4.221056    0.623009    5.151922
    117          6           0        4.599194    3.145766    2.736392
    118          8           0        4.817418    4.055587    3.535352
    119          6           0        4.341993    3.577308    1.228404
    120          6           0        5.467285    4.481467    0.805640
    121          8           0        6.629525    4.047066    0.721420
    122          8           0        4.955546    5.644632    0.363419
    123          6           0        6.032437    6.570692   -0.077622
    124          1           0        2.329649   -0.087588   -4.311278
    125          1           0        3.132947   -5.344762   -1.035869
    126          1           0        3.986245   -2.008353    4.215325
    127          1           0        3.169929    3.986354   -1.652119
    128          1           0        2.961298    2.400953   -3.971612
    129          1           0        1.066158    2.976462   -1.731667
    130          1           0        0.829417    1.403630   -2.521882
    131          1           0        0.721409    2.837894   -3.497002
    132          1           0        5.261694    2.642307   -3.379503
    133          1           0        5.807633    3.514385   -1.900780
    134          1           0        4.104694    5.256635   -3.374580
    135          1           0        4.927554    4.321985   -4.572175
    136          1           0        2.675874   -1.497346   -5.838836
    137          1           0        2.134843   -3.140615   -5.917279
    138          1           0        3.862302   -2.821059   -6.201030
    139          1           0        2.842175   -5.253188   -5.807317
    140          1           0        3.933435   -6.705547   -5.424538
    141          1           0        4.577462   -5.057307   -5.673436
    142          1           0        3.821147   -5.896829    1.356047
    143          1           0        2.685816   -4.278516    3.580654
    144          1           0        1.780413   -6.844066    1.615415
    145          1           0        1.075512   -5.320287    0.969475
    146          1           0        1.248514   -5.513065    2.639375
    147          1           0        4.500531   -6.009061    3.870202
    148          1           0        4.791771   -4.485900    4.688844
    149          1           0        5.956363   -5.697135    2.289095
    150          1           0        6.826584   -4.886403    3.641963
    151          1           0        5.999829   -3.931793    2.330660
    152          1           0        5.023894    1.259183    5.500081
    153          1           0        4.315846   -0.387939    5.542802
    154          1           0        3.220898    1.033693    5.314076
    155          1           0        3.375744    4.081926    1.192319
    156          1           0        5.902883    7.501513    0.483158
    157          1           0        5.943526    6.629457   -1.178705
    158          1           0        7.053001    6.310340    0.177562
 ---------------------------------------------------------------------

 SCF Done:  E(RCAM-B3LYP) =  -4069.81258782     A.U. after   19 cycles

 Excitation energies and oscillator strengths:

 Excited State   1:      Singlet-A      1.6391 eV  756.44 nm  f=0.0138  <S**2>=0.000
     309 -> 315       -0.11224
     310 -> 316        0.12004
     311 -> 313       -0.46655
     312 -> 314        0.50594
 This state for optimization and/or second-order correction.
 Total Energy, E(TD-HF/TD-DFT) =  -4069.75235358
 Copying the excited state density for this state as the 1-particle RhoCI density.

 Excited State   2:      Singlet-A      1.7087 eV  725.63 nm  f=0.6657  <S**2>=0.000
     309 -> 315        0.13505
     310 -> 316        0.12229
     311 -> 313        0.50265
     312 -> 314        0.46350

 Excited State   3:      Singlet-A      2.1765 eV  569.65 nm  f=0.0203  <S**2>=0.000
     309 -> 313       -0.30501
     310 -> 314        0.57016
     311 -> 315        0.12378
     312 -> 316       -0.23286

 Excited State   4:      Singlet-A      2.1988 eV  563.88 nm  f=0.1491  <S**2>=0.000
     309 -> 313        0.56332
     310 -> 314        0.29885
     311 -> 315       -0.25060
     312 -> 316       -0.13443

 Excited State   5:      Singlet-A      2.2231 eV  557.71 nm  f=0.0000  <S**2>=0.000
     312 -> 313        0.70705

 The electronic state is 1-A.
 Alpha  occ. eigenvalues --  -46.87935 -46.87357 -19.26606 -19.25925 -19.19408
 Alpha  occ. eigenvalues --  -19.18876 -19.18764 -19.18510 -19.18294 -19.17673
 Alpha  occ. eigenvalues --  -14.42608 -14.42167 -14.41591 -14.41057 -14.39533
 Alpha  occ. eigenvalues --  -14.39061 -14.38719 -14.38289 -10.39429 -10.38679
 Alpha  occ. eigenvalues --  -10.35507 -10.35196 -10.34526 -10.33834 -10.32000
 Alpha  occ. eigenvalues --  -10.31574 -10.31390 -10.31088 -10.30948 -10.30712
 Alpha  occ. eigenvalues --  -10.30678 -10.30628 -10.30336 -10.30100 -10.30051
 Alpha  occ. eigenvalues --  -10.30047 -10.29886 -10.29750 -10.29587 -10.29375
 Alpha  occ. eigenvalues --  -10.29172 -10.29119 -10.29013 -10.28970 -10.28507
 Alpha  occ. eigenvalues --  -10.28370 -10.28341 -10.28244 -10.28082 -10.27910
 Alpha  occ. eigenvalues --  -10.27880 -10.27707 -10.27701 -10.27659 -10.27635
 Alpha  occ. eigenvalues --  -10.27620 -10.27577 -10.27566 -10.27364 -10.27359
 Alpha  occ. eigenvalues --  -10.27334 -10.27282 -10.27199 -10.27141 -10.27101
 Alpha  occ. eigenvalues --  -10.27095 -10.26560 -10.26425 -10.26422 -10.26345
 Alpha  occ. eigenvalues --  -10.26341 -10.26304 -10.26152 -10.25948 -10.25891
 Alpha  occ. eigenvalues --  -10.25659 -10.25608 -10.25543 -10.25271 -10.25078
 Alpha  occ. eigenvalues --  -10.24954 -10.24921 -10.24884 -10.24563 -10.24546
 Alpha  occ. eigenvalues --  -10.24383  -3.16677  -3.16108  -1.91559  -1.91146
 Alpha  occ. eigenvalues --   -1.90991  -1.90987  -1.90578  -1.90416  -1.16958
 Alpha  occ. eigenvalues --   -1.16226  -1.08762  -1.08265  -1.07272  -1.06990
 Alpha  occ. eigenvalues --   -1.06768  -1.06547  -1.04742  -1.04157  -1.03902
 Alpha  occ. eigenvalues --   -1.03364  -1.03352  -1.02743  -1.02547  -1.01805
 Alpha  occ. eigenvalues --   -0.92135  -0.91624  -0.89665  -0.89428  -0.89218
 Alpha  occ. eigenvalues --   -0.88711  -0.88429  -0.87979  -0.87944  -0.87845
 Alpha  occ. eigenvalues --   -0.87507  -0.87381  -0.87368  -0.86905  -0.85205
 Alpha  occ. eigenvalues --   -0.84631  -0.84089  -0.83603  -0.83067  -0.82837
 Alpha  occ. eigenvalues --   -0.82739  -0.82303  -0.81799  -0.81249  -0.80767
 Alpha  occ. eigenvalues --   -0.80121  -0.78915  -0.78383  -0.77394  -0.77154
 Alpha  occ. eigenvalues --   -0.76839  -0.76532  -0.76121  -0.75433  -0.75048
 Alpha  occ. eigenvalues --   -0.74487  -0.72910  -0.72397  -0.71833  -0.71213
 Alpha  occ. eigenvalues --   -0.70060  -0.69507  -0.69075  -0.68477  -0.67794
 Alpha  occ. eigenvalues --   -0.67442  -0.67305  -0.66905  -0.65508  -0.65030
 Alpha  occ. eigenvalues --   -0.64889  -0.64811  -0.64451  -0.64417  -0.64309
 Alpha  occ. eigenvalues --   -0.63919  -0.62526  -0.61923  -0.60557  -0.60093
 Alpha  occ. eigenvalues --   -0.60002  -0.59406  -0.59144  -0.58672  -0.58664
 Alpha  occ. eigenvalues --   -0.58100  -0.57794  -0.57456  -0.57167  -0.56931
 Alpha  occ. eigenvalues --   -0.56458  -0.56231  -0.55918  -0.55652  -0.55528
 Alpha  occ. eigenvalues --   -0.55519  -0.55164  -0.54939  -0.54738  -0.54164
 Alpha  occ. eigenvalues --   -0.54138  -0.53514  -0.53436  -0.53395  -0.53142
 Alpha  occ. eigenvalues --   -0.52958  -0.52892  -0.52823  -0.52601  -0.52588
 Alpha  occ. eigenvalues --   -0.52389  -0.52167  -0.52012  -0.51822  -0.51609
 Alpha  occ. eigenvalues --   -0.51363  -0.51317  -0.50875  -0.50669  -0.50292
 Alpha  occ. eigenvalues --   -0.50184  -0.50056  -0.49686  -0.49673  -0.49592
 Alpha  occ. eigenvalues --   -0.49381  -0.49286  -0.49165  -0.48871  -0.48789
 Alpha  occ. eigenvalues --   -0.48645  -0.48608  -0.48551  -0.48198  -0.48111
 Alpha  occ. eigenvalues --   -0.48049  -0.47865  -0.47445  -0.47274  -0.46966
 Alpha  occ. eigenvalues --   -0.46853  -0.46782  -0.46510  -0.46400  -0.46316
 Alpha  occ. eigenvalues --   -0.46190  -0.46001  -0.45991  -0.45774  -0.45470
 Alpha  occ. eigenvalues --   -0.45343  -0.44897  -0.44745  -0.44675  -0.44296
 Alpha  occ. eigenvalues --   -0.44280  -0.44195  -0.44162  -0.44153  -0.43819
 Alpha  occ. eigenvalues --   -0.43731  -0.43692  -0.43632  -0.43569  -0.43204
 Alpha  occ. eigenvalues --   -0.43185  -0.43037  -0.42953  -0.42819  -0.42589
 Alpha  occ. eigenvalues --   -0.42530  -0.42296  -0.42196  -0.41868  -0.41753
 Alpha  occ. eigenvalues --   -0.41668  -0.41310  -0.41304  -0.41117  -0.41085
 Alpha  occ. eigenvalues --   -0.40956  -0.40727  -0.40627  -0.40513  -0.40483
 Alpha  occ. eigenvalues --   -0.40363  -0.40162  -0.39881  -0.39605  -0.39189
 Alpha  occ. eigenvalues --   -0.38638  -0.38058  -0.38038  -0.37474  -0.37464
 Alpha  occ. eigenvalues --   -0.37329  -0.36996  -0.36969  -0.36850  -0.36405
 Alpha  occ. eigenvalues --   -0.36399  -0.35888  -0.34433  -0.34098  -0.33936
 Alpha  occ. eigenvalues --   -0.33480  -0.33338  -0.32869  -0.31414  -0.31184
 Alpha  occ. eigenvalues --   -0.31065  -0.30645  -0.30160  -0.29565  -0.29561
 Alpha  occ. eigenvalues --   -0.29438  -0.29066  -0.28902  -0.24229  -0.23715
 Alpha  occ. eigenvalues --   -0.21266  -0.20811
 Alpha virt. eigenvalues --   -0.08903  -0.08495  -0.01885  -0.01390  -0.00174
 Alpha virt. eigenvalues --    0.00246   0.02069   0.02385   0.02637   0.03628
 Alpha virt. eigenvalues --    0.04468   0.04701   0.05080   0.05572   0.05772

 Mulliken charges:
               1
     1  Mg   0.838681
     2  C   -0.004154
     3  C   -0.095238
     4  C   -0.045321
     5  C   -0.063395
     6  N   -0.256652
     7  C   -0.053498
     8  C   -0.013180
     9  C   -0.086820
    10  C    0.045970
    11  C    0.104775
    12  C    0.049309
    13  C   -0.072044
    14  H    0.033228
    15  N   -0.433371
    16  C    0.168664
    17  C   -0.177392
    18  C   -0.003096
    19  C    0.149086
    20  C    0.110305
    21  C    0.013693
    22  O   -0.249024
    23  C    0.062195
    24  N   -0.340876
    25  C    0.041168
    26  C   -0.028389
    27  C   -0.023860
    28  C    0.074609
    29  C    0.076067
    30  C    0.035028
    31  C   -0.005967
    32  N   -0.310724
    33  C    0.080576
    34  C   -0.168724
    35  C    0.008860
    36  C    0.083048
    37  C    0.126975
    38  C    0.046391
    39  O   -0.187118
    40  C   -0.006141
    41  C    0.215035
    42  O   -0.259510
    43  O   -0.303942
    44  C    0.157361
    45  H   -0.017778
    46  H   -0.016422
    47  H   -0.041048
    48  H    0.001213
    49  H   -0.004898
    50  H    0.025793
    51  H    0.017093
    52  H    0.016739
    53  H    0.010304
    54  H    0.046201
    55  H    0.019720
    56  H    0.017769
    57  H    0.005103
    58  H    0.027338
    59  H    0.038913
    60  H    0.036667
    61  H    0.037192
    62  H    0.032083
    63  H    0.016401
    64  H    0.009921
    65  H    0.023464
    66  H    0.012768
    67  H    0.005020
    68  H    0.006211
    69  H    0.005237
    70  H    0.008323
    71  H    0.017034
    72  H    0.031131
    73  H    0.049410
    74  H    0.009294
    75  H    0.046142
    76  H    0.035702
    77  H    0.044624
    78  H    0.045699
    79  H    0.052732
    80  Mg   0.836548
    81  C   -0.015709
    82  C   -0.088227
    83  C   -0.046047
    84  C   -0.066107
    85  N   -0.255067
    86  C   -0.046629
    87  C   -0.015474
    88  C   -0.091599
    89  C    0.046380
    90  C    0.107964
    91  C    0.062622
    92  C   -0.076780
    93  H    0.033179
    94  N   -0.423362
    95  C    0.162817
    96  C   -0.176287
    97  C   -0.008737
    98  C    0.151853
    99  C    0.100416
   100  C    0.014433
   101  O   -0.253526
   102  C    0.061649
   103  N   -0.350455
   104  C    0.037487
   105  C   -0.019960
   106  C   -0.034702
   107  C    0.089605
   108  C    0.073171
   109  C    0.034843
   110  C   -0.007488
   111  N   -0.324552
   112  C    0.079428
   113  C   -0.163472
   114  C    0.003829
   115  C    0.095756
   116  C    0.131105
   117  C    0.043610
   118  O   -0.186965
   119  C   -0.000281
   120  C    0.210244
   121  O   -0.252596
   122  O   -0.303486
   123  C    0.152605
   124  H   -0.021675
   125  H   -0.016018
   126  H   -0.041840
   127  H    0.005418
   128  H   -0.007564
   129  H    0.042412
   130  H    0.010333
   131  H    0.012037
   132  H    0.012601
   133  H    0.037145
   134  H    0.020979
   135  H    0.018031
   136  H    0.007751
   137  H    0.022895
   138  H    0.038982
   139  H    0.036333
   140  H    0.035650
   141  H    0.033819
   142  H    0.013710
   143  H    0.011645
   144  H    0.025210
   145  H    0.014152
   146  H    0.004949
   147  H    0.005737
   148  H    0.002749
   149  H    0.010797
   150  H    0.017267
   151  H    0.030509
   152  H    0.045828
   153  H    0.007195
   154  H    0.047285
   155  H    0.045161
   156  H    0.043863
   157  H    0.048495
   158  H    0.052444
 Sum of Mulliken charges =  -0.00000

 Dipole moment (field-independent basis, Debye):
    X=             -5.2080    Y=             -1.3688    Z=             -6.7454  Tot=              8.6311
 Quadrupole moment (field-independent basis, Debye-Ang):
   XX=           -519.3465   YY=           -546.5545   ZZ=           -452.7788
   XY=             -6.4539   XZ=             -0.5044   YZ=            -45.9814

 Normal termination of Gaussian 16 at Wed Sep  8 19:11:22 2021.
