 Gaussian 16, Revision A.03,
 Gaussian 16:  ES64L-G16RevA.03 25-Dec-2016

 -----------------------------------
 #p cam-b3lyp/Def2SVP td=(nstates=5)
 -----------------------------------

 --------------------------------
 TDDFT excited states in gaussian
 --------------------------------
 Symbolic Z-matrix:
 Charge =  0 Multiplicity = 1

                         Standard orientation:
 ---------------------------------------------------------------------
 Center     Atomic      Atomic             Coordinates (Angstroms)
 Number     Number       Type             X           Y           Z
 ---------------------------------------------------------------------
      1         12           0        6.671279    0.552378    1.005710
      2          6           0        7.227810   -2.398678   -0.942047
      3          6           0        7.940903    2.338315   -1.609925
      4          6           0        6.613524    3.117034    2.870066
      5          6           0        6.526078   -1.506686    3.813705
      6          7           0        7.450418   -0.065260   -0.972196
      7          6           0        7.553452   -1.221664   -1.619718
      8          6           0        7.968503   -1.058979   -3.112581
      9          6           0        8.694243    0.357556   -3.019152
     10          6           0        7.961543    0.927055   -1.817176
     11          6           0       10.179954    0.260282   -2.687939
     12          6           0        6.731598   -1.006850   -4.071267
     13          6           0        7.050662   -1.177377   -5.559377
     14          1           0        6.104926   -1.895233   -6.400574
     15          7           0        6.734172    2.472553    0.545469
     16          6           0        7.274817    3.020898   -0.569119
     17          6           0        7.071301    4.480321   -0.445232
     18          6           0        6.538465    4.751263    0.918869
     19          6           0        6.633318    3.443753    1.516194
     20          6           0        7.327692    5.444621   -1.562432
     21          6           0        6.035039    5.993886    1.582632
     22          8           0        5.836412    6.058539    2.843957
     23          6           0        5.862427    7.176100    0.719140
     24          7           0        6.801187    0.808088    3.073407
     25          6           0        6.690050    2.020546    3.627103
     26          6           0        6.529957    1.928423    5.115667
     27          6           0        6.310120    0.380802    5.441698
     28          6           0        6.472984   -0.187367    4.010290
     29          6           0        7.702216    2.464067    5.949276
     30          6           0        5.039332    0.004864    6.244310
     31          6           0        3.807385    0.267377    5.407357
     32          7           0        6.665126   -1.585217    1.382138
     33          6           0        6.620971   -2.221242    2.631216
     34          6           0        6.747205   -3.669243    2.383370
     35          6           0        6.873496   -3.774428    0.999595
     36          6           0        6.855335   -2.472744    0.422030
     37          6           0        6.793906   -4.684249    3.379369
     38          6           0        7.044298   -4.682104   -0.123262
     39          8           0        7.034303   -5.906559   -0.257801
     40          6           0        7.402822   -3.820786   -1.413773
     41          6           0        6.526993   -4.301308   -2.538643
     42          8           0        5.292009   -4.124527   -2.508194
     43          8           0        7.296370   -4.675832   -3.572245
     44          6           0        6.488281   -5.135782   -4.733103
     45          1           0        8.535136    2.976950   -2.266411
     46          1           0        6.482584    3.967669    3.542162
     47          1           0        6.404277   -2.216227    4.634173
     48          1           0        8.668155   -1.812581   -3.474513
     49          1           0        8.507649    0.969389   -3.901515
     50          1           0       10.467450   -0.762135   -2.443130
     51          1           0       10.329987    0.914072   -1.828554
     52          1           0       10.784468    0.679630   -3.492605
     53          1           0        6.328257    0.005693   -4.082846
     54          1           0        5.983495   -1.743479   -3.776229
     55          1           0        8.061109   -1.558766   -5.709205
     56          1           0        7.062435   -0.190191   -6.021466
     57          1           0        7.869460    4.973561   -2.381660
     58          1           0        8.015179    6.199026   -1.180404
     59          1           0        6.411991    5.923687   -1.909305
     60          1           0        6.818105    7.428417    0.259178
     61          1           0        5.410934    7.943583    1.346814
     62          1           0        5.186848    6.921002   -0.097847
     63          1           0        5.659748    2.491220    5.450959
     64          1           0        7.128800   -0.033427    6.030640
     65          1           0        7.417088    3.244920    6.654738
     66          1           0        8.469846    2.819045    5.262235
     67          1           0        8.247714    1.706112    6.510839
     68          1           0        4.958132    0.623485    7.137429
     69          1           0        5.023017   -1.038149    6.560709
     70          1           0        3.627674    1.330187    5.565377
     71          1           0        2.968299   -0.328352    5.768262
     72          1           0        4.009802    0.125465    4.345578
     73          1           0        6.155384   -5.492002    3.021886
     74          1           0        6.454232   -4.308220    4.344162
     75          1           0        7.857398   -4.922624    3.375041
     76          1           0        8.459971   -3.987491   -1.618144
     77          1           0        6.826387   -6.141986   -4.981038
     78          1           0        6.582391   -4.366987   -5.500242
     79          1           0        5.429639   -5.315521   -4.542549
     80         12           0       -6.394346    0.356761   -1.039037
     81          6           0       -8.121871   -1.661729    1.373513
     82          6           0       -8.459025    2.922094   -0.149811
     83          6           0       -5.201149    2.024756   -3.460092
     84          6           0       -5.278778   -2.600044   -2.508232
     85          7           0       -8.038191    0.490215    0.434798
     86          6           0       -8.564590   -0.323004    1.338088
     87          6           0       -9.567772    0.356527    2.308361
     88          6           0      -10.002255    1.591790    1.378744
     89          6           0       -8.744600    1.705382    0.519634
     90          6           0      -11.176320    1.275278    0.467291
     91          6           0       -8.881028    0.846876    3.631226
     92          6           0       -9.847960    1.239101    4.750583
     93          1           0       -9.465008    0.957955    6.131446
     94          7           0       -6.419370    2.310138   -1.388666
     95          6           0       -7.317137    3.207413   -0.930205
     96          6           0       -6.907908    4.506293   -1.486634
     97          6           0       -5.791939    4.275900   -2.443842
     98          6           0       -5.774340    2.827409   -2.484515
     99          6           0       -7.507114    5.808106   -1.039807
    100          6           0       -4.898027    5.205518   -3.207344
    101          8           0       -4.153307    4.789335   -4.163914
    102          6           0       -4.989584    6.632205   -2.864337
    103          7           0       -5.561236   -0.200791   -2.860421
    104          6           0       -5.071794    0.721240   -3.707907
    105          6           0       -4.278982    0.074809   -4.818755
    106          6           0       -4.134175   -1.463056   -4.404530
    107          6           0       -4.981733   -1.458253   -3.113401
    108          6           0       -4.891907    0.169766   -6.215783
    109          6           0       -2.694339   -2.042324   -4.341381
    110          6           0       -1.929604   -1.401622   -3.205575
    111          7           0       -6.482255   -1.748040   -0.559305
    112          6           0       -5.972808   -2.819463   -1.325203
    113          6           0       -6.375821   -4.069008   -0.647964
    114          6           0       -7.117228   -3.634901    0.461242
    115          6           0       -7.189501   -2.215657    0.463248
    116          6           0       -6.093542   -5.388767   -1.100384
    117          6           0       -7.864159   -4.054908    1.625020
    118          8           0       -8.071541   -5.132238    2.181888
    119          6           0       -8.654840   -2.800655    2.197784
    120          6           0       -8.434640   -2.752329    3.684956
    121          8           0       -7.301351   -2.536534    4.149407
    122          8           0       -9.627584   -2.751728    4.307249
    123          6           0       -9.461677   -2.693463    5.784031
    124          1           0       -9.198571    3.722309   -0.109686
    125          1           0       -4.679683    2.554927   -4.260377
    126          1           0       -4.887332   -3.560731   -2.849606
    127          1           0      -10.434569   -0.243190    2.558910
    128          1           0      -10.146544    2.495658    1.964888
    129          1           0      -11.450063    0.231575    0.510615
    130          1           0      -10.853652    1.540661   -0.530963
    131          1           0      -12.019476    1.933258    0.696376
    132          1           0       -8.402435    1.817448    3.447711
    133          1           0       -8.186302    0.114481    3.993967
    134          1           0      -10.868495    0.887733    4.555654
    135          1           0       -9.937752    2.328011    4.765877
    136          1           0       -8.417684    5.649982   -0.448821
    137          1           0       -7.854309    6.326107   -1.940355
    138          1           0       -6.789037    6.445890   -0.519932
    139          1           0       -6.010499    6.975035   -3.014885
    140          1           0       -4.212379    7.124530   -3.452086
    141          1           0       -4.772217    6.750030   -1.796860
    142          1           0       -3.291321    0.512864   -4.894476
    143          1           0       -4.648160   -2.126638   -5.115380
    144          1           0       -4.221712    0.647960   -6.954873
    145          1           0       -5.825616    0.711430   -6.142778
    146          1           0       -5.208101   -0.778617   -6.646801
    147          1           0       -2.148911   -1.801965   -5.257299
    148          1           0       -2.667301   -3.120513   -4.224004
    149          1           0       -1.573093   -0.465337   -3.645311
    150          1           0       -1.099584   -2.034297   -2.897657
    151          1           0       -2.599058   -1.142764   -2.377029
    152          1           0       -5.787650   -5.956851   -0.231930
    153          1           0       -5.322952   -5.389452   -1.868480
    154          1           0       -7.071290   -5.671399   -1.499611
    155          1           0       -9.707256   -2.932991    1.943847
    156          1           0      -10.000343   -3.550438    6.200106
    157          1           0       -9.808240   -1.686680    6.084096
    158          1           0       -8.467201   -2.854575    6.183403
 ---------------------------------------------------------------------

 SCF Done:  E(RCAM-B3LYP) =  -4069.81187062     A.U. after   19 cycles

 Excitation energies and oscillator strengths:

 Excited State   1:      Singlet-A      1.6651 eV  744.60 nm  f=0.0099  <S**2>=0.000
     309 -> 315       -0.10915
     310 -> 316        0.13197
     311 -> 314       -0.43609
     312 -> 313        0.53036
 This state for optimization and/or second-order correction.
 Total Energy, E(TD-HF/TD-DFT) =  -4069.75067870
 Copying the excited state density for this state as the 1-particle RhoCI density.

 Excited State   2:      Singlet-A      1.6888 eV  734.14 nm  f=0.7349  <S**2>=0.000
     309 -> 315        0.13742
     310 -> 316        0.11233
     311 -> 314        0.52919
     312 -> 313        0.43522

 Excited State   3:      Singlet-A      2.1847 eV  567.50 nm  f=0.0601  <S**2>=0.000
     309 -> 314        0.15779
     310 -> 313        0.62327
     312 -> 316       -0.26387

 Excited State   4:      Singlet-A      2.1930 eV  565.36 nm  f=0.1330  <S**2>=0.000
     309 -> 314        0.62109
     310 -> 313       -0.15646
     311 -> 315       -0.27018

 Excited State   5:      Singlet-A      2.7152 eV  456.63 nm  f=0.0000  <S**2>=0.000
     312 -> 314        0.70705

 The electronic state is 1-A.
 Alpha  occ. eigenvalues --  -46.87690 -46.87551 -19.26265 -19.26236 -19.19069
 Alpha  occ. eigenvalues --  -19.18967 -19.18716 -19.18645 -19.18076 -19.17949
 Alpha  occ. eigenvalues --  -14.42393 -14.42348 -14.41342 -14.41244 -14.39296
 Alpha  occ. eigenvalues --  -14.39247 -14.38488 -14.38480 -10.39023 -10.38999
 Alpha  occ. eigenvalues --  -10.35350 -10.35325 -10.34298 -10.34126 -10.31681
 Alpha  occ. eigenvalues --  -10.31650 -10.31305 -10.31201 -10.30930 -10.30814
 Alpha  occ. eigenvalues --  -10.30464 -10.30400 -10.30287 -10.30248 -10.30095
 Alpha  occ. eigenvalues --  -10.30026 -10.29812 -10.29775 -10.29524 -10.29333
 Alpha  occ. eigenvalues --  -10.29294 -10.29147 -10.28670 -10.28634 -10.28584
 Alpha  occ. eigenvalues --  -10.28487 -10.28304 -10.28264 -10.28054 -10.28031
 Alpha  occ. eigenvalues --  -10.27895 -10.27687 -10.27624 -10.27566 -10.27479
 Alpha  occ. eigenvalues --  -10.27388 -10.27380 -10.27377 -10.27374 -10.27366
 Alpha  occ. eigenvalues --  -10.27365 -10.27335 -10.27305 -10.27250 -10.27077
 Alpha  occ. eigenvalues --  -10.26954 -10.26638 -10.26612 -10.26372 -10.26314
 Alpha  occ. eigenvalues --  -10.26153 -10.26035 -10.25947 -10.25915 -10.25907
 Alpha  occ. eigenvalues --  -10.25809 -10.25722 -10.25705 -10.25334 -10.25305
 Alpha  occ. eigenvalues --  -10.24766 -10.24729 -10.24683 -10.24583 -10.24514
 Alpha  occ. eigenvalues --  -10.24447  -3.16432  -3.16300  -1.91314  -1.91182
 Alpha  occ. eigenvalues --   -1.90900  -1.90771  -1.90742  -1.90608  -1.16583
 Alpha  occ. eigenvalues --   -1.16557  -1.08555  -1.08537  -1.07117  -1.06899
 Alpha  occ. eigenvalues --   -1.06854  -1.06589  -1.04480  -1.04392  -1.03654
 Alpha  occ. eigenvalues --   -1.03555  -1.03127  -1.02926  -1.02305  -1.02001
 Alpha  occ. eigenvalues --   -0.91883  -0.91876  -0.89402  -0.89357  -0.89103
 Alpha  occ. eigenvalues --   -0.89059  -0.88171  -0.88082  -0.87761  -0.87675
 Alpha  occ. eigenvalues --   -0.87579  -0.87573  -0.87169  -0.87033  -0.84907
 Alpha  occ. eigenvalues --   -0.84895  -0.83818  -0.83727  -0.82861  -0.82841
 Alpha  occ. eigenvalues --   -0.82560  -0.82558  -0.81506  -0.81495  -0.80505
 Alpha  occ. eigenvalues --   -0.80343  -0.78691  -0.78535  -0.77115  -0.77036
 Alpha  occ. eigenvalues --   -0.76847  -0.76787  -0.75837  -0.75742  -0.74793
 Alpha  occ. eigenvalues --   -0.74684  -0.72667  -0.72584  -0.71575  -0.71479
 Alpha  occ. eigenvalues --   -0.69777  -0.69583  -0.68782  -0.68731  -0.67542
 Alpha  occ. eigenvalues --   -0.67501  -0.67135  -0.67116  -0.65198  -0.65176
 Alpha  occ. eigenvalues --   -0.64758  -0.64658  -0.64550  -0.64526  -0.64156
 Alpha  occ. eigenvalues --   -0.64065  -0.62221  -0.62175  -0.60336  -0.60241
 Alpha  occ. eigenvalues --   -0.59712  -0.59701  -0.58886  -0.58883  -0.58404
 Alpha  occ. eigenvalues --   -0.58317  -0.57501  -0.57454  -0.57206  -0.57123
 Alpha  occ. eigenvalues --   -0.56209  -0.56098  -0.55911  -0.55794  -0.55423
 Alpha  occ. eigenvalues --   -0.55365  -0.55237  -0.55121  -0.54431  -0.54358
 Alpha  occ. eigenvalues --   -0.53823  -0.53811  -0.53196  -0.53132  -0.53122
 Alpha  occ. eigenvalues --   -0.53046  -0.52827  -0.52800  -0.52661  -0.52593
 Alpha  occ. eigenvalues --   -0.52304  -0.52207  -0.51803  -0.51755  -0.51573
 Alpha  occ. eigenvalues --   -0.51530  -0.51096  -0.51083  -0.50467  -0.50393
 Alpha  occ. eigenvalues --   -0.49915  -0.49885  -0.49819  -0.49733  -0.49424
 Alpha  occ. eigenvalues --   -0.49402  -0.49120  -0.49109  -0.49009  -0.49005
 Alpha  occ. eigenvalues --   -0.48506  -0.48462  -0.48356  -0.48352  -0.48263
 Alpha  occ. eigenvalues --   -0.48255  -0.47598  -0.47494  -0.47199  -0.47023
 Alpha  occ. eigenvalues --   -0.46691  -0.46591  -0.46471  -0.46461  -0.46255
 Alpha  occ. eigenvalues --   -0.46155  -0.46063  -0.45972  -0.45732  -0.45713
 Alpha  occ. eigenvalues --   -0.45092  -0.45086  -0.44485  -0.44421  -0.44407
 Alpha  occ. eigenvalues --   -0.44365  -0.44038  -0.44032  -0.43997  -0.43941
 Alpha  occ. eigenvalues --   -0.43926  -0.43854  -0.43441  -0.43410  -0.43288
 Alpha  occ. eigenvalues --   -0.43286  -0.42928  -0.42832  -0.42794  -0.42630
 Alpha  occ. eigenvalues --   -0.42539  -0.42413  -0.41898  -0.41817  -0.41606
 Alpha  occ. eigenvalues --   -0.41562  -0.41445  -0.41349  -0.41045  -0.40890
 Alpha  occ. eigenvalues --   -0.40773  -0.40727  -0.40645  -0.40592  -0.40459
 Alpha  occ. eigenvalues --   -0.40352  -0.40158  -0.40148  -0.39305  -0.39239
 Alpha  occ. eigenvalues --   -0.38359  -0.38223  -0.37669  -0.37563  -0.37209
 Alpha  occ. eigenvalues --   -0.37174  -0.37141  -0.37101  -0.36671  -0.36641
 Alpha  occ. eigenvalues --   -0.36102  -0.36100  -0.34182  -0.34144  -0.33767
 Alpha  occ. eigenvalues --   -0.33709  -0.33085  -0.33066  -0.31246  -0.31203
 Alpha  occ. eigenvalues --   -0.30935  -0.30869  -0.29937  -0.29852  -0.29344
 Alpha  occ. eigenvalues --   -0.29228  -0.29216  -0.29102  -0.23977  -0.23927
 Alpha  occ. eigenvalues --   -0.21022  -0.21008
 Alpha virt. eigenvalues --   -0.08687  -0.08669  -0.01644  -0.01577   0.00042
 Alpha virt. eigenvalues --    0.00059   0.02302   0.02316   0.03250   0.03359
 Alpha virt. eigenvalues --    0.04810   0.04828   0.05159   0.05258   0.06245

 Mulliken charges:
               1
     1  Mg   0.839124
     2  C   -0.003197
     3  C   -0.094084
     4  C   -0.045802
     5  C   -0.063724
     6  N   -0.256777
     7  C   -0.052511
     8  C   -0.014075
     9  C   -0.087003
    10  C    0.046296
    11  C    0.104840
    12  C    0.053500
    13  C   -0.071561
    14  H    0.035276
    15  N   -0.433111
    16  C    0.168512
    17  C   -0.177080
    18  C   -0.003974
    19  C    0.148770
    20  C    0.110169
    21  C    0.012352
    22  O   -0.249820
    23  C    0.062393
    24  N   -0.341199
    25  C    0.041295
    26  C   -0.028109
    27  C   -0.024040
    28  C    0.074952
    29  C    0.076248
    30  C    0.035068
    31  C   -0.004611
    32  N   -0.310493
    33  C    0.080507
    34  C   -0.169378
    35  C    0.008273
    36  C    0.083087
    37  C    0.127246
    38  C    0.046100
    39  O   -0.188576
    40  C   -0.005369
    41  C    0.212957
    42  O   -0.257503
    43  O   -0.304678
    44  C    0.157894
    45  H   -0.017756
    46  H   -0.016942
    47  H   -0.041205
    48  H    0.000773
    49  H   -0.004059
    50  H    0.025381
    51  H    0.016473
    52  H    0.016511
    53  H    0.011514
    54  H    0.043725
    55  H    0.017872
    56  H    0.018153
    57  H    0.005804
    58  H    0.026566
    59  H    0.039942
    60  H    0.037206
    61  H    0.035282
    62  H    0.031966
    63  H    0.016612
    64  H    0.009330
    65  H    0.023036
    66  H    0.012354
    67  H    0.004676
    68  H    0.006206
    69  H    0.005025
    70  H    0.008520
    71  H    0.019369
    72  H    0.028980
    73  H    0.047858
    74  H    0.009500
    75  H    0.045800
    76  H    0.035047
    77  H    0.042922
    78  H    0.046317
    79  H    0.053062
    80  Mg   0.838164
    81  C   -0.016927
    82  C   -0.087961
    83  C   -0.045565
    84  C   -0.064507
    85  N   -0.254567
    86  C   -0.049807
    87  C   -0.015123
    88  C   -0.090474
    89  C    0.045699
    90  C    0.114456
    91  C    0.062566
    92  C   -0.077774
    93  H    0.034702
    94  N   -0.423397
    95  C    0.162812
    96  C   -0.174847
    97  C   -0.008050
    98  C    0.152112
    99  C    0.099437
   100  C    0.015368
   101  O   -0.253815
   102  C    0.061307
   103  N   -0.350200
   104  C    0.037623
   105  C   -0.019578
   106  C   -0.035054
   107  C    0.089306
   108  C    0.073893
   109  C    0.034663
   110  C   -0.008338
   111  N   -0.324245
   112  C    0.078825
   113  C   -0.162458
   114  C    0.002193
   115  C    0.096477
   116  C    0.131317
   117  C    0.042580
   118  O   -0.187780
   119  C    0.000820
   120  C    0.211251
   121  O   -0.250875
   122  O   -0.305690
   123  C    0.152087
   124  H   -0.020017
   125  H   -0.016025
   126  H   -0.039626
   127  H   -0.000786
   128  H   -0.004505
   129  H    0.022355
   130  H    0.014358
   131  H    0.016007
   132  H    0.013977
   133  H    0.037748
   134  H    0.020666
   135  H    0.019491
   136  H    0.008627
   137  H    0.025714
   138  H    0.039567
   139  H    0.038157
   140  H    0.035533
   141  H    0.034007
   142  H    0.014242
   143  H    0.012131
   144  H    0.024463
   145  H    0.011271
   146  H    0.005531
   147  H    0.005795
   148  H    0.004761
   149  H    0.009743
   150  H    0.022601
   151  H    0.029371
   152  H    0.046601
   153  H    0.009497
   154  H    0.046600
   155  H    0.034817
   156  H    0.043790
   157  H    0.049350
   158  H    0.053566
 Sum of Mulliken charges =  -0.00000

 Dipole moment (field-independent basis, Debye):
    X=             -0.1057    Y=              6.9375    Z=             -2.5084  Tot=              7.3778
 Quadrupole moment (field-independent basis, Debye-Ang):
   XX=           -440.7313   YY=           -538.2904   ZZ=           -475.7399
   XY=            -18.4529   XZ=            -25.0239   YZ=              9.5819

 Normal termination of Gaussian 16 at Sat Sep 11 05:45:17 2021.
