 Gaussian 16, Revision A.03,
 Gaussian 16:  ES64L-G16RevA.03 25-Dec-2016

 -----------------------------------
 #p cam-b3lyp/Def2SVP td=(nstates=5)
 -----------------------------------

 --------------------------------
 TDDFT excited states in gaussian
 --------------------------------
 Symbolic Z-matrix:
 Charge =  0 Multiplicity = 1

                         Standard orientation:
 ---------------------------------------------------------------------
 Center     Atomic      Atomic             Coordinates (Angstroms)
 Number     Number       Type             X           Y           Z
 ---------------------------------------------------------------------
      1         12           0        6.655659    0.595667    0.965998
      2          6           0        7.215642   -2.420220   -0.878739
      3          6           0        7.919635    2.291988   -1.711300
      4          6           0        6.595064    3.223370    2.740295
      5          6           0        6.516773   -1.364966    3.843895
      6          7           0        7.434047   -0.088866   -0.990062
      7          6           0        7.538543   -1.266861   -1.597170
      8          6           0        7.951903   -1.155350   -3.095192
      9          6           0        8.675195    0.264845   -3.051698
     10          6           0        7.942605    0.874425   -1.869476
     11          6           0       10.161388    0.181731   -2.718793
     12          6           0        6.714008   -1.138692   -4.053874
     13          6           0        7.031983   -1.360195   -5.535489
     14          1           0        6.086744   -2.108469   -6.350325
     15          7           0        6.714686    2.498822    0.439342
     16          6           0        7.253305    3.009108   -0.694141
     17          6           0        7.047294    4.471591   -0.620767
     18          6           0        6.515253    4.788771    0.733641
     19          6           0        6.613004    3.502945    1.375883
     20          6           0        7.300913    5.396991   -1.771012
     21          6           0        6.010227    6.052794    1.354388
     22          8           0        5.812667    6.160829    2.612908
     23          6           0        5.834692    7.204026    0.450567
     24          7           0        6.787047    0.923204    3.023446
     25          6           0        6.674261    2.153949    3.534847
     26          6           0        6.515728    2.113256    5.025870
     27          6           0        6.298965    0.577498    5.405627
     28          6           0        6.461504   -0.039715    3.994635
     29          6           0        7.687808    2.679562    5.839220
     30          6           0        5.029605    0.227408    6.222070
     31          6           0        3.796406    0.458556    5.377742
     32          7           0        6.653683   -1.527584    1.416380
     33          6           0        6.611836   -2.119958    2.686819
     34          6           0        6.740427   -3.575464    2.489242
     35          6           0        6.865610   -3.728383    1.109825
     36          6           0        6.844579   -2.447559    0.487458
     37          6           0        6.789878   -4.555212    3.519815
     38          6           0        7.036982   -4.674175    0.018970
     39          8           0        7.029051   -5.902578   -0.072990
     40          6           0        7.392755   -3.857531   -1.301009
     41          6           0        6.516734   -4.378335   -2.407652
     42          8           0        5.281464   -4.202772   -2.382122
     43          8           0        7.285810   -4.787151   -3.428403
     44          6           0        6.477457   -5.288525   -4.571795
     45          1           0        8.512109    2.908499   -2.390144
     46          1           0        6.463233    4.096584    3.382599
     47          1           0        6.397011   -2.045821    4.688612
     48          1           0        8.652562   -1.919829   -3.431455
     49          1           0        8.486680    0.845362   -3.954573
     50          1           0       10.450941   -0.831068   -2.438940
     51          1           0       10.311056    0.865211   -1.882762
     52          1           0       10.764396    0.573963   -3.538129
     53          1           0        6.308847   -0.127870   -4.100178
     54          1           0        5.967502   -1.865950   -3.732706
     55          1           0        8.042970   -1.744780   -5.673001
     56          1           0        7.041557   -0.389620   -6.031566
     57          1           0        7.842754    4.898737   -2.573942
     58          1           0        7.987407    6.165403   -1.416079
     59          1           0        6.384032    5.862122   -2.133385
     60          1           0        6.789485    7.441907   -0.018828
     61          1           0        5.382415    7.992035    1.051681
     62          1           0        5.158805    6.919546   -0.356401
     63          1           0        5.644828    2.685821    5.342301
     64          1           0        7.118936    0.185393    6.007770
     65          1           0        7.401945    3.483923    6.517446
     66          1           0        8.454157    3.011831    5.139509
     67          1           0        8.235187    1.942509    6.426201
     68          1           0        4.948135    0.876505    7.093265
     69          1           0        5.015452   -0.804025    6.574486
     70          1           0        3.614942    1.525893    5.498967
     71          1           0        2.958726   -0.125762    5.759939
     72          1           0        3.998081    0.280240    4.321325
     73          1           0        6.152467   -5.376003    3.191213
     74          1           0        6.450436   -4.146526    4.471318
     75          1           0        7.853790   -4.791727    3.522699
     76          1           0        8.450009   -4.029372   -1.500528
     77          1           0        6.817131   -6.302132   -4.785002
     78          1           0        6.569473   -4.546649   -5.365242
     79          1           0        5.419318   -5.463401   -4.374062
     80         12           0       -6.410882    0.306237   -1.057815
     81          6           0       -8.005098   -1.607887    1.525541
     82          6           0       -8.386926    2.926723   -0.128890
     83          6           0       -5.354325    1.876858   -3.604234
     84          6           0       -5.422905   -2.712273   -2.492447
     85          7           0       -7.956978    0.510323    0.510690
     86          6           0       -8.434341   -0.265371    1.472340
     87          6           0       -9.366787    0.459231    2.479838
     88          6           0       -9.845336    1.668479    1.537736
     89          6           0       -8.643157    1.736835    0.598175
     90          6           0      -11.077950    1.337292    0.712911
     91          6           0       -8.592641    0.984259    3.739632
     92          6           0       -9.482696    1.426226    4.903341
     93          1           0       -9.016585    1.186188    6.266279
     94          7           0       -6.436319    2.247054   -1.471499
     95          6           0       -7.293426    3.170845   -0.988524
     96          6           0       -6.905755    4.444972   -1.613396
     97          6           0       -5.854965    4.168171   -2.630223
     98          6           0       -5.855978    2.719019   -2.622566
     99          6           0       -7.461178    5.768717   -1.174500
    100          6           0       -5.000736    5.059997   -3.479419
    101          8           0       -4.322450    4.602429   -4.466024
    102          6           0       -5.054715    6.498403   -3.180131
    103          7           0       -5.700463   -0.322560   -2.907748
    104          6           0       -5.255271    0.564219   -3.815135
    105          6           0       -4.541247   -0.129212   -4.950797
    106          6           0       -4.387616   -1.654203   -4.494327
    107          6           0       -5.151989   -1.595264   -3.153562
    108          6           0       -5.239943   -0.072751   -6.309119
    109          6           0       -2.953151   -2.249966   -4.501795
    110          6           0       -2.111315   -1.581931   -3.438589
    111          7           0       -6.491635   -1.780090   -0.502115
    112          6           0       -6.043363   -2.883033   -1.261489
    113          6           0       -6.416652   -4.103921   -0.518186
    114          6           0       -7.081824   -3.623402    0.619854
    115          6           0       -7.138132   -2.204036    0.578054
    116          6           0       -6.178054   -5.441615   -0.942198
    117          6           0       -7.758500   -3.994563    1.841751
    118          8           0       -7.942260   -5.049934    2.446867
    119          6           0       -8.497590   -2.711629    2.419866
    120          6           0       -8.183558   -2.616724    3.887821
    121          8           0       -7.020926   -2.400539    4.272755
    122          8           0       -9.334821   -2.579702    4.583222
    123          6           0       -9.075514   -2.474495    6.043872
    124          1           0       -9.113593    3.737495   -0.069784
    125          1           0       -4.878519    2.373177   -4.453204
    126          1           0       -5.064399   -3.688860   -2.824761
    127          1           0      -10.222640   -0.120343    2.804463
    128          1           0       -9.942389    2.593180    2.100644
    129          1           0      -11.359934    0.299299    0.808811
    130          1           0      -10.815941    1.565013   -0.312050
    131          1           0      -11.897663    2.013577    0.971827
    132          1           0       -8.115865    1.941802    3.493554
    133          1           0       -7.884572    0.255261    4.082877
    134          1           0      -10.517307    1.082034    4.784792
    135          1           0       -9.559300    2.516137    4.887138
    136          1           0       -8.334373    5.642359   -0.522617
    137          1           0       -7.858708    6.260982   -2.068656
    138          1           0       -6.704748    6.413947   -0.722644
    139          1           0       -6.079245    6.849442   -3.278031
    140          1           0       -4.310727    6.960611   -3.831827
    141          1           0       -4.769204    6.648824   -2.133005
    142          1           0       -3.555538    0.293028   -5.103103
    143          1           0       -4.952701   -2.334264   -5.148578
    144          1           0       -4.612422    0.371703   -7.104579
    145          1           0       -6.161141    0.483296   -6.196262
    146          1           0       -5.593138   -1.030716   -6.686944
    147          1           0       -2.463936   -2.047433   -5.457719
    148          1           0       -2.930687   -3.323917   -4.349693
    149          1           0       -1.772909   -0.665583   -3.931418
    150          1           0       -1.270565   -2.214885   -3.161904
    151          1           0       -2.724300   -1.286854   -2.579036
    152          1           0       -5.824329   -5.984443   -0.075763
    153          1           0       -5.457483   -5.478006   -1.756582
    154          1           0       -7.182095   -5.724473   -1.269536
    155          1           0       -9.565324   -2.838476    2.236999
    156          1           0       -9.596314   -3.309973    6.521807
    157          1           0       -9.391329   -1.453802    6.330599
    158          1           0       -8.059681   -2.635306    6.385431
 ---------------------------------------------------------------------

 SCF Done:  E(RCAM-B3LYP) =  -4069.81183751     A.U. after   19 cycles

 Excitation energies and oscillator strengths:

 Excited State   1:      Singlet-A      1.6652 eV  744.57 nm  f=0.0098  <S**2>=0.000
     309 -> 315        0.10932
     310 -> 316       -0.13183
     311 -> 314        0.43677
     312 -> 313        0.52979
 This state for optimization and/or second-order correction.
 Total Energy, E(TD-HF/TD-DFT) =  -4069.75064315
 Copying the excited state density for this state as the 1-particle RhoCI density.

 Excited State   2:      Singlet-A      1.6888 eV  734.16 nm  f=0.7353  <S**2>=0.000
     309 -> 315        0.13725
     310 -> 316        0.11250
     311 -> 314        0.52862
     312 -> 313       -0.43590

 Excited State   3:      Singlet-A      2.1847 eV  567.51 nm  f=0.0570  <S**2>=0.000
     309 -> 314       -0.16371
     310 -> 313        0.62175
     312 -> 316        0.26322

 Excited State   4:      Singlet-A      2.1929 eV  565.38 nm  f=0.1355  <S**2>=0.000
     309 -> 314        0.61957
     310 -> 313        0.16236
     311 -> 315       -0.26949

 Excited State   5:      Singlet-A      2.7148 eV  456.70 nm  f=0.0000  <S**2>=0.000
     311 -> 313        0.70709

 The electronic state is 1-A.
 Alpha  occ. eigenvalues --  -46.87683 -46.87553 -19.26265 -19.26224 -19.19069
 Alpha  occ. eigenvalues --  -19.18954 -19.18714 -19.18646 -19.18068 -19.17949
 Alpha  occ. eigenvalues --  -14.42395 -14.42342 -14.41336 -14.41248 -14.39291
 Alpha  occ. eigenvalues --  -14.39249 -14.38490 -14.38473 -10.39011 -10.38999
 Alpha  occ. eigenvalues --  -10.35348 -10.35326 -10.34289 -10.34127 -10.31681
 Alpha  occ. eigenvalues --  -10.31637 -10.31298 -10.31203 -10.30932 -10.30807
 Alpha  occ. eigenvalues --  -10.30457 -10.30394 -10.30289 -10.30250 -10.30091
 Alpha  occ. eigenvalues --  -10.30030 -10.29805 -10.29779 -10.29519 -10.29335
 Alpha  occ. eigenvalues --  -10.29296 -10.29141 -10.28662 -10.28635 -10.28584
 Alpha  occ. eigenvalues --  -10.28477 -10.28306 -10.28257 -10.28055 -10.28024
 Alpha  occ. eigenvalues --  -10.27897 -10.27681 -10.27618 -10.27568 -10.27474
 Alpha  occ. eigenvalues --  -10.27389 -10.27382 -10.27375 -10.27373 -10.27372
 Alpha  occ. eigenvalues --  -10.27367 -10.27331 -10.27298 -10.27257 -10.27068
 Alpha  occ. eigenvalues --  -10.26955 -10.26628 -10.26612 -10.26374 -10.26315
 Alpha  occ. eigenvalues --  -10.26147 -10.26030 -10.25949 -10.25932 -10.25900
 Alpha  occ. eigenvalues --  -10.25813 -10.25714 -10.25708 -10.25330 -10.25309
 Alpha  occ. eigenvalues --  -10.24768 -10.24722 -10.24677 -10.24586 -10.24507
 Alpha  occ. eigenvalues --  -10.24465  -3.16426  -3.16302  -1.91307  -1.91185
 Alpha  occ. eigenvalues --   -1.90894  -1.90773  -1.90736  -1.90610  -1.16571
 Alpha  occ. eigenvalues --   -1.16557  -1.08556  -1.08528  -1.07116  -1.06901
 Alpha  occ. eigenvalues --   -1.06854  -1.06576  -1.04474  -1.04394  -1.03648
 Alpha  occ. eigenvalues --   -1.03558  -1.03121  -1.02929  -1.02299  -1.02004
 Alpha  occ. eigenvalues --   -0.91885  -0.91868  -0.89396  -0.89363  -0.89095
 Alpha  occ. eigenvalues --   -0.89061  -0.88166  -0.88089  -0.87754  -0.87677
 Alpha  occ. eigenvalues --   -0.87581  -0.87567  -0.87166  -0.87035  -0.84908
 Alpha  occ. eigenvalues --   -0.84887  -0.83813  -0.83734  -0.82859  -0.82845
 Alpha  occ. eigenvalues --   -0.82561  -0.82553  -0.81498  -0.81497  -0.80498
 Alpha  occ. eigenvalues --   -0.80346  -0.78687  -0.78537  -0.77108  -0.77039
 Alpha  occ. eigenvalues --   -0.76840  -0.76790  -0.75829  -0.75743  -0.74787
 Alpha  occ. eigenvalues --   -0.74688  -0.72661  -0.72587  -0.71569  -0.71482
 Alpha  occ. eigenvalues --   -0.69771  -0.69593  -0.68775  -0.68733  -0.67536
 Alpha  occ. eigenvalues --   -0.67503  -0.67129  -0.67117  -0.65191  -0.65177
 Alpha  occ. eigenvalues --   -0.64751  -0.64661  -0.64552  -0.64519  -0.64150
 Alpha  occ. eigenvalues --   -0.64072  -0.62212  -0.62178  -0.60331  -0.60244
 Alpha  occ. eigenvalues --   -0.59705  -0.59703  -0.58886  -0.58879  -0.58398
 Alpha  occ. eigenvalues --   -0.58320  -0.57492  -0.57455  -0.57200  -0.57127
 Alpha  occ. eigenvalues --   -0.56203  -0.56100  -0.55901  -0.55796  -0.55418
 Alpha  occ. eigenvalues --   -0.55366  -0.55230  -0.55126  -0.54422  -0.54364
 Alpha  occ. eigenvalues --   -0.53824  -0.53803  -0.53191  -0.53125  -0.53125
 Alpha  occ. eigenvalues --   -0.53048  -0.52819  -0.52803  -0.52657  -0.52594
 Alpha  occ. eigenvalues --   -0.52298  -0.52219  -0.51796  -0.51758  -0.51575
 Alpha  occ. eigenvalues --   -0.51524  -0.51089  -0.51087  -0.50465  -0.50395
 Alpha  occ. eigenvalues --   -0.49910  -0.49887  -0.49815  -0.49739  -0.49419
 Alpha  occ. eigenvalues --   -0.49404  -0.49113  -0.49110  -0.49007  -0.49002
 Alpha  occ. eigenvalues --   -0.48498  -0.48464  -0.48351  -0.48347  -0.48266
 Alpha  occ. eigenvalues --   -0.48258  -0.47592  -0.47497  -0.47193  -0.47025
 Alpha  occ. eigenvalues --   -0.46685  -0.46595  -0.46464  -0.46463  -0.46248
 Alpha  occ. eigenvalues --   -0.46159  -0.46056  -0.45975  -0.45723  -0.45715
 Alpha  occ. eigenvalues --   -0.45091  -0.45087  -0.44478  -0.44422  -0.44401
 Alpha  occ. eigenvalues --   -0.44368  -0.44034  -0.44032  -0.43990  -0.43947
 Alpha  occ. eigenvalues --   -0.43920  -0.43855  -0.43444  -0.43402  -0.43288
 Alpha  occ. eigenvalues --   -0.43282  -0.42921  -0.42833  -0.42796  -0.42620
 Alpha  occ. eigenvalues --   -0.42533  -0.42419  -0.41891  -0.41824  -0.41599
 Alpha  occ. eigenvalues --   -0.41565  -0.41438  -0.41352  -0.41039  -0.40892
 Alpha  occ. eigenvalues --   -0.40766  -0.40723  -0.40647  -0.40595  -0.40453
 Alpha  occ. eigenvalues --   -0.40359  -0.40150  -0.40149  -0.39299  -0.39250
 Alpha  occ. eigenvalues --   -0.38353  -0.38229  -0.37661  -0.37565  -0.37203
 Alpha  occ. eigenvalues --   -0.37167  -0.37145  -0.37103  -0.36673  -0.36631
 Alpha  occ. eigenvalues --   -0.36104  -0.36094  -0.34175  -0.34146  -0.33767
 Alpha  occ. eigenvalues --   -0.33696  -0.33078  -0.33069  -0.31244  -0.31205
 Alpha  occ. eigenvalues --   -0.30928  -0.30871  -0.29928  -0.29853  -0.29338
 Alpha  occ. eigenvalues --   -0.29230  -0.29209  -0.29104  -0.23970  -0.23930
 Alpha  occ. eigenvalues --   -0.21015  -0.21011
 Alpha virt. eigenvalues --   -0.08689  -0.08664  -0.01638  -0.01579   0.00046
 Alpha virt. eigenvalues --    0.00057   0.02309   0.02314   0.03258   0.03358
 Alpha virt. eigenvalues --    0.04817   0.04826   0.05171   0.05257   0.06254

 Mulliken charges:
               1
     1  Mg   0.839166
     2  C   -0.003155
     3  C   -0.094091
     4  C   -0.045825
     5  C   -0.063735
     6  N   -0.256775
     7  C   -0.052491
     8  C   -0.014067
     9  C   -0.087011
    10  C    0.046296
    11  C    0.104850
    12  C    0.053494
    13  C   -0.071567
    14  H    0.035341
    15  N   -0.433099
    16  C    0.168489
    17  C   -0.177114
    18  C   -0.004025
    19  C    0.148767
    20  C    0.110184
    21  C    0.012308
    22  O   -0.249855
    23  C    0.062416
    24  N   -0.341194
    25  C    0.041286
    26  C   -0.028097
    27  C   -0.024057
    28  C    0.074989
    29  C    0.076263
    30  C    0.035074
    31  C   -0.004614
    32  N   -0.310520
    33  C    0.080559
    34  C   -0.169328
    35  C    0.008282
    36  C    0.083136
    37  C    0.127233
    38  C    0.046158
    39  O   -0.188537
    40  C   -0.005389
    41  C    0.212940
    42  O   -0.257372
    43  O   -0.304712
    44  C    0.157883
    45  H   -0.017779
    46  H   -0.016979
    47  H   -0.041195
    48  H    0.000768
    49  H   -0.004070
    50  H    0.025376
    51  H    0.016456
    52  H    0.016493
    53  H    0.011517
    54  H    0.043819
    55  H    0.017839
    56  H    0.018126
    57  H    0.005807
    58  H    0.026543
    59  H    0.039856
    60  H    0.037220
    61  H    0.035232
    62  H    0.031883
    63  H    0.016582
    64  H    0.009318
    65  H    0.023002
    66  H    0.012348
    67  H    0.004664
    68  H    0.006163
    69  H    0.005042
    70  H    0.008461
    71  H    0.019443
    72  H    0.029019
    73  H    0.047920
    74  H    0.009508
    75  H    0.045781
    76  H    0.035026
    77  H    0.042892
    78  H    0.046300
    79  H    0.053135
    80  Mg   0.838166
    81  C   -0.016907
    82  C   -0.087953
    83  C   -0.045566
    84  C   -0.064500
    85  N   -0.254550
    86  C   -0.049792
    87  C   -0.015134
    88  C   -0.090461
    89  C    0.045695
    90  C    0.114444
    91  C    0.062562
    92  C   -0.077777
    93  H    0.034703
    94  N   -0.423380
    95  C    0.162831
    96  C   -0.174826
    97  C   -0.008058
    98  C    0.152102
    99  C    0.099429
   100  C    0.015371
   101  O   -0.253787
   102  C    0.061306
   103  N   -0.350185
   104  C    0.037627
   105  C   -0.019609
   106  C   -0.035041
   107  C    0.089298
   108  C    0.073871
   109  C    0.034671
   110  C   -0.008268
   111  N   -0.324238
   112  C    0.078827
   113  C   -0.162442
   114  C    0.002214
   115  C    0.096483
   116  C    0.131333
   117  C    0.042599
   118  O   -0.187759
   119  C    0.000805
   120  C    0.211252
   121  O   -0.250848
   122  O   -0.305695
   123  C    0.152090
   124  H   -0.020004
   125  H   -0.016008
   126  H   -0.039703
   127  H   -0.000784
   128  H   -0.004498
   129  H    0.022358
   130  H    0.014359
   131  H    0.016016
   132  H    0.013991
   133  H    0.037760
   134  H    0.020664
   135  H    0.019499
   136  H    0.008634
   137  H    0.025724
   138  H    0.039580
   139  H    0.038168
   140  H    0.035547
   141  H    0.033984
   142  H    0.014240
   143  H    0.012137
   144  H    0.024507
   145  H    0.011304
   146  H    0.005533
   147  H    0.005698
   148  H    0.004602
   149  H    0.009795
   150  H    0.022233
   151  H    0.029589
   152  H    0.046640
   153  H    0.009412
   154  H    0.046599
   155  H    0.034820
   156  H    0.043788
   157  H    0.049346
   158  H    0.053569
 Sum of Mulliken charges =  -0.00000

 Dipole moment (field-independent basis, Debye):
    X=             -0.1186    Y=              6.8685    Z=             -2.5920  Tot=              7.3423
 Quadrupole moment (field-independent basis, Debye-Ang):
   XX=           -442.8105   YY=           -537.1569   ZZ=           -475.2711
   XY=            -17.8084   XZ=            -25.5141   YZ=             12.9386

 Normal termination of Gaussian 16 at Sat Sep 11 05:46:44 2021.
