 Gaussian 16, Revision A.03,
 Gaussian 16:  ES64L-G16RevA.03 25-Dec-2016

 -----------------------------------
 #p cam-b3lyp/Def2SVP td=(nstates=5)
 -----------------------------------

 --------------------------------
 TDDFT excited states in gaussian
 --------------------------------
 Symbolic Z-matrix:
 Charge =  0 Multiplicity = 1

                         Standard orientation:
 ---------------------------------------------------------------------
 Center     Atomic      Atomic             Coordinates (Angstroms)
 Number     Number       Type             X           Y           Z
 ---------------------------------------------------------------------
      1         12           0        3.682321    1.061363    0.477072
      2          6           0        3.983655   -1.839755    2.551903
      3          6           0        5.054492   -0.782668   -2.044785
      4          6           0        3.847147    3.725670   -1.234922
      5          6           0        3.412231    2.941584    3.398969
      6          7           0        4.386579   -1.035441    0.387178
      7          6           0        4.391400   -2.059864    1.234352
      8          6           0        4.799353   -3.408888    0.570212
      9          6           0        5.634105   -2.839921   -0.663264
     10          6           0        4.962807   -1.485411   -0.806731
     11          6           0        7.111741   -2.625266   -0.351787
     12          6           0        3.558484   -4.234437    0.090164
     13          6           0        3.844906   -5.695353   -0.269056
     14          1           0        2.835904   -6.700557    0.028984
     15          7           0        3.888586    1.322225   -1.470299
     16          6           0        4.456398    0.459775   -2.347257
     17          6           0        4.368487    1.109449   -3.672729
     18          6           0        3.875229    2.499481   -3.466330
     19          6           0        3.875538    2.580989   -2.028021
     20          6           0        4.685227    0.405798   -4.956591
     21          6           0        3.478162    3.586006   -4.414978
     22          8           0        3.300770    4.792633   -4.031366
     23          6           0        3.387305    3.214369   -5.838591
     24          7           0        3.857264    3.075302    0.997725
     25          6           0        3.847564    4.032818    0.063887
     26          6           0        3.699210    5.393161    0.678214
     27          6           0        3.363787    5.147766    2.219975
     28          6           0        3.464285    3.602529    2.240302
     29          6           0        4.919774    6.316617    0.562190
     30          6           0        2.077642    5.810603    2.773956
     31          6           0        0.859575    5.174149    2.142817
     32          7           0        3.514683    0.641760    2.600012
     33          6           0        3.436667    1.578238    3.640972
     34          6           0        3.446891    0.820229    4.905640
     35          6           0        3.547507   -0.512252    4.510400
     36          6           0        3.623442   -0.580487    3.089883
     37          6           0        3.426863    1.380628    6.213305
     38          6           0        3.633341   -1.892662    4.958685
     39          8           0        3.526535   -2.459083    6.047378
     40          6           0        4.041750   -2.799000    3.714667
     41          6           0        3.117380   -3.985770    3.694029
     42          8           0        1.900345   -3.844673    3.456791
     43          8           0        3.842479   -5.114535    3.719791
     44          6           0        2.986793   -6.330113    3.671590
     45          1           0        5.688407   -1.187784   -2.835970
     46          1           0        3.791044    4.663865   -1.790872
     47          1           0        3.245798    3.455214    4.347619
     48          1           0        5.433781   -4.045617    1.187060
     49          1           0        5.484740   -3.434224   -1.564495
     50          1           0        7.321897   -2.777131    0.706840
     51          1           0        7.322752   -1.594646   -0.637777
     52          1           0        7.737028   -3.247937   -0.992157
     53          1           0        3.234958   -3.864187   -0.882619
     54          1           0        2.759091   -4.195381    0.830955
     55          1           0        4.820721   -6.012559    0.099829
     56          1           0        3.927665   -5.770545   -1.353352
     57          1           0        5.178570   -0.548964   -4.778864
     58          1           0        5.433945    1.006519   -5.472600
     59          1           0        3.805317    0.291581   -5.589872
     60          1           0        4.353944    2.838782   -6.174882
     61          1           0        3.004630    4.093905   -6.355143
     62          1           0        2.683893    2.387844   -5.943547
     63          1           0        2.879593    5.943041    0.217470
     64          1           0        4.155010    5.514793    2.874140
     65          1           0        4.704949    7.266865    0.072717
     66          1           0        5.704122    5.773884    0.035379
     67          1           0        5.411606    6.545046    1.507356
     68          1           0        2.055822    6.869153    2.517165
     69          1           0        1.984214    5.730079    3.857025
     70          1           0        0.764989    5.711701    1.199990
     71          1           0       -0.018753    5.328993    2.770332
     72          1           0        1.037206    4.125478    1.903608
     73          1           0        2.723114    0.781605    6.791127
     74          1           0        3.129399    2.428766    6.190413
     75          1           0        4.468473    1.248469    6.505605
     76          1           0        5.080134   -3.091490    3.867406
     77          1           0        3.242572   -6.937333    4.539977
     78          1           0        3.130887   -6.771583    2.685312
     79          1           0        1.919820   -6.175340    3.835764
     80         12           0       -4.155342    0.173049   -0.383681
     81          6           0       -2.168855   -1.889484   -2.546761
     82          6           0       -6.132047   -2.554150    0.154522
     83          6           0       -6.176467    2.067125    1.163885
     84          6           0       -2.742135    2.943211   -1.956811
     85          7           0       -4.059866   -1.898564   -1.152840
     86          6           0       -3.224971   -2.583201   -1.920011
     87          6           0       -3.492265   -4.111835   -1.957188
     88          6           0       -5.048483   -4.093526   -1.561274
     89          6           0       -5.084625   -2.786227   -0.772389
     90          6           0       -5.972701   -3.954036   -2.759483
     91          6           0       -2.639152   -4.893743   -0.897555
     92          6           0       -2.617027   -6.412484   -1.083781
     93          1           0       -1.389128   -7.135170   -0.763677
     94          7           0       -5.599279   -0.268626    0.904169
     95          6           0       -6.277980   -1.431273    0.998422
     96          6           0       -7.247492   -1.243898    2.088883
     97          6           0       -7.198168    0.179326    2.521002
     98          6           0       -6.318416    0.731323    1.510355
     99          6           0       -8.046576   -2.373855    2.670342
    100          6           0       -7.846927    0.923364    3.648707
    101          8           0       -7.853263    2.204249    3.694841
    102          6           0       -8.555235    0.110900    4.648548
    103          7           0       -4.582654    2.202098   -0.534321
    104          6           0       -5.466570    2.785790    0.293891
    105          6           0       -5.406069    4.290626    0.183486
    106          6           0       -4.123327    4.603995   -0.718699
    107          6           0       -3.697012    3.159935   -1.062715
    108          6           0       -6.634927    4.962679   -0.428600
    109          6           0       -3.060371    5.565919   -0.120785
    110          6           0       -2.383266    4.914816    1.063691
    111          7           0       -2.587028    0.507461   -1.831655
    112          6           0       -2.174760    1.745259   -2.372004
    113          6           0       -1.156208    1.453300   -3.401436
    114          6           0       -1.062493    0.053408   -3.404733
    115          6           0       -1.973901   -0.489807   -2.459352
    116          6           0       -0.495701    2.416678   -4.214938
    117          6           0       -0.407451   -1.088804   -4.000517
    118          8           0        0.518141   -1.241948   -4.796488
    119          6           0       -1.185376   -2.403451   -3.561270
    120          6           0       -0.169131   -3.413232   -3.102895
    121          8           0        0.514759   -3.204555   -2.085363
    122          8           0       -0.324317   -4.547022   -3.810562
    123          6           0        0.654125   -5.582865   -3.384550
    124          1           0       -6.943388   -3.280229    0.213064
    125          1           0       -6.772830    2.771716    1.748151
    126          1           0       -2.183237    3.757439   -2.423012
    127          1           0       -3.361243   -4.572397   -2.929031
    128          1           0       -5.302719   -4.933197   -0.919661
    129          1           0       -5.424732   -3.770866   -3.671795
    130          1           0       -6.622426   -3.118492   -2.534141
    131          1           0       -6.623655   -4.829542   -2.837388
    132          1           0       -3.136393   -4.831410    0.078976
    133          1           0       -1.634597   -4.518929   -0.865568
    134          1           0       -2.993720   -6.712462   -2.069207
    135          1           0       -3.323403   -6.858768   -0.379594
    136          1           0       -7.993091   -3.270271    2.040287
    137          1           0       -9.099655   -2.075215    2.628975
    138          1           0       -7.780407   -2.587875    3.707648
    139          1           0       -9.334046   -0.467804    4.157598
    140          1           0       -8.875233    0.812312    5.421529
    141          1           0       -7.849959   -0.610135    5.076713
    142          1           0       -5.270154    4.744675    1.157379
    143          1           0       -4.400718    5.084464   -1.668461
    144          1           0       -7.091628    5.722830    0.232963
    145          1           0       -7.354709    4.194758   -0.679069
    146          1           0       -6.466885    5.444347   -1.390348
    147          1           0       -3.539574    6.473004    0.255646
    148          1           0       -2.305305    5.873811   -0.836377
    149          1           0       -3.078300    5.113259    1.885049
    150          1           0       -1.412933    5.371159    1.248763
    151          1           0       -2.326054    3.827622    0.935672
    152          1           0        0.548970    2.136719   -4.243032
    153          1           0       -0.627841    3.423838   -3.825160
    154          1           0       -1.025030    2.269596   -5.160157
    155          1           0       -1.749964   -2.754350   -4.425959
    156          1           0        1.201004   -5.893366   -4.280201
    157          1           0        0.061123   -6.357300   -2.862678
    158          1           0        1.466205   -5.269811   -2.738810
 ---------------------------------------------------------------------

 SCF Done:  E(RCAM-B3LYP) =  -4069.81356541     A.U. after   18 cycles

 Excitation energies and oscillator strengths:

 Excited State   1:      Singlet-A      1.6293 eV  760.98 nm  f=0.1287  <S**2>=0.000
     309 -> 315       -0.12001
     310 -> 316        0.10738
     311 -> 313        0.50648
     312 -> 314        0.46564
 This state for optimization and/or second-order correction.
 Total Energy, E(TD-HF/TD-DFT) =  -4069.75369105
 Copying the excited state density for this state as the 1-particle RhoCI density.

 Excited State   2:      Singlet-A      1.7106 eV  724.79 nm  f=0.5928  <S**2>=0.000
     309 -> 315        0.12327
     310 -> 316        0.13299
     311 -> 313       -0.46283
     312 -> 314        0.50325

 Excited State   3:      Singlet-A      2.1723 eV  570.75 nm  f=0.0012  <S**2>=0.000
     309 -> 313       -0.28743
     310 -> 314        0.24144
     311 -> 315       -0.11703
     312 -> 313        0.57423
     312 -> 316       -0.10005

 Excited State   4:      Singlet-A      2.1769 eV  569.55 nm  f=0.0056  <S**2>=0.000
     309 -> 313        0.43882
     310 -> 314       -0.29357
     311 -> 315        0.17970
     312 -> 313        0.40824
     312 -> 316        0.11562

 Excited State   5:      Singlet-A      2.1964 eV  564.48 nm  f=0.1591  <S**2>=0.000
     309 -> 313        0.37310
     310 -> 314        0.51665
     311 -> 315        0.16404
     312 -> 316       -0.22631

 The electronic state is 1-A.
 Alpha  occ. eigenvalues --  -46.87577 -46.87120 -19.26704 -19.25855 -19.19586
 Alpha  occ. eigenvalues --  -19.18633 -19.18529 -19.18319 -19.18312 -19.17622
 Alpha  occ. eigenvalues --  -14.42412 -14.41758 -14.41282 -14.40841 -14.39273
 Alpha  occ. eigenvalues --  -14.38732 -14.38552 -14.37949 -10.39420 -10.38586
 Alpha  occ. eigenvalues --  -10.35307 -10.34948 -10.34446 -10.33844 -10.32167
 Alpha  occ. eigenvalues --  -10.31364 -10.31272 -10.30962 -10.30738 -10.30344
 Alpha  occ. eigenvalues --  -10.30326 -10.30196 -10.30014 -10.29946 -10.29908
 Alpha  occ. eigenvalues --  -10.29831 -10.29618 -10.29415 -10.29357 -10.29346
 Alpha  occ. eigenvalues --  -10.29057 -10.28666 -10.28613 -10.28593 -10.28377
 Alpha  occ. eigenvalues --  -10.28128 -10.28092 -10.28008 -10.27978 -10.27697
 Alpha  occ. eigenvalues --  -10.27594 -10.27449 -10.27435 -10.27413 -10.27368
 Alpha  occ. eigenvalues --  -10.27342 -10.27252 -10.27227 -10.27152 -10.27131
 Alpha  occ. eigenvalues --  -10.27113 -10.27039 -10.26964 -10.26772 -10.26613
 Alpha  occ. eigenvalues --  -10.26567 -10.26470 -10.26298 -10.26007 -10.25946
 Alpha  occ. eigenvalues --  -10.25877 -10.25823 -10.25802 -10.25786 -10.25677
 Alpha  occ. eigenvalues --  -10.25673 -10.25429 -10.25363 -10.25301 -10.25126
 Alpha  occ. eigenvalues --  -10.24872 -10.24630 -10.24588 -10.24222 -10.24217
 Alpha  occ. eigenvalues --  -10.24215  -3.16324  -3.15857  -1.91206  -1.90795
 Alpha  occ. eigenvalues --   -1.90738  -1.90633  -1.90326  -1.90169  -1.16997
 Alpha  occ. eigenvalues --   -1.16189  -1.08912  -1.08096  -1.07313  -1.06883
 Alpha  occ. eigenvalues --   -1.06737  -1.06157  -1.04429  -1.03898  -1.03591
 Alpha  occ. eigenvalues --   -1.03148  -1.02969  -1.02605  -1.02054  -1.01786
 Alpha  occ. eigenvalues --   -0.92009  -0.91364  -0.89392  -0.89091  -0.89078
 Alpha  occ. eigenvalues --   -0.88491  -0.88094  -0.87841  -0.87748  -0.87607
 Alpha  occ. eigenvalues --   -0.87284  -0.87042  -0.86997  -0.86580  -0.84943
 Alpha  occ. eigenvalues --   -0.84341  -0.83790  -0.83577  -0.82831  -0.82618
 Alpha  occ. eigenvalues --   -0.82397  -0.82053  -0.81701  -0.81077  -0.80454
 Alpha  occ. eigenvalues --   -0.80026  -0.78571  -0.78126  -0.77079  -0.76920
 Alpha  occ. eigenvalues --   -0.76703  -0.76391  -0.75858  -0.75365  -0.74748
 Alpha  occ. eigenvalues --   -0.74439  -0.72639  -0.72192  -0.71547  -0.71110
 Alpha  occ. eigenvalues --   -0.69832  -0.69392  -0.68780  -0.68268  -0.67578
 Alpha  occ. eigenvalues --   -0.67125  -0.67061  -0.66554  -0.65260  -0.64786
 Alpha  occ. eigenvalues --   -0.64673  -0.64612  -0.64311  -0.64160  -0.64033
 Alpha  occ. eigenvalues --   -0.63755  -0.62406  -0.61815  -0.60263  -0.59831
 Alpha  occ. eigenvalues --   -0.59742  -0.59135  -0.58963  -0.58445  -0.58410
 Alpha  occ. eigenvalues --   -0.57936  -0.57723  -0.57189  -0.57046  -0.56792
 Alpha  occ. eigenvalues --   -0.56222  -0.55988  -0.55715  -0.55495  -0.55465
 Alpha  occ. eigenvalues --   -0.55302  -0.55015  -0.54917  -0.54497  -0.54089
 Alpha  occ. eigenvalues --   -0.53859  -0.53246  -0.53174  -0.53161  -0.52921
 Alpha  occ. eigenvalues --   -0.52782  -0.52624  -0.52591  -0.52376  -0.52285
 Alpha  occ. eigenvalues --   -0.52182  -0.52100  -0.51723  -0.51601  -0.51388
 Alpha  occ. eigenvalues --   -0.51213  -0.50938  -0.50674  -0.50379  -0.50004
 Alpha  occ. eigenvalues --   -0.49894  -0.49776  -0.49495  -0.49401  -0.49298
 Alpha  occ. eigenvalues --   -0.49225  -0.49126  -0.48915  -0.48647  -0.48628
 Alpha  occ. eigenvalues --   -0.48472  -0.48391  -0.48256  -0.48103  -0.47976
 Alpha  occ. eigenvalues --   -0.47865  -0.47561  -0.47147  -0.47062  -0.46700
 Alpha  occ. eigenvalues --   -0.46647  -0.46524  -0.46321  -0.46206  -0.46057
 Alpha  occ. eigenvalues --   -0.45964  -0.45874  -0.45760  -0.45654  -0.45353
 Alpha  occ. eigenvalues --   -0.45163  -0.44752  -0.44551  -0.44399  -0.44191
 Alpha  occ. eigenvalues --   -0.44088  -0.43976  -0.43958  -0.43902  -0.43669
 Alpha  occ. eigenvalues --   -0.43610  -0.43534  -0.43414  -0.43336  -0.43099
 Alpha  occ. eigenvalues --   -0.43003  -0.42905  -0.42794  -0.42589  -0.42402
 Alpha  occ. eigenvalues --   -0.42274  -0.42234  -0.41866  -0.41693  -0.41550
 Alpha  occ. eigenvalues --   -0.41374  -0.41148  -0.40958  -0.40954  -0.40643
 Alpha  occ. eigenvalues --   -0.40613  -0.40582  -0.40389  -0.40360  -0.40264
 Alpha  occ. eigenvalues --   -0.40133  -0.40082  -0.39487  -0.39350  -0.38723
 Alpha  occ. eigenvalues --   -0.38183  -0.38022  -0.37594  -0.37217  -0.37147
 Alpha  occ. eigenvalues --   -0.37118  -0.36980  -0.36791  -0.36603  -0.36267
 Alpha  occ. eigenvalues --   -0.36107  -0.35647  -0.34262  -0.34105  -0.33663
 Alpha  occ. eigenvalues --   -0.33254  -0.33125  -0.32566  -0.31193  -0.30922
 Alpha  occ. eigenvalues --   -0.30844  -0.30422  -0.30196  -0.29489  -0.29294
 Alpha  occ. eigenvalues --   -0.29186  -0.28811  -0.28693  -0.23975  -0.23439
 Alpha  occ. eigenvalues --   -0.21051  -0.20488
 Alpha virt. eigenvalues --   -0.08746  -0.08133  -0.01603  -0.01157   0.00015
 Alpha virt. eigenvalues --    0.00554   0.02155   0.02735   0.02924   0.04533
 Alpha virt. eigenvalues --    0.04670   0.04839   0.05233   0.05599   0.05852

 Mulliken charges:
               1
     1  Mg   0.842800
     2  C   -0.001059
     3  C   -0.085324
     4  C   -0.050411
     5  C   -0.066011
     6  N   -0.257131
     7  C   -0.048278
     8  C   -0.017355
     9  C   -0.090087
    10  C    0.053878
    11  C    0.105489
    12  C    0.055142
    13  C   -0.072244
    14  H    0.027863
    15  N   -0.433130
    16  C    0.175097
    17  C   -0.169054
    18  C   -0.006464
    19  C    0.148430
    20  C    0.110475
    21  C    0.006780
    22  O   -0.253923
    23  C    0.063265
    24  N   -0.341044
    25  C    0.042025
    26  C   -0.028464
    27  C   -0.025433
    28  C    0.073551
    29  C    0.076865
    30  C    0.052274
    31  C   -0.038288
    32  N   -0.309879
    33  C    0.079274
    34  C   -0.171737
    35  C    0.007205
    36  C    0.082190
    37  C    0.127765
    38  C    0.044959
    39  O   -0.191531
    40  C   -0.005688
    41  C    0.212657
    42  O   -0.256270
    43  O   -0.304997
    44  C    0.159140
    45  H   -0.018815
    46  H   -0.020230
    47  H   -0.044012
    48  H   -0.002642
    49  H   -0.004150
    50  H    0.024309
    51  H    0.015714
    52  H    0.014714
    53  H    0.026836
    54  H    0.045361
    55  H    0.015400
    56  H    0.013123
    57  H    0.004986
    58  H    0.021703
    59  H    0.054721
    60  H    0.037180
    61  H    0.032074
    62  H    0.037276
    63  H    0.013908
    64  H    0.008325
    65  H    0.021336
    66  H    0.013061
    67  H    0.004192
    68  H    0.003727
    69  H    0.002416
    70  H    0.022982
    71  H    0.036695
    72  H    0.035117
    73  H    0.045773
    74  H    0.007646
    75  H    0.044569
    76  H    0.033820
    77  H    0.041107
    78  H    0.045785
    79  H    0.051895
    80  Mg   0.841209
    81  C   -0.016730
    82  C   -0.087416
    83  C   -0.045193
    84  C   -0.065766
    85  N   -0.255071
    86  C   -0.048384
    87  C   -0.016420
    88  C   -0.090862
    89  C    0.047399
    90  C    0.114475
    91  C    0.062199
    92  C   -0.077396
    93  H    0.033054
    94  N   -0.423527
    95  C    0.164746
    96  C   -0.174028
    97  C   -0.006970
    98  C    0.152842
    99  C    0.099390
   100  C    0.016316
   101  O   -0.253032
   102  C    0.060722
   103  N   -0.350233
   104  C    0.038084
   105  C   -0.020429
   106  C   -0.032150
   107  C    0.088804
   108  C    0.073871
   109  C    0.035212
   110  C   -0.005695
   111  N   -0.323486
   112  C    0.076221
   113  C   -0.162550
   114  C   -0.000105
   115  C    0.095755
   116  C    0.128349
   117  C    0.043023
   118  O   -0.196546
   119  C    0.001070
   120  C    0.211748
   121  O   -0.247164
   122  O   -0.304534
   123  C    0.154942
   124  H   -0.019766
   125  H   -0.015381
   126  H   -0.038257
   127  H   -0.002248
   128  H   -0.003847
   129  H    0.021743
   130  H    0.014478
   131  H    0.016118
   132  H    0.017410
   133  H    0.040053
   134  H    0.019339
   135  H    0.020320
   136  H    0.008882
   137  H    0.025950
   138  H    0.041315
   139  H    0.037950
   140  H    0.036509
   141  H    0.035326
   142  H    0.014805
   143  H    0.012012
   144  H    0.024842
   145  H    0.011151
   146  H    0.005715
   147  H    0.003810
   148  H    0.003427
   149  H    0.006153
   150  H    0.005096
   151  H    0.028829
   152  H    0.045070
   153  H    0.017289
   154  H    0.043962
   155  H    0.034814
   156  H    0.041525
   157  H    0.052115
   158  H    0.048520
 Sum of Mulliken charges =  -0.00000

 Dipole moment (field-independent basis, Debye):
    X=             -1.6761    Y=             -3.2739    Z=             -3.4119  Tot=              5.0169
 Quadrupole moment (field-independent basis, Debye-Ang):
   XX=           -481.1360   YY=           -465.6213   ZZ=           -535.8348
   XY=             16.6518   XZ=             -7.4256   YZ=             21.6845

 Normal termination of Gaussian 16 at Wed Sep  8 21:12:09 2021.
