 Gaussian 16, Revision A.03,
 Gaussian 16:  ES64L-G16RevA.03 25-Dec-2016

 -----------------------------------
 #p cam-b3lyp/Def2SVP td=(nstates=5)
 -----------------------------------

 --------------------------------
 TDDFT excited states in gaussian
 --------------------------------
 Symbolic Z-matrix:
 Charge =  0 Multiplicity = 1

                         Standard orientation:
 ---------------------------------------------------------------------
 Center     Atomic      Atomic             Coordinates (Angstroms)
 Number     Number       Type             X           Y           Z
 ---------------------------------------------------------------------
      1         12           0      -15.844239   -0.651836   -0.404418
      2          6           0      -16.110751    1.939256    2.050664
      3          6           0      -16.660546    1.689819   -2.748209
      4          6           0      -16.060504   -3.003470   -2.520941
      5          6           0      -16.171303   -2.947470    2.197266
      6          7           0      -16.302473    1.508125   -0.245567
      7          6           0      -16.311897    2.394020    0.745530
      8          6           0      -16.480740    3.864256    0.258423
      9          6           0      -17.197973    3.585974   -1.138049
     10          6           0      -16.661722    2.192151   -1.413033
     11          6           0      -18.718451    3.516557   -1.038898
     12          6           0      -15.105746    4.587189    0.062236
     13          6           0      -15.183918    6.108639   -0.094081
     14          1           0      -14.122787    6.926406    0.473901
     15          7           0      -15.813504   -0.605020   -2.379187
     16          6           0      -16.163097    0.437844   -3.170076
     17          6           0      -15.967581   -0.022512   -4.561667
     18          6           0      -15.657543   -1.478612   -4.519926
     19          6           0      -15.859860   -1.763206   -3.122266
     20          6           0      -16.032058    0.890779   -5.747202
     21          6           0      -15.254667   -2.460326   -5.574469
     22          8           0      -15.260083   -3.721879   -5.367036
     23          6           0      -14.934195   -1.904342   -6.901580
     24          7           0      -16.301239   -2.681256   -0.230522
     25          6           0      -16.268228   -3.489745   -1.295529
     26          6           0      -16.349646   -4.931392   -0.889373
     27          6           0      -16.200268   -4.951922    0.700287
     28          6           0      -16.137299   -3.425036    0.951135
     29          6           0      -17.634955   -5.668211   -1.290734
     30          6           0      -15.078302   -5.843106    1.289696
     31          6           0      -13.725619   -5.281472    0.912982
     32          7           0      -15.919706   -0.562920    1.762941
     33          6           0      -16.082584   -1.640260    2.645825
     34          6           0      -16.181843   -1.074649    4.003875
     35          6           0      -16.085812    0.302480    3.813769
     36          6           0      -15.962416    0.581090    2.422567
     37          6           0      -16.397610   -1.813399    5.200590
     38          6           0      -16.083489    1.604813    4.460128
     39          8           0      -16.064223    1.992648    5.629190
     40          6           0      -16.222026    2.722956    3.334788
     41          6           0      -15.182085    3.774957    3.608882
     42          8           0      -13.966243    3.517267    3.496230
     43          8           0      -15.779581    4.970640    3.726705
     44          6           0      -14.800531    6.063475    3.970270
     45          1           0      -17.135538    2.279765   -3.534521
     46          1           0      -16.030510   -3.852575   -3.206914
     47          1           0      -16.189595   -3.607625    3.066354
     48          1           0      -17.120805    4.481370    0.889225
     49          1           0      -16.866339    4.278913   -1.911080
     50          1           0      -19.051595    3.541470   -0.001442
     51          1           0      -18.997749    2.571863   -1.505846
     52          1           0      -19.182024    4.297566   -1.642141
     53          1           0      -14.695729    4.321405   -0.912087
     54          1           0      -14.421936    4.343029    0.875941
     55          1           0      -16.161038    6.490202    0.203502
     56          1           0      -15.111694    6.347108   -1.155268
     57          1           0      -16.440206    1.864887   -5.480607
     58          1           0      -16.764351    0.468448   -6.435019
     59          1           0      -15.067897    0.982458   -6.247523
     60          1           0      -15.801270   -1.366297   -7.285296
     61          1           0      -14.581514   -2.742488   -7.501561
     62          1           0      -14.139002   -1.166284   -6.792553
     63          1           0      -15.538862   -5.508709   -1.331822
     64          1           0      -17.106810   -5.305929    1.191748
     65          1           0      -17.458812   -6.558548   -1.894869
     66          1           0      -18.279016   -4.961858   -1.813746
     67          1           0      -18.270885   -5.965150   -0.457165
     68          1           0      -15.135123   -6.848628    0.874192
     69          1           0      -15.123253   -5.929854    2.375378
     70          1           0      -13.563008   -5.687015   -0.084978
     71          1           0      -12.961162   -5.633118    1.606639
     72          1           0      -13.756686   -4.195515    0.822326
     73          1           0      -15.718109   -1.395879    5.943505
     74          1           0      -16.213202   -2.876603    5.048294
     75          1           0      -17.448981   -1.594359    5.386325
     76          1           0      -17.234370    3.118862    3.409216
     77          1           0      -15.104514    6.568261    4.887341
     78          1           0      -14.762865    6.655327    3.055559
     79          1           0      -13.787939    5.754109    4.231592
     80         12           0       15.888916   -0.632732    0.413369
     81          6           0       15.921727    1.948365   -2.079819
     82          6           0       16.924042    1.723425    2.652031
     83          6           0       16.303927   -2.964446    2.524835
     84          6           0       15.975799   -2.952388   -2.186119
     85          7           0       16.330475    1.523493    0.194267
     86          6           0       16.248135    2.409020   -0.787261
     87          6           0       16.452982    3.882262   -0.343238
     88          6           0       17.307471    3.615014    0.989913
     89          6           0       16.802141    2.213781    1.327344
     90          6           0       18.804248    3.535531    0.739549
     91          6           0       15.097185    4.603608   -0.021545
     92          6           0       15.195237    6.124306    0.118470
     93          1           0       14.078321    6.939900   -0.350362
     94          7           0       16.042875   -0.562330    2.390712
     95          6           0       16.458576    0.481810    3.137875
     96          6           0       16.410889    0.021539    4.534313
     97          6           0       16.090677   -1.431785    4.538515
     98          6           0       16.155322   -1.720062    3.119776
     99          6           0       16.578230    0.948832    5.702876
    100          6           0       15.790207   -2.404312    5.638568
    101          8           0       15.775058   -3.669425    5.433361
    102          6           0       15.606374   -1.837528    6.982608
    103          7           0       16.321395   -2.656326    0.212452
    104          6           0       16.396222   -3.457552    1.289659
    105          6           0       16.442677   -4.911843    0.885614
    106          6           0       16.138400   -4.931507   -0.684299
    107          6           0       16.053149   -3.411520   -0.944594
    108          6           0       17.761077   -5.635972    1.157326
    109          6           0       14.965325   -5.830268   -1.162601
    110          6           0       13.652186   -5.277044   -0.657625
    111          7           0       15.754225   -0.559471   -1.741754
    112          6           0       15.839763   -1.646394   -2.639178
    113          6           0       15.808871   -1.086119   -4.005774
    114          6           0       15.730076    0.300506   -3.806897
    115          6           0       15.733428    0.585596   -2.414702
    116          6           0       15.900299   -1.833711   -5.213605
    117          6           0       15.655556    1.588505   -4.458192
    118          8           0       15.532360    1.967516   -5.622202
    119          6           0       15.903861    2.720158   -3.370020
    120          6           0       14.842244    3.771644   -3.542812
    121          8           0       13.647385    3.505445   -3.323582
    122          8           0       15.431816    4.967199   -3.725612
    123          6           0       14.419643    6.044240   -3.890812
    124          1           0       17.464546    2.327615    3.381220
    125          1           0       16.339768   -3.813837    3.210926
    126          1           0       15.900006   -3.615902   -3.050230
    127          1           0       17.023695    4.490047   -1.035085
    128          1           0       17.041426    4.316049    1.776764
    129          1           0       19.037967    3.554279   -0.314572
    130          1           0       19.127410    2.602429    1.182196
    131          1           0       19.321232    4.325850    1.291329
    132          1           0       14.784759    4.340879    0.997329
    133          1           0       14.351021    4.355260   -0.751055
    134          1           0       16.144586    6.513562   -0.269035
    135          1           0       15.217254    6.374167    1.182000
    136          1           0       16.965384    1.925994    5.388766
    137          1           0       17.372349    0.531262    6.331266
    138          1           0       15.668327    1.043157    6.299411
    139          1           0       16.503497   -1.295243    7.271665
    140          1           0       15.311902   -2.676679    7.615856
    141          1           0       14.793557   -1.103702    6.944669
    142          1           0       15.677130   -5.480514    1.399092
    143          1           0       16.998588   -5.301405   -1.261442
    144          1           0       17.642996   -6.533730    1.793067
    145          1           0       18.447896   -4.935067    1.612902
    146          1           0       18.306891   -5.950242    0.269337
    147          1           0       15.061480   -6.834195   -0.741856
    148          1           0       14.914598   -5.936586   -2.241083
    149          1           0       13.591294   -5.675637    0.359481
    150          1           0       12.826047   -5.631635   -1.270637
    151          1           0       13.688765   -4.184083   -0.581701
    152          1           0       15.160317   -1.425567   -5.889156
    153          1           0       15.736799   -2.894885   -5.037710
    154          1           0       16.933932   -1.619233   -5.497967
    155          1           0       16.905605    3.118858   -3.534722
    156          1           0       14.638010    6.545196   -4.838990
    157          1           0       14.482135    6.656485   -2.971567
    158          1           0       13.389209    5.744705   -4.042284
 ---------------------------------------------------------------------

 SCF Done:  E(RCAM-B3LYP) =  -4069.81177088     A.U. after   19 cycles

 Excitation energies and oscillator strengths:

 Excited State   1:      Singlet-A      1.6753 eV  740.05 nm  f=0.2182  <S**2>=0.000
     309 -> 316        0.16888
     311 -> 313        0.66752
     312 -> 314        0.15838
     309 <- 316        0.10182
 This state for optimization and/or second-order correction.
 Total Energy, E(TD-HF/TD-DFT) =  -4069.75020293
 Copying the excited state density for this state as the 1-particle RhoCI density.

 Excited State   2:      Singlet-A      1.6802 eV  737.93 nm  f=0.5593  <S**2>=0.000
     310 -> 315        0.17089
     311 -> 313       -0.15833
     312 -> 314        0.66716
     310 <- 315        0.10231

 Excited State   3:      Singlet-A      2.1862 eV  567.13 nm  f=0.0955  <S**2>=0.000
     309 -> 313        0.64212
     311 -> 316       -0.27302

 Excited State   4:      Singlet-A      2.1926 eV  565.47 nm  f=0.1046  <S**2>=0.000
     310 -> 314        0.64035
     312 -> 315       -0.27818

 Excited State   5:      Singlet-A      3.0582 eV  405.41 nm  f=0.0000  <S**2>=0.000
     312 -> 313        0.70711

 The electronic state is 1-A.
 Alpha  occ. eigenvalues --  -46.87752 -46.87661 -19.26353 -19.26243 -19.19164
 Alpha  occ. eigenvalues --  -19.18978 -19.18767 -19.18711 -19.18127 -19.18054
 Alpha  occ. eigenvalues --  -14.42499 -14.42405 -14.41405 -14.41360 -14.39357
 Alpha  occ. eigenvalues --  -14.39353 -14.38601 -14.38542 -10.39094 -10.39037
 Alpha  occ. eigenvalues --  -10.35400 -10.35388 -10.34347 -10.34232 -10.31761
 Alpha  occ. eigenvalues --  -10.31639 -10.31361 -10.31311 -10.31024 -10.30864
 Alpha  occ. eigenvalues --  -10.30526 -10.30463 -10.30399 -10.30362 -10.30162
 Alpha  occ. eigenvalues --  -10.30141 -10.29897 -10.29877 -10.29586 -10.29437
 Alpha  occ. eigenvalues --  -10.29402 -10.29209 -10.28720 -10.28705 -10.28654
 Alpha  occ. eigenvalues --  -10.28493 -10.28406 -10.28320 -10.28142 -10.28073
 Alpha  occ. eigenvalues --  -10.28003 -10.27749 -10.27683 -10.27670 -10.27539
 Alpha  occ. eigenvalues --  -10.27519 -10.27485 -10.27467 -10.27463 -10.27457
 Alpha  occ. eigenvalues --  -10.27434 -10.27405 -10.27377 -10.27359 -10.27116
 Alpha  occ. eigenvalues --  -10.27054 -10.26692 -10.26659 -10.26408 -10.26359
 Alpha  occ. eigenvalues --  -10.26193 -10.26139 -10.26137 -10.26029 -10.25975
 Alpha  occ. eigenvalues --  -10.25936 -10.25856 -10.25803 -10.25400 -10.25393
 Alpha  occ. eigenvalues --  -10.24875 -10.24789 -10.24743 -10.24728 -10.24691
 Alpha  occ. eigenvalues --  -10.24639  -3.16494  -3.16411  -1.91376  -1.91294
 Alpha  occ. eigenvalues --   -1.90962  -1.90882  -1.90805  -1.90719  -1.16647
 Alpha  occ. eigenvalues --   -1.16592  -1.08662  -1.08585  -1.07168  -1.06963
 Alpha  occ. eigenvalues --   -1.06948  -1.06600  -1.04536  -1.04496  -1.03716
 Alpha  occ. eigenvalues --   -1.03664  -1.03189  -1.03040  -1.02366  -1.02113
 Alpha  occ. eigenvalues --   -0.91989  -0.91928  -0.89496  -0.89475  -0.89153
 Alpha  occ. eigenvalues --   -0.89144  -0.88242  -0.88221  -0.87827  -0.87796
 Alpha  occ. eigenvalues --   -0.87685  -0.87628  -0.87227  -0.87119  -0.85001
 Alpha  occ. eigenvalues --   -0.84938  -0.83892  -0.83877  -0.82929  -0.82920
 Alpha  occ. eigenvalues --   -0.82653  -0.82604  -0.81599  -0.81543  -0.80552
 Alpha  occ. eigenvalues --   -0.80444  -0.78752  -0.78636  -0.77174  -0.77146
 Alpha  occ. eigenvalues --   -0.76900  -0.76891  -0.75880  -0.75841  -0.74854
 Alpha  occ. eigenvalues --   -0.74805  -0.72730  -0.72701  -0.71628  -0.71583
 Alpha  occ. eigenvalues --   -0.69862  -0.69758  -0.68828  -0.68828  -0.67603
 Alpha  occ. eigenvalues --   -0.67596  -0.67199  -0.67174  -0.65273  -0.65242
 Alpha  occ. eigenvalues --   -0.64810  -0.64772  -0.64655  -0.64577  -0.64225
 Alpha  occ. eigenvalues --   -0.64205  -0.62281  -0.62255  -0.60396  -0.60339
 Alpha  occ. eigenvalues --   -0.59798  -0.59760  -0.58994  -0.58943  -0.58460
 Alpha  occ. eigenvalues --   -0.58427  -0.57557  -0.57542  -0.57264  -0.57237
 Alpha  occ. eigenvalues --   -0.56266  -0.56206  -0.55936  -0.55889  -0.55475
 Alpha  occ. eigenvalues --   -0.55452  -0.55296  -0.55250  -0.54490  -0.54480
 Alpha  occ. eigenvalues --   -0.53914  -0.53851  -0.53254  -0.53228  -0.53177
 Alpha  occ. eigenvalues --   -0.53142  -0.52904  -0.52871  -0.52709  -0.52666
 Alpha  occ. eigenvalues --   -0.52401  -0.52393  -0.51889  -0.51873  -0.51659
 Alpha  occ. eigenvalues --   -0.51571  -0.51203  -0.51152  -0.50524  -0.50472
 Alpha  occ. eigenvalues --   -0.49986  -0.49980  -0.49872  -0.49868  -0.49487
 Alpha  occ. eigenvalues --   -0.49469  -0.49204  -0.49170  -0.49107  -0.49053
 Alpha  occ. eigenvalues --   -0.48561  -0.48550  -0.48417  -0.48400  -0.48378
 Alpha  occ. eigenvalues --   -0.48337  -0.47650  -0.47595  -0.47252  -0.47119
 Alpha  occ. eigenvalues --   -0.46753  -0.46710  -0.46555  -0.46511  -0.46315
 Alpha  occ. eigenvalues --   -0.46272  -0.46119  -0.46088  -0.45825  -0.45780
 Alpha  occ. eigenvalues --   -0.45210  -0.45157  -0.44535  -0.44516  -0.44477
 Alpha  occ. eigenvalues --   -0.44461  -0.44129  -0.44099  -0.44078  -0.44044
 Alpha  occ. eigenvalues --   -0.43975  -0.43939  -0.43556  -0.43452  -0.43387
 Alpha  occ. eigenvalues --   -0.43341  -0.42983  -0.42933  -0.42904  -0.42656
 Alpha  occ. eigenvalues --   -0.42611  -0.42554  -0.41965  -0.41965  -0.41671
 Alpha  occ. eigenvalues --   -0.41660  -0.41489  -0.41459  -0.41097  -0.40991
 Alpha  occ. eigenvalues --   -0.40824  -0.40776  -0.40721  -0.40698  -0.40527
 Alpha  occ. eigenvalues --   -0.40495  -0.40226  -0.40189  -0.39426  -0.39395
 Alpha  occ. eigenvalues --   -0.38424  -0.38351  -0.37703  -0.37654  -0.37276
 Alpha  occ. eigenvalues --   -0.37267  -0.37219  -0.37200  -0.36774  -0.36670
 Alpha  occ. eigenvalues --   -0.36219  -0.36149  -0.34255  -0.34241  -0.33864
 Alpha  occ. eigenvalues --   -0.33727  -0.33177  -0.33142  -0.31297  -0.31271
 Alpha  occ. eigenvalues --   -0.30991  -0.30974  -0.29987  -0.29959  -0.29404
 Alpha  occ. eigenvalues --   -0.29328  -0.29278  -0.29213  -0.24038  -0.24036
 Alpha  occ. eigenvalues --   -0.21118  -0.21083
 Alpha virt. eigenvalues --   -0.08793  -0.08729  -0.01705  -0.01685  -0.00029
 Alpha virt. eigenvalues --   -0.00012   0.02205   0.02244   0.03172   0.03228
 Alpha virt. eigenvalues --    0.04728   0.04762   0.05140   0.05162   0.06181

 Mulliken charges:
               1
     1  Mg   0.838874
     2  C   -0.002961
     3  C   -0.094094
     4  C   -0.045873
     5  C   -0.063980
     6  N   -0.256799
     7  C   -0.052470
     8  C   -0.014007
     9  C   -0.087028
    10  C    0.046350
    11  C    0.104822
    12  C    0.053472
    13  C   -0.071819
    14  H    0.036155
    15  N   -0.433157
    16  C    0.168439
    17  C   -0.177123
    18  C   -0.003980
    19  C    0.148738
    20  C    0.110170
    21  C    0.012322
    22  O   -0.249608
    23  C    0.062456
    24  N   -0.341159
    25  C    0.041243
    26  C   -0.028158
    27  C   -0.023971
    28  C    0.074849
    29  C    0.076176
    30  C    0.035131
    31  C   -0.004504
    32  N   -0.310469
    33  C    0.080426
    34  C   -0.169732
    35  C    0.008324
    36  C    0.082980
    37  C    0.127313
    38  C    0.046097
    39  O   -0.188522
    40  C   -0.005344
    41  C    0.212858
    42  O   -0.257056
    43  O   -0.304814
    44  C    0.157700
    45  H   -0.017608
    46  H   -0.016826
    47  H   -0.041530
    48  H    0.000893
    49  H   -0.004008
    50  H    0.025436
    51  H    0.016434
    52  H    0.016635
    53  H    0.011269
    54  H    0.044141
    55  H    0.017811
    56  H    0.017984
    57  H    0.005871
    58  H    0.026812
    59  H    0.039657
    60  H    0.037315
    61  H    0.035704
    62  H    0.031595
    63  H    0.016592
    64  H    0.009406
    65  H    0.023213
    66  H    0.012524
    67  H    0.004707
    68  H    0.006346
    69  H    0.004690
    70  H    0.008820
    71  H    0.018167
    72  H    0.029010
    73  H    0.047540
    74  H    0.009096
    75  H    0.045944
    76  H    0.035098
    77  H    0.042875
    78  H    0.046417
    79  H    0.053704
    80  Mg   0.837862
    81  C   -0.016819
    82  C   -0.087799
    83  C   -0.045488
    84  C   -0.064885
    85  N   -0.254551
    86  C   -0.049868
    87  C   -0.015093
    88  C   -0.090488
    89  C    0.045770
    90  C    0.114367
    91  C    0.062512
    92  C   -0.077914
    93  H    0.034929
    94  N   -0.423509
    95  C    0.162964
    96  C   -0.174602
    97  C   -0.007760
    98  C    0.152136
    99  C    0.099367
   100  C    0.015616
   101  O   -0.253147
   102  C    0.061162
   103  N   -0.350058
   104  C    0.037517
   105  C   -0.019845
   106  C   -0.034823
   107  C    0.088921
   108  C    0.073665
   109  C    0.034739
   110  C   -0.007689
   111  N   -0.324091
   112  C    0.078431
   113  C   -0.163140
   114  C    0.002219
   115  C    0.096205
   116  C    0.131484
   117  C    0.042369
   118  O   -0.187942
   119  C    0.000931
   120  C    0.211231
   121  O   -0.250978
   122  O   -0.305643
   123  C    0.152035
   124  H   -0.019638
   125  H   -0.015539
   126  H   -0.040473
   127  H   -0.000681
   128  H   -0.004285
   129  H    0.022431
   130  H    0.014419
   131  H    0.016289
   132  H    0.013975
   133  H    0.037692
   134  H    0.020749
   135  H    0.019633
   136  H    0.008772
   137  H    0.026161
   138  H    0.039898
   139  H    0.038246
   140  H    0.036478
   141  H    0.033976
   142  H    0.014459
   143  H    0.012383
   144  H    0.025172
   145  H    0.011619
   146  H    0.005644
   147  H    0.006274
   148  H    0.003627
   149  H    0.010980
   150  H    0.017973
   151  H    0.030115
   152  H    0.045994
   153  H    0.008515
   154  H    0.046889
   155  H    0.034985
   156  H    0.043862
   157  H    0.049512
   158  H    0.053595
 Sum of Mulliken charges =  -0.00000

 Dipole moment (field-independent basis, Debye):
    X=              0.2886    Y=              3.1480    Z=             -0.3823  Tot=              3.1842
 Quadrupole moment (field-independent basis, Debye-Ang):
   XX=           -386.5399   YY=           -460.0859   ZZ=           -539.1643
   XY=              3.8526   XZ=            114.2017   YZ=             -0.3015

 Normal termination of Gaussian 16 at Sun Sep 12 12:49:33 2021.
