 Gaussian 16, Revision A.03,
 Gaussian 16:  ES64L-G16RevA.03 25-Dec-2016

 -----------------------------------
 #p cam-b3lyp/Def2SVP td=(nstates=5)
 -----------------------------------

 --------------------------------
 TDDFT excited states in gaussian
 --------------------------------
 Symbolic Z-matrix:
 Charge =  0 Multiplicity = 1

                         Standard orientation:
 ---------------------------------------------------------------------
 Center     Atomic      Atomic             Coordinates (Angstroms)
 Number     Number       Type             X           Y           Z
 ---------------------------------------------------------------------
      1         12           0        5.566037    0.205343    0.242143
      2          6           0        5.533472   -3.068539   -1.204526
      3          6           0        6.511489    1.385453   -2.816701
      4          6           0        6.041893    3.031243    1.600257
      5          6           0        5.734772   -1.336219    3.363165
      6          7           0        5.940229   -0.811186   -1.688478
      7          6           0        5.834392   -2.062296   -2.125160
      8          6           0        5.999096   -2.193885   -3.668834
      9          6           0        6.844977   -0.871014   -3.945412
     10          6           0        6.379208   -0.034079   -2.767056
     11          6           0        8.352237   -1.077592   -3.835887
     12          6           0        4.624646   -2.162173   -4.418241
     13          6           0        4.668321   -2.608885   -5.882445
     14          1           0        3.536046   -3.345051   -6.424074
     15          7           0        5.707938    2.004926   -0.560487
     16          6           0        6.092824    2.299377   -1.825575
     17          6           0        6.035265    3.772822   -1.936595
     18          6           0        5.768775    4.321442   -0.577885
     19          6           0        5.856037    3.127265    0.223179
     20          6           0        6.175135    4.506216   -3.235179
     21          6           0        5.491495    5.704338   -0.079040
     22          8           0        5.518351    5.996670    1.165305
     23          6           0        5.271833    6.740724   -1.104073
     24          7           0        6.069639    0.780561    2.184601
     25          6           0        6.156065    2.072130    2.521297
     26          6           0        6.246755    2.243767    4.008662
     27          6           0        5.958632    0.804824    4.638091
     28          6           0        5.825743   -0.004935    3.324736
     29          6           0        7.584995    2.774854    4.540708
     30          6           0        4.817733    0.709558    5.681974
     31          6           0        3.486480    0.966888    5.012164
     32          7           0        5.447430   -1.827409    0.993738
     33          6           0        5.565748   -2.241068    2.328489
     34          6           0        5.527113   -3.715034    2.328987
     35          6           0        5.404872   -4.059113    0.984178
     36          6           0        5.395805   -2.875951    0.191500
     37          6           0        5.659774   -4.551774    3.472097
     38          6           0        5.304592   -5.151928    0.030472
     39          8           0        5.170201   -6.373027    0.121844
     40          6           0        5.506442   -4.559272   -1.433715
     41          6           0        4.413778   -5.117121   -2.304461
     42          8           0        3.221311   -4.801247   -2.115751
     43          8           0        4.960610   -5.739429   -3.360042
     44          6           0        3.929972   -6.290563   -4.279928
     45          1           0        7.035088    1.837549   -3.661328
     46          1           0        6.099211    3.989793    2.120194
     47          1           0        5.697212   -1.883565    4.306804
     48          1           0        6.561342   -3.069838   -3.992890
     49          1           0        6.561074   -0.395223   -4.883892
     50          1           0        8.591736   -2.071605   -3.458397
     51          1           0        8.701205   -0.312576   -3.142011
     52          1           0        8.842321   -0.865875   -4.786556
     53          1           0        4.310636   -1.126684   -4.549475
     54          1           0        3.879840   -2.752441   -3.883289
     55          1           0        5.602919   -3.119862   -6.115552
     56          1           0        4.682392   -1.718379   -6.510936
     57          1           0        6.527323    3.849803   -4.029931
     58          1           0        6.978115    5.231687   -3.106244
     59          1           0        5.256394    5.020926   -3.516818
     60          1           0        6.151961    6.806122   -1.744110
     61          1           0        4.999957    7.646207   -0.562745
     62          1           0        4.447274    6.431999   -1.747300
     63          1           0        5.496693    2.947338    4.367576
     64          1           0        6.829051    0.404169    5.158206
     65          1           0        7.490894    3.687658    5.129467
     66          1           0        8.250058    2.924591    3.690672
     67          1           0        8.154052    2.063245    5.138374
     68          1           0        4.942583    1.471400    6.450711
     69          1           0        4.769571   -0.259052    6.179696
     70          1           0        3.425276    2.054539    5.002048
     71          1           0        2.675342    0.535660    5.599794
     72          1           0        3.491190    0.631130    3.974990
     73          1           0        4.904651   -5.330965    3.369042
     74          1           0        5.523082   -3.987154    4.394119
     75          1           0        6.683270   -4.904627    3.346373
     76          1           0        6.495318   -4.873975   -1.765691
     77          1           0        4.135929   -7.355124   -4.391844
     78          1           0        3.954414   -5.673308   -5.178150
     79          1           0        2.908545   -6.317528   -3.898749
     80         12           0       -5.000228    0.948671    0.294401
     81          6           0       -7.515727   -1.609499    0.210261
     82          6           0       -6.796120    2.584602   -2.099992
     83          6           0       -2.585838    2.988757    0.018295
     84          6           0       -2.880808   -1.378698    1.790097
     85          7           0       -6.895348    0.451202   -0.731910
     86          6           0       -7.794035   -0.517205   -0.637590
     87          6           0       -9.098880   -0.264087   -1.439392
     88          6           0       -8.514550    0.755311   -2.534047
     89          6           0       -7.348038    1.331047   -1.733786
     90          6           0       -7.953527    0.061078   -3.763945
     91          6           0      -10.215817    0.408606   -0.566501
     92          6           0      -11.612054    0.403014   -1.192805
     93          1           0      -12.768161    0.245472   -0.314702
     94          7           0       -4.942204    2.771461   -0.488311
     95          6           0       -5.761391    3.277443   -1.433923
     96          6           0       -5.291313    4.649295   -1.681291
     97          6           0       -4.026777    4.855512   -0.924227
     98          6           0       -3.786273    3.510475   -0.441403
     99          6           0       -6.066865    5.639984   -2.500111
    100          6           0       -3.168347    6.060776   -0.686219
    101          8           0       -1.988109    5.960755   -0.196473
    102          6           0       -3.713693    7.351999   -1.129865
    103          7           0       -2.956482    0.768345    0.630473
    104          6           0       -2.136231    1.823827    0.485312
    105          6           0       -0.764588    1.529638    1.044287
    106          6           0       -0.905070    0.136103    1.816244
    107          6           0       -2.376167   -0.192473    1.479643
    108          6           0        0.364646    1.431484    0.018822
    109          6           0       -0.463634    0.108764    3.305224
    110          6           0       -1.401136    0.954062    4.137062
    111          7           0       -5.193931   -1.058882    1.069167
    112          6           0       -4.174095   -1.859188    1.629092
    113          6           0       -4.763367   -3.185560    1.904587
    114          6           0       -6.089523   -3.071164    1.461052
    115          6           0       -6.305507   -1.772079    0.926991
    116          6           0       -4.073073   -4.306209    2.446575
    117          6           0       -7.352859   -3.757396    1.313467
    118          8           0       -7.794235   -4.850240    1.666452
    119          6           0       -8.297297   -2.882497    0.381274
    120          6           0       -9.646531   -2.793124    1.040121
    121          8           0       -9.782849   -2.197147    2.123090
    122          8           0      -10.585490   -3.233627    0.182984
    123          6           0      -11.942184   -3.154151    0.787040
    124          1           0       -7.159836    3.066248   -3.008073
    125          1           0       -1.747588    3.688764    0.046696
    126          1           0       -2.312357   -2.127657    2.345610
    127          1           0       -9.508782   -1.139772   -1.928201
    128          1           0       -9.234393    1.533939   -2.772657
    129          1           0       -7.933004   -1.012206   -3.646559
    130          1           0       -6.950298    0.447385   -3.887831
    131          1           0       -8.507121    0.368506   -4.655773
    132          1           0      -10.033637    1.490130   -0.523228
    133          1           0      -10.255706   -0.035095    0.409283
    134          1           0      -11.679269   -0.285468   -2.043934
    135          1           0      -11.800853    1.387132   -1.628570
    136          1           0       -6.871775    5.153013   -3.064365
    137          1           0       -5.386973    6.020295   -3.270158
    138          1           0       -6.434801    6.480145   -1.907313
    139          1           0       -3.917369    7.310443   -2.197225
    140          1           0       -2.996396    8.103212   -0.793640
    141          1           0       -4.676055    7.514979   -0.631948
    142          1           0       -0.462678    2.293561    1.750246
    143          1           0       -0.293030   -0.650735    1.351332
    144          1           0        1.195680    2.134736    0.216055
    145          1           0       -0.052014    1.601562   -0.965049
    146          1           0        0.808633    0.443013   -0.086025
    147          1           0        0.530436    0.549462    3.413671
    148          1           0       -0.420246   -0.890858    3.724581
    149          1           0       -1.007656    1.965843    4.000846
    150          1           0       -1.362978    0.653105    5.182060
    151          1           0       -2.416769    0.937078    3.724935
    152          1           0       -4.727914   -4.747306    3.186242
    153          1           0       -3.120056   -4.013458    2.882253
    154          1           0       -3.943763   -4.910487    1.544690
    155          1           0       -8.347804   -3.376524   -0.589791
    156          1           0      -12.377491   -4.156499    0.727853
    157          1           0      -12.464640   -2.345145    0.242710
    158          1           0      -12.006420   -2.958171    1.850961
 ---------------------------------------------------------------------

 SCF Done:  E(RCAM-B3LYP) =  -4069.81237964     A.U. after   19 cycles

 Excitation energies and oscillator strengths:

 Excited State   1:      Singlet-A      1.6547 eV  749.29 nm  f=0.0037  <S**2>=0.000
     309 -> 315       -0.11222
     310 -> 316        0.12564
     311 -> 313       -0.45601
     312 -> 314        0.51415
 This state for optimization and/or second-order correction.
 Total Energy, E(TD-HF/TD-DFT) =  -4069.75157109
 Copying the excited state density for this state as the 1-particle RhoCI density.

 Excited State   2:      Singlet-A      1.6979 eV  730.20 nm  f=0.7102  <S**2>=0.000
     309 -> 315        0.13492
     310 -> 316        0.11849
     311 -> 313        0.51224
     312 -> 314        0.45426

 Excited State   3:      Singlet-A      2.1839 eV  567.72 nm  f=0.0968  <S**2>=0.000
     309 -> 313       -0.11573
     310 -> 314        0.63257
     312 -> 316       -0.26692

 Excited State   4:      Singlet-A      2.1960 eV  564.60 nm  f=0.1030  <S**2>=0.000
     309 -> 313        0.62974
     310 -> 314        0.11388
     311 -> 315       -0.27542

 Excited State   5:      Singlet-A      2.4682 eV  502.33 nm  f=0.0000  <S**2>=0.000
     312 -> 313        0.70647

 The electronic state is 1-A.
 Alpha  occ. eigenvalues --  -46.87898 -46.87478 -19.26348 -19.26219 -19.19100
 Alpha  occ. eigenvalues --  -19.19023 -19.18772 -19.18577 -19.18232 -19.17878
 Alpha  occ. eigenvalues --  -14.42530 -14.42320 -14.41542 -14.41167 -14.39477
 Alpha  occ. eigenvalues --  -14.39176 -14.38682 -14.38411 -10.39157 -10.38949
 Alpha  occ. eigenvalues --  -10.35399 -10.35260 -10.34455 -10.34055 -10.31727
 Alpha  occ. eigenvalues --  -10.31642 -10.31492 -10.31127 -10.30968 -10.30870
 Alpha  occ. eigenvalues --  -10.30656 -10.30590 -10.30282 -10.30205 -10.30168
 Alpha  occ. eigenvalues --  -10.30018 -10.29942 -10.29692 -10.29691 -10.29315
 Alpha  occ. eigenvalues --  -10.29256 -10.29215 -10.28810 -10.28590 -10.28582
 Alpha  occ. eigenvalues --  -10.28552 -10.28433 -10.28237 -10.28180 -10.27998
 Alpha  occ. eigenvalues --  -10.27855 -10.27819 -10.27800 -10.27631 -10.27617
 Alpha  occ. eigenvalues --  -10.27546 -10.27494 -10.27478 -10.27477 -10.27348
 Alpha  occ. eigenvalues --  -10.27307 -10.27293 -10.27257 -10.27226 -10.27177
 Alpha  occ. eigenvalues --  -10.26887 -10.26768 -10.26572 -10.26370 -10.26326
 Alpha  occ. eigenvalues --  -10.26289 -10.26270 -10.26111 -10.25923 -10.25894
 Alpha  occ. eigenvalues --  -10.25886 -10.25713 -10.25557 -10.25499 -10.25275
 Alpha  occ. eigenvalues --  -10.24988 -10.24901 -10.24866 -10.24687 -10.24530
 Alpha  occ. eigenvalues --  -10.24510  -3.16636  -3.16228  -1.91518  -1.91110
 Alpha  occ. eigenvalues --   -1.91104  -1.90945  -1.90699  -1.90535  -1.16699
 Alpha  occ. eigenvalues --   -1.16511  -1.08692  -1.08486  -1.07166  -1.06834
 Alpha  occ. eigenvalues --   -1.06807  -1.06719  -1.04657  -1.04322  -1.03844
 Alpha  occ. eigenvalues --   -1.03480  -1.03314  -1.02848  -1.02494  -1.01926
 Alpha  occ. eigenvalues --   -0.92047  -0.91810  -0.89635  -0.89286  -0.89254
 Alpha  occ. eigenvalues --   -0.89003  -0.88393  -0.88020  -0.87944  -0.87746
 Alpha  occ. eigenvalues --   -0.87580  -0.87504  -0.87285  -0.86971  -0.85042
 Alpha  occ. eigenvalues --   -0.84848  -0.84062  -0.83685  -0.82974  -0.82792
 Alpha  occ. eigenvalues --   -0.82681  -0.82504  -0.81654  -0.81431  -0.80653
 Alpha  occ. eigenvalues --   -0.80279  -0.78837  -0.78463  -0.77302  -0.77011
 Alpha  occ. eigenvalues --   -0.76975  -0.76736  -0.75990  -0.75681  -0.74988
 Alpha  occ. eigenvalues --   -0.74636  -0.72853  -0.72506  -0.71744  -0.71413
 Alpha  occ. eigenvalues --   -0.70066  -0.69548  -0.68929  -0.68672  -0.67698
 Alpha  occ. eigenvalues --   -0.67431  -0.67255  -0.67062  -0.65359  -0.65118
 Alpha  occ. eigenvalues --   -0.64935  -0.64702  -0.64587  -0.64487  -0.64374
 Alpha  occ. eigenvalues --   -0.64000  -0.62372  -0.62115  -0.60482  -0.60175
 Alpha  occ. eigenvalues --   -0.59870  -0.59637  -0.59066  -0.58810  -0.58577
 Alpha  occ. eigenvalues --   -0.58248  -0.57656  -0.57386  -0.57381  -0.57056
 Alpha  occ. eigenvalues --   -0.56365  -0.56040  -0.56023  -0.55739  -0.55547
 Alpha  occ. eigenvalues --   -0.55439  -0.55299  -0.55060  -0.54621  -0.54311
 Alpha  occ. eigenvalues --   -0.53958  -0.53767  -0.53363  -0.53243  -0.53056
 Alpha  occ. eigenvalues --   -0.52992  -0.52984  -0.52761  -0.52744  -0.52595
 Alpha  occ. eigenvalues --   -0.52541  -0.52181  -0.51993  -0.51652  -0.51641
 Alpha  occ. eigenvalues --   -0.51516  -0.51281  -0.51019  -0.50552  -0.50347
 Alpha  occ. eigenvalues --   -0.50134  -0.49935  -0.49833  -0.49702  -0.49542
 Alpha  occ. eigenvalues --   -0.49342  -0.49264  -0.49152  -0.49045  -0.48938
 Alpha  occ. eigenvalues --   -0.48661  -0.48539  -0.48441  -0.48396  -0.48198
 Alpha  occ. eigenvalues --   -0.48193  -0.47752  -0.47436  -0.47344  -0.46958
 Alpha  occ. eigenvalues --   -0.46891  -0.46613  -0.46524  -0.46438  -0.46405
 Alpha  occ. eigenvalues --   -0.46248  -0.46087  -0.45902  -0.45895  -0.45636
 Alpha  occ. eigenvalues --   -0.45295  -0.45048  -0.44656  -0.44550  -0.44364
 Alpha  occ. eigenvalues --   -0.44301  -0.44237  -0.44148  -0.44041  -0.43974
 Alpha  occ. eigenvalues --   -0.43905  -0.43789  -0.43567  -0.43458  -0.43392
 Alpha  occ. eigenvalues --   -0.43225  -0.43105  -0.42827  -0.42777  -0.42751
 Alpha  occ. eigenvalues --   -0.42714  -0.42366  -0.42125  -0.41782  -0.41773
 Alpha  occ. eigenvalues --   -0.41601  -0.41494  -0.41296  -0.41209  -0.40961
 Alpha  occ. eigenvalues --   -0.40826  -0.40800  -0.40673  -0.40590  -0.40531
 Alpha  occ. eigenvalues --   -0.40293  -0.40278  -0.40101  -0.39611  -0.39205
 Alpha  occ. eigenvalues --   -0.38570  -0.38164  -0.37813  -0.37513  -0.37417
 Alpha  occ. eigenvalues --   -0.37330  -0.37070  -0.37036  -0.36794  -0.36621
 Alpha  occ. eigenvalues --   -0.36278  -0.36036  -0.34369  -0.34070  -0.33851
 Alpha  occ. eigenvalues --   -0.33716  -0.33265  -0.32989  -0.31314  -0.31135
 Alpha  occ. eigenvalues --   -0.31100  -0.30795  -0.30094  -0.29781  -0.29499
 Alpha  occ. eigenvalues --   -0.29392  -0.29159  -0.29021  -0.24165  -0.23849
 Alpha  occ. eigenvalues --   -0.21205  -0.20933
 Alpha virt. eigenvalues --   -0.08838  -0.08612  -0.01824  -0.01514  -0.00076
 Alpha virt. eigenvalues --    0.00123   0.02129   0.02388   0.02577   0.03402
 Alpha virt. eigenvalues --    0.04639   0.04892   0.05023   0.05310   0.06078

 Mulliken charges:
               1
     1  Mg   0.831944
     2  C   -0.002594
     3  C   -0.093384
     4  C   -0.045557
     5  C   -0.064227
     6  N   -0.256420
     7  C   -0.053212
     8  C   -0.013802
     9  C   -0.087106
    10  C    0.046329
    11  C    0.104748
    12  C    0.053287
    13  C   -0.071908
    14  H    0.036249
    15  N   -0.433789
    16  C    0.168859
    17  C   -0.176533
    18  C   -0.003049
    19  C    0.147942
    20  C    0.110205
    21  C    0.014158
    22  O   -0.248824
    23  C    0.061783
    24  N   -0.340442
    25  C    0.040668
    26  C   -0.028496
    27  C   -0.024879
    28  C    0.073541
    29  C    0.076117
    30  C    0.041786
    31  C   -0.018479
    32  N   -0.310234
    33  C    0.078968
    34  C   -0.170743
    35  C    0.008322
    36  C    0.081437
    37  C    0.127487
    38  C    0.045689
    39  O   -0.188282
    40  C   -0.005391
    41  C    0.213151
    42  O   -0.257980
    43  O   -0.304642
    44  C    0.157550
    45  H   -0.017270
    46  H   -0.016301
    47  H   -0.041878
    48  H    0.001078
    49  H   -0.003765
    50  H    0.025618
    51  H    0.016569
    52  H    0.016913
    53  H    0.011372
    54  H    0.043687
    55  H    0.018023
    56  H    0.018107
    57  H    0.005676
    58  H    0.027104
    59  H    0.041106
    60  H    0.036324
    61  H    0.037202
    62  H    0.034116
    63  H    0.016807
    64  H    0.010049
    65  H    0.023818
    66  H    0.012952
    67  H    0.004933
    68  H    0.007033
    69  H    0.004537
    70  H    0.010476
    71  H    0.019595
    72  H    0.033258
    73  H    0.047123
    74  H    0.008732
    75  H    0.046392
    76  H    0.035467
    77  H    0.043311
    78  H    0.046486
    79  H    0.053743
    80  Mg   0.837867
    81  C   -0.017139
    82  C   -0.088277
    83  C   -0.045873
    84  C   -0.062710
    85  N   -0.254580
    86  C   -0.049662
    87  C   -0.015120
    88  C   -0.090466
    89  C    0.045707
    90  C    0.114532
    91  C    0.062619
    92  C   -0.077666
    93  H    0.034525
    94  N   -0.423280
    95  C    0.162691
    96  C   -0.175401
    97  C   -0.008386
    98  C    0.151917
    99  C    0.099728
   100  C    0.014851
   101  O   -0.253369
   102  C    0.061257
   103  N   -0.349982
   104  C    0.037339
   105  C   -0.020388
   106  C   -0.037381
   107  C    0.088988
   108  C    0.065540
   109  C    0.031322
   110  C   -0.007731
   111  N   -0.324324
   112  C    0.078204
   113  C   -0.162174
   114  C    0.002178
   115  C    0.096487
   116  C    0.131835
   117  C    0.042684
   118  O   -0.187768
   119  C    0.000827
   120  C    0.211180
   121  O   -0.251179
   122  O   -0.305622
   123  C    0.152136
   124  H   -0.020493
   125  H   -0.015842
   126  H   -0.037866
   127  H   -0.000813
   128  H   -0.004794
   129  H    0.022543
   130  H    0.014366
   131  H    0.015596
   132  H    0.013839
   133  H    0.037644
   134  H    0.020651
   135  H    0.019334
   136  H    0.008367
   137  H    0.024994
   138  H    0.039271
   139  H    0.037404
   140  H    0.035893
   141  H    0.033978
   142  H    0.014822
   143  H    0.017836
   144  H    0.030256
   145  H    0.011129
   146  H    0.010631
   147  H    0.009505
   148  H    0.004403
   149  H    0.010946
   150  H    0.016355
   151  H    0.029713
   152  H    0.045339
   153  H    0.009786
   154  H    0.049159
   155  H    0.035019
   156  H    0.043754
   157  H    0.049261
   158  H    0.053439
 Sum of Mulliken charges =  -0.00000

 Dipole moment (field-independent basis, Debye):
    X=              1.7935    Y=              5.3223    Z=             -6.5234  Tot=              8.6080
 Quadrupole moment (field-independent basis, Debye-Ang):
   XX=           -466.0055   YY=           -554.0990   ZZ=           -465.3128
   XY=            -26.3751   XZ=             21.7377   YZ=             -9.2629

 Normal termination of Gaussian 16 at Sat Sep 11 01:11:33 2021.
