 Gaussian 16, Revision A.03,
 Gaussian 16:  ES64L-G16RevA.03 25-Dec-2016

 -----------------------------------
 #p cam-b3lyp/Def2SVP td=(nstates=5)
 -----------------------------------

 --------------------------------
 TDDFT excited states in gaussian
 --------------------------------
 Symbolic Z-matrix:
 Charge =  0 Multiplicity = 1

                         Standard orientation:
 ---------------------------------------------------------------------
 Center     Atomic      Atomic             Coordinates (Angstroms)
 Number     Number       Type             X           Y           Z
 ---------------------------------------------------------------------
      1         12           0       -3.393350   -1.902512   -0.231068
      2          6           0       -4.703950    1.409305    0.124473
      3          6           0       -4.121023   -1.673159   -3.556869
      4          6           0       -2.666003   -4.978209   -0.491216
      5          6           0       -3.823549   -2.282863    3.206362
      6          7           0       -4.294964   -0.284606   -1.443552
      7          6           0       -4.698502    0.957824   -1.197185
      8          6           0       -5.044309    1.762103   -2.485955
      9          6           0       -5.365956    0.544569   -3.463786
     10          6           0       -4.516391   -0.527516   -2.804395
     11          6           0       -6.826002    0.104606   -3.429121
     12          6           0       -3.831585    2.607027   -3.002806
     13          6           0       -4.173936    3.665320   -4.055501
     14          1           0       -3.448307    4.926525   -4.042345
     15          7           0       -2.937756   -2.981159   -1.822233
     16          6           0       -3.304288   -2.731040   -3.102226
     17          6           0       -2.719230   -3.819881   -3.913898
     18          6           0       -2.143170   -4.825556   -2.978555
     19          6           0       -2.588106   -4.308117   -1.709828
     20          6           0       -2.700717   -3.810883   -5.411672
     21          6           0       -1.330886   -6.063138   -3.194696
     22          8           0       -1.131250   -6.916837   -2.264149
     23          6           0       -0.842580   -6.297310   -4.565741
     24          7           0       -3.465046   -3.497361    1.113905
     25          6           0       -3.038057   -4.715446    0.763287
     26          6           0       -2.919058   -5.616713    1.956390
     27          6           0       -3.122938   -4.684496    3.236685
     28          6           0       -3.421388   -3.349232    2.511242
     29          6           0       -3.911588   -6.786178    2.013363
     30          6           0       -2.004526   -4.707575    4.308618
     31          6           0       -0.741256   -4.095907    3.745492
     32          7           0       -3.961095   -0.622940    1.427668
     33          6           0       -4.097385   -0.996536    2.772482
     34          6           0       -4.604031    0.182207    3.499078
     35          6           0       -4.743912    1.161045    2.517164
     36          6           0       -4.374577    0.619686    1.252722
     37          6           0       -4.927292    0.232143    4.883795
     38          6           0       -5.142908    2.530994    2.238059
     39          8           0       -5.459379    3.500028    2.929659
     40          6           0       -5.249081    2.710198    0.659313
     41          6           0       -4.525391    3.978140    0.296123
     42          8           0       -3.288310    4.070117    0.432269
     43          8           0       -5.359427    4.790588   -0.370852
     44          6           0       -4.695260    6.054822   -0.786484
     45          1           0       -4.518357   -1.805271   -4.565141
     46          1           0       -2.317426   -6.012745   -0.517046
     47          1           0       -3.901583   -2.301364    4.294949
     48          1           0       -5.917223    2.409098   -2.397406
     49          1           0       -5.016397    0.734230   -4.478458
     50          1           0       -7.377898    0.616993   -2.641217
     51          1           0       -6.802102   -0.968930   -3.240861
     52          1           0       -7.290757    0.226913   -4.407804
     53          1           0       -3.172366    1.967726   -3.589989
     54          1           0       -3.309561    3.081477   -2.171112
     55          1           0       -5.248442    3.843378   -4.106893
     56          1           0       -3.918280    3.265954   -5.037004
     57          1           0       -3.342741   -3.029012   -5.815440
     58          1           0       -3.164433   -4.740369   -5.741418
     59          1           0       -1.687863   -3.744142   -5.809169
     60          1           0       -1.692816   -6.354499   -5.245724
     61          1           0       -0.206998   -7.180475   -4.511840
     62          1           0       -0.253852   -5.436020   -4.882802
     63          1           0       -1.932563   -6.076196    2.002542
     64          1           0       -4.026715   -4.941222    3.789815
     65          1           0       -3.433307   -7.763277    2.085691
     66          1           0       -4.551565   -6.728218    1.133385
     67          1           0       -4.643734   -6.725524    2.818161
     68          1           0       -1.767437   -5.733799    4.587185
     69          1           0       -2.269673   -4.169651    5.218885
     70          1           0       -0.285323   -4.928216    3.210497
     71          1           0       -0.094393   -3.748923    4.551954
     72          1           0       -0.966612   -3.321428    3.012087
     73          1           0       -4.525186    1.173899    5.257127
     74          1           0       -4.506439   -0.618396    5.419584
     75          1           0       -6.015755    0.199947    4.838341
     76          1           0       -6.310855    2.762052    0.420423
     77          1           0       -5.288065    6.876236   -0.383873
     78          1           0       -4.575098    6.000484   -1.868617
     79          1           0       -3.724488    6.260625   -0.334173
     80         12           0        4.145213    0.534497    0.372870
     81          6           0        2.151313    3.514681    0.520957
     82          6           0        4.181673    0.906555   -3.017534
     83          6           0        5.514407   -2.320866    0.173780
     84          6           0        3.008144   -0.218991    3.579898
     85          7           0        3.246590    2.055054   -0.958538
     86          6           0        2.562124    3.175664   -0.785076
     87          6           0        2.372333    4.019485   -2.074078
     88          6           0        2.534698    2.844563   -3.156709
     89          6           0        3.404676    1.884967   -2.347385
     90          6           0        1.227045    2.143039   -3.484183
     91          6           0        3.485036    5.112980   -2.241886
     92          6           0        3.191654    6.170676   -3.308166
     93          1           0        3.634656    7.541481   -3.069201
     94          7           0        5.169607   -0.298046   -1.109030
     95          6           0        5.076001   -0.011471   -2.424481
     96          6           0        6.022469   -0.912032   -3.100764
     97          6           0        6.561806   -1.866927   -2.094774
     98          6           0        5.735822   -1.538488   -0.950237
     99          6           0        6.394056   -0.764183   -4.547654
    100          6           0        7.633712   -2.912567   -2.156757
    101          8           0        7.773557   -3.789128   -1.232142
    102          6           0        8.454940   -2.938087   -3.375948
    103          7           0        4.084578   -1.146538    1.594666
    104          6           0        4.814493   -2.238091    1.305418
    105          6           0        4.826487   -3.208574    2.462309
    106          6           0        4.149138   -2.429458    3.683695
    107          6           0        3.765278   -1.117307    2.965148
    108          6           0        4.091595   -4.528705    2.230838
    109          6           0        4.967138   -2.338801    5.001012
    110          6           0        6.186755   -1.470231    4.792459
    111          7           0        2.973250    1.540228    1.883861
    112          6           0        2.593191    1.033573    3.145977
    113          6           0        1.706368    2.037460    3.769024
    114          6           0        1.612793    3.056250    2.808932
    115          6           0        2.370390    2.702483    1.659843
    116          6           0        1.073103    1.914717    5.037901
    117          6           0        1.036810    4.345710    2.501940
    118          8           0        0.376859    5.173723    3.128512
    119          6           0        1.257520    4.642682    0.956143
    120          6           0        1.784331    6.045289    0.823217
    121          8           0        2.904248    6.345104    1.273215
    122          8           0        0.979152    6.742314    0.000900
    123          6           0        1.466536    8.136831   -0.171210
    124          1           0        4.065768    0.801838   -4.096647
    125          1           0        6.055139   -3.269704    0.201784
    126          1           0        2.691321   -0.335154    4.618557
    127          1           0        1.398886    4.484599   -2.173312
    128          1           0        3.067547    3.190833   -4.038482
    129          1           0        0.421686    2.473115   -2.844973
    130          1           0        1.415639    1.087189   -3.340509
    131          1           0        0.989098    2.265100   -4.544753
    132          1           0        4.379477    4.649701   -2.677895
    133          1           0        3.692582    5.592270   -1.304955
    134          1           0        2.141898    6.155869   -3.625570
    135          1           0        3.748805    5.915297   -4.212802
    136          1           0        5.713858   -0.079971   -5.069757
    137          1           0        6.220199   -1.735464   -5.023302
    138          1           0        7.440448   -0.484511   -4.687346
    139          1           0        7.812843   -3.086988   -4.240825
    140          1           0        9.222296   -3.693426   -3.195656
    141          1           0        8.927581   -1.957357   -3.500002
    142          1           0        5.840819   -3.473937    2.733980
    143          1           0        3.207265   -2.903258    3.997097
    144          1           0        4.733277   -5.417505    2.380368
    145          1           0        3.681302   -4.519990    1.229770
    146          1           0        3.203671   -4.676495    2.843159
    147          1           0        5.335224   -3.327178    5.287011
    148          1           0        4.395607   -1.953208    5.838658
    149          1           0        6.909110   -2.161648    4.348367
    150          1           0        6.546306   -1.080247    5.742550
    151          1           0        5.988053   -0.683093    4.055857
    152          1           0        1.178600    2.871221    5.532344
    153          1           0        1.512960    1.111769    5.625756
    154          1           0        0.051871    1.682047    4.724505
    155          1           0        0.295350    4.517813    0.457923
    156          1           0        0.640720    8.800142    0.103969
    157          1           0        1.836190    8.197772   -1.212073
    158          1           0        2.246432    8.481328    0.497761
 ---------------------------------------------------------------------

 SCF Done:  E(RCAM-B3LYP) =  -4069.81125926     A.U. after   19 cycles

 Excitation energies and oscillator strengths:

 Excited State   1:      Singlet-A      1.6364 eV  757.67 nm  f=0.0255  <S**2>=0.000
     309 -> 315        0.11472
     310 -> 316        0.11697
     311 -> 313        0.47971
     312 -> 314        0.49363
 This state for optimization and/or second-order correction.
 Total Energy, E(TD-HF/TD-DFT) =  -4069.75112338
 Copying the excited state density for this state as the 1-particle RhoCI density.

 Excited State   2:      Singlet-A      1.7145 eV  723.17 nm  f=0.6571  <S**2>=0.000
     309 -> 315        0.13265
     310 -> 316       -0.12751
     311 -> 313        0.49009
     312 -> 314       -0.47636

 Excited State   3:      Singlet-A      2.1775 eV  569.40 nm  f=0.0071  <S**2>=0.000
     309 -> 313        0.36048
     310 -> 314        0.53616
     311 -> 315       -0.14742
     312 -> 316       -0.22172

 Excited State   4:      Singlet-A      2.1988 eV  563.87 nm  f=0.1587  <S**2>=0.000
     309 -> 313        0.52967
     310 -> 314       -0.35381
     311 -> 315       -0.23646
     312 -> 316        0.15949

 Excited State   5:      Singlet-A      2.2225 eV  557.86 nm  f=0.0000  <S**2>=0.000
     312 -> 313        0.70696

 The electronic state is 1-A.
 Alpha  occ. eigenvalues --  -46.87859 -46.87313 -19.26230 -19.25897 -19.19010
 Alpha  occ. eigenvalues --  -19.18855 -19.18689 -19.18408 -19.18111 -19.17405
 Alpha  occ. eigenvalues --  -14.42529 -14.42172 -14.41520 -14.41008 -14.39463
 Alpha  occ. eigenvalues --  -14.39001 -14.38636 -14.38217 -10.39057 -10.38594
 Alpha  occ. eigenvalues --  -10.35490 -10.35094 -10.34339 -10.33571 -10.31584
 Alpha  occ. eigenvalues --  -10.31476 -10.31439 -10.30991 -10.30938 -10.30681
 Alpha  occ. eigenvalues --  -10.30627 -10.30558 -10.30293 -10.30014 -10.29982
 Alpha  occ. eigenvalues --  -10.29962 -10.29857 -10.29682 -10.29521 -10.29321
 Alpha  occ. eigenvalues --  -10.29120 -10.29019 -10.28884 -10.28773 -10.28480
 Alpha  occ. eigenvalues --  -10.28413 -10.28412 -10.28231 -10.28000 -10.27876
 Alpha  occ. eigenvalues --  -10.27830 -10.27806 -10.27639 -10.27618 -10.27592
 Alpha  occ. eigenvalues --  -10.27581 -10.27542 -10.27463 -10.27354 -10.27266
 Alpha  occ. eigenvalues --  -10.27231 -10.27151 -10.27099 -10.27092 -10.27082
 Alpha  occ. eigenvalues --  -10.26938 -10.26458 -10.26443 -10.26366 -10.26326
 Alpha  occ. eigenvalues --  -10.26325 -10.26188 -10.26099 -10.25938 -10.25846
 Alpha  occ. eigenvalues --  -10.25819 -10.25611 -10.25508 -10.25415 -10.25089
 Alpha  occ. eigenvalues --  -10.24945 -10.24862 -10.24848 -10.24526 -10.24436
 Alpha  occ. eigenvalues --  -10.24320  -3.16601  -3.16064  -1.91483  -1.91070
 Alpha  occ. eigenvalues --   -1.90947  -1.90911  -1.90535  -1.90371  -1.16581
 Alpha  occ. eigenvalues --   -1.16184  -1.08558  -1.07981  -1.07254  -1.06666
 Alpha  occ. eigenvalues --   -1.06599  -1.06467  -1.04656  -1.04148  -1.03832
 Alpha  occ. eigenvalues --   -1.03311  -1.03291  -1.02681  -1.02471  -1.01742
 Alpha  occ. eigenvalues --   -0.92011  -0.91528  -0.89618  -0.89311  -0.89165
 Alpha  occ. eigenvalues --   -0.88868  -0.88382  -0.87909  -0.87906  -0.87764
 Alpha  occ. eigenvalues --   -0.87390  -0.87351  -0.87337  -0.86808  -0.85096
 Alpha  occ. eigenvalues --   -0.84702  -0.84041  -0.83566  -0.83036  -0.82732
 Alpha  occ. eigenvalues --   -0.82649  -0.82343  -0.81601  -0.81204  -0.80641
 Alpha  occ. eigenvalues --   -0.80081  -0.78856  -0.78292  -0.77315  -0.77022
 Alpha  occ. eigenvalues --   -0.76845  -0.76575  -0.75976  -0.75488  -0.74973
 Alpha  occ. eigenvalues --   -0.74467  -0.72837  -0.72338  -0.71738  -0.71234
 Alpha  occ. eigenvalues --   -0.70044  -0.69492  -0.68970  -0.68520  -0.67693
 Alpha  occ. eigenvalues --   -0.67346  -0.67230  -0.66915  -0.65386  -0.64940
 Alpha  occ. eigenvalues --   -0.64911  -0.64687  -0.64426  -0.64357  -0.64304
 Alpha  occ. eigenvalues --   -0.63883  -0.62296  -0.61878  -0.60508  -0.60014
 Alpha  occ. eigenvalues --   -0.59899  -0.59477  -0.59049  -0.58626  -0.58555
 Alpha  occ. eigenvalues --   -0.58033  -0.57588  -0.57359  -0.57036  -0.56831
 Alpha  occ. eigenvalues --   -0.56360  -0.55990  -0.55847  -0.55576  -0.55506
 Alpha  occ. eigenvalues --   -0.55401  -0.55117  -0.54890  -0.54567  -0.54126
 Alpha  occ. eigenvalues --   -0.54014  -0.53623  -0.53360  -0.53301  -0.52968
 Alpha  occ. eigenvalues --   -0.52898  -0.52838  -0.52813  -0.52573  -0.52551
 Alpha  occ. eigenvalues --   -0.52397  -0.52129  -0.51936  -0.51716  -0.51452
 Alpha  occ. eigenvalues --   -0.51363  -0.51243  -0.50795  -0.50651  -0.50214
 Alpha  occ. eigenvalues --   -0.50147  -0.49995  -0.49696  -0.49596  -0.49567
 Alpha  occ. eigenvalues --   -0.49259  -0.49184  -0.49170  -0.48846  -0.48727
 Alpha  occ. eigenvalues --   -0.48632  -0.48520  -0.48462  -0.48193  -0.48056
 Alpha  occ. eigenvalues --   -0.47946  -0.47767  -0.47356  -0.47273  -0.46885
 Alpha  occ. eigenvalues --   -0.46806  -0.46663  -0.46424  -0.46392  -0.46268
 Alpha  occ. eigenvalues --   -0.46206  -0.45940  -0.45839  -0.45704  -0.45414
 Alpha  occ. eigenvalues --   -0.45285  -0.44871  -0.44611  -0.44597  -0.44238
 Alpha  occ. eigenvalues --   -0.44219  -0.44180  -0.44100  -0.44039  -0.43801
 Alpha  occ. eigenvalues --   -0.43758  -0.43527  -0.43522  -0.43467  -0.43202
 Alpha  occ. eigenvalues --   -0.43082  -0.43037  -0.42801  -0.42643  -0.42551
 Alpha  occ. eigenvalues --   -0.42464  -0.42257  -0.42114  -0.41745  -0.41662
 Alpha  occ. eigenvalues --   -0.41644  -0.41209  -0.41205  -0.41163  -0.40991
 Alpha  occ. eigenvalues --   -0.40903  -0.40668  -0.40643  -0.40441  -0.40434
 Alpha  occ. eigenvalues --   -0.40392  -0.40173  -0.39967  -0.39601  -0.39168
 Alpha  occ. eigenvalues --   -0.38580  -0.38061  -0.37898  -0.37415  -0.37387
 Alpha  occ. eigenvalues --   -0.37360  -0.36952  -0.36874  -0.36720  -0.36367
 Alpha  occ. eigenvalues --   -0.36233  -0.35869  -0.34346  -0.33891  -0.33749
 Alpha  occ. eigenvalues --   -0.33401  -0.33240  -0.32810  -0.31386  -0.31099
 Alpha  occ. eigenvalues --   -0.30968  -0.30602  -0.29972  -0.29497  -0.29350
 Alpha  occ. eigenvalues --   -0.29302  -0.28973  -0.28762  -0.24145  -0.23661
 Alpha  occ. eigenvalues --   -0.21195  -0.20764
 Alpha virt. eigenvalues --   -0.08828  -0.08412  -0.01819  -0.01347  -0.00108
 Alpha virt. eigenvalues --    0.00323   0.02184   0.02465   0.02816   0.03679
 Alpha virt. eigenvalues --    0.04607   0.05012   0.05127   0.05661   0.05965

 Mulliken charges:
               1
     1  Mg   0.838893
     2  C   -0.003378
     3  C   -0.094953
     4  C   -0.045532
     5  C   -0.064499
     6  N   -0.256457
     7  C   -0.053504
     8  C   -0.013324
     9  C   -0.086906
    10  C    0.045773
    11  C    0.104802
    12  C    0.051124
    13  C   -0.071122
    14  H    0.034570
    15  N   -0.433233
    16  C    0.168175
    17  C   -0.177701
    18  C   -0.003846
    19  C    0.148951
    20  C    0.110335
    21  C    0.012873
    22  O   -0.249188
    23  C    0.062472
    24  N   -0.340943
    25  C    0.041070
    26  C   -0.028546
    27  C   -0.023889
    28  C    0.074890
    29  C    0.076080
    30  C    0.035506
    31  C   -0.009480
    32  N   -0.310642
    33  C    0.080381
    34  C   -0.170597
    35  C    0.009675
    36  C    0.083265
    37  C    0.126584
    38  C    0.048574
    39  O   -0.184828
    40  C   -0.006667
    41  C    0.215939
    42  O   -0.255666
    43  O   -0.305290
    44  C    0.155410
    45  H   -0.017901
    46  H   -0.016733
    47  H   -0.041752
    48  H    0.001720
    49  H   -0.004902
    50  H    0.025871
    51  H    0.016753
    52  H    0.016556
    53  H    0.010609
    54  H    0.043512
    55  H    0.019228
    56  H    0.017028
    57  H    0.005272
    58  H    0.027044
    59  H    0.038347
    60  H    0.037037
    61  H    0.036305
    62  H    0.030921
    63  H    0.016473
    64  H    0.009944
    65  H    0.023386
    66  H    0.012837
    67  H    0.004863
    68  H    0.006398
    69  H    0.004464
    70  H    0.010672
    71  H    0.016699
    72  H    0.031912
    73  H    0.049762
    74  H    0.008258
    75  H    0.046364
    76  H    0.035214
    77  H    0.043706
    78  H    0.044266
    79  H    0.058686
    80  Mg   0.835605
    81  C   -0.015250
    82  C   -0.088286
    83  C   -0.045805
    84  C   -0.066455
    85  N   -0.254126
    86  C   -0.049605
    87  C   -0.014568
    88  C   -0.091285
    89  C    0.044969
    90  C    0.112269
    91  C    0.062777
    92  C   -0.076803
    93  H    0.034004
    94  N   -0.423290
    95  C    0.162080
    96  C   -0.176118
    97  C   -0.008535
    98  C    0.151430
    99  C    0.100013
   100  C    0.014885
   101  O   -0.253919
   102  C    0.061522
   103  N   -0.350513
   104  C    0.037495
   105  C   -0.020343
   106  C   -0.035315
   107  C    0.089981
   108  C    0.073228
   109  C    0.034563
   110  C   -0.007167
   111  N   -0.324934
   112  C    0.079159
   113  C   -0.162937
   114  C    0.005759
   115  C    0.094248
   116  C    0.130488
   117  C    0.051012
   118  O   -0.182521
   119  C   -0.002824
   120  C    0.209362
   121  O   -0.253068
   122  O   -0.303938
   123  C    0.152544
   124  H   -0.022165
   125  H   -0.016252
   126  H   -0.041779
   127  H    0.001007
   128  H   -0.005932
   129  H    0.027665
   130  H    0.013401
   131  H    0.012076
   132  H    0.013387
   133  H    0.038054
   134  H    0.019376
   135  H    0.018531
   136  H    0.007225
   137  H    0.024137
   138  H    0.038758
   139  H    0.037325
   140  H    0.035529
   141  H    0.033406
   142  H    0.013638
   143  H    0.012365
   144  H    0.024270
   145  H    0.013608
   146  H    0.004992
   147  H    0.005393
   148  H    0.002507
   149  H    0.010780
   150  H    0.017264
   151  H    0.030727
   152  H    0.046109
   153  H    0.005587
   154  H    0.051290
   155  H    0.051273
   156  H    0.042190
   157  H    0.047534
   158  H    0.052965
 Sum of Mulliken charges =  -0.00000

 Dipole moment (field-independent basis, Debye):
    X=             -2.1101    Y=             -2.2743    Z=             -7.7414  Tot=              8.3400
 Quadrupole moment (field-independent basis, Debye-Ang):
   XX=           -517.4751   YY=           -537.6350   ZZ=           -455.5908
   XY=             17.2302   XZ=              7.8974   YZ=            -50.6065

 Normal termination of Gaussian 16 at Thu Sep  9 06:41:33 2021.
