 Gaussian 16, Revision A.03,
 Gaussian 16:  ES64L-G16RevA.03 25-Dec-2016

 -----------------------------------
 #p cam-b3lyp/Def2SVP td=(nstates=5)
 -----------------------------------

 --------------------------------
 TDDFT excited states in gaussian
 --------------------------------
 Symbolic Z-matrix:
 Charge =  0 Multiplicity = 1

                         Standard orientation:
 ---------------------------------------------------------------------
 Center     Atomic      Atomic             Coordinates (Angstroms)
 Number     Number       Type             X           Y           Z
 ---------------------------------------------------------------------
      1         12           0        7.854507   -0.643380    0.462271
      2          6           0        8.273771    1.989648   -1.925949
      3          6           0        8.905631    1.556277    2.849678
      4          6           0        7.928152   -3.066052    2.507230
      5          6           0        7.940931   -2.880094   -2.208928
      6          7           0        8.480122    1.477268    0.352250
      7          6           0        8.538768    2.388435   -0.613931
      8          6           0        8.834915    3.825709   -0.090563
      9          6           0        9.557704    3.450526    1.280134
     10          6           0        8.917998    2.096036    1.529246
     11          6           0       11.065288    3.263917    1.142771
     12          6           0        7.526574    4.649126    0.158351
     13          6           0        7.729289    6.154348    0.354733
     14          1           0        6.724766    7.069917   -0.164898
     15          7           0        7.870351   -0.652446    2.437750
     16          6           0        8.319094    0.335731    3.248565
     17          6           0        8.117623   -0.148479    4.631183
     18          6           0        7.691532   -1.573605    4.556650
     19          6           0        7.840194   -1.832043    3.147222
     20          6           0        8.280427    0.721536    5.839619
     21          6           0        7.234507   -2.550971    5.592998
     22          8           0        7.134730   -3.802337    5.350715
     23          6           0        6.988227   -2.010683    6.942248
     24          7           0        8.144210   -2.696604    0.221487
     25          6           0        8.069835   -3.530950    1.264233
     26          6           0        8.027125   -4.961932    0.816566
     27          6           0        7.842217   -4.923756   -0.769027
     28          6           0        7.895896   -3.389955   -0.976012
     29          6           0        9.257912   -5.809681    1.166562
     30          6           0        6.640213   -5.705587   -1.355836
     31          6           0        5.345139   -5.049974   -0.931506
     32          7           0        7.889907   -0.496937   -1.702988
     33          6           0        7.947137   -1.557324   -2.618946
     34          6           0        8.061808   -0.961603   -3.962834
     35          6           0        8.080129    0.412609   -3.732506
     36          6           0        8.009499    0.659028   -2.331585
     37          6           0        8.191977   -1.679556   -5.184322
     38          6           0        8.167765    1.729505   -4.342394
     39          8           0        8.154218    2.151903   -5.499497
     40          6           0        8.419421    2.799551   -3.190223
     41          6           0        7.461071    3.938184   -3.410195
     42          8           0        6.231265    3.774343   -3.275663
     43          8           0        8.149399    5.085767   -3.509190
     44          6           0        7.255650    6.259371   -3.698983
     45          1           0        9.443098    2.083362    3.640407
     46          1           0        7.845339   -3.929948    3.170000
     47          1           0        7.887664   -3.513748   -3.096114
     48          1           0        9.508388    4.408525   -0.719199
     49          1           0        9.299240    4.144479    2.079727
     50          1           0       11.376828    3.292918    0.098729
     51          1           0       11.278339    2.286740    1.576624
     52          1           0       11.602662    3.987676    1.756104
     53          1           0        7.117834    4.388059    1.134484
     54          1           0        6.808010    4.483928   -0.645205
     55          1           0        8.727074    6.465962    0.044524
     56          1           0        7.699310    6.366435    1.423527
     57          1           0        8.759152    1.667705    5.590358
     58          1           0        8.991391    0.222494    6.497795
     59          1           0        7.337713    0.874478    6.365197
     60          1           0        7.903578   -1.554496    7.319839
     61          1           0        6.582845   -2.835583    7.527104
     62          1           0        6.252303   -1.209105    6.872704
     63          1           0        7.182618   -5.486034    1.262157
     64          1           0        8.706765   -5.333788   -1.291621
     65          1           0        9.024389   -6.700682    1.749905
     66          1           0        9.967460   -5.172235    1.693340
     67          1           0        9.849925   -6.131354    0.310137
     68          1           0        6.625579   -6.724248   -0.969751
     69          1           0        6.654590   -5.763615   -2.444264
     70          1           0        5.172316   -5.470582    0.058470
     71          1           0        4.540223   -5.319426   -1.616135
     72          1           0        5.464732   -3.973026   -0.811647
     73          1           0        7.532047   -1.187863   -5.898955
     74          1           0        7.926641   -2.728848   -5.057095
     75          1           0        9.253208   -1.539056   -5.389024
     76          1           0        9.458285    3.116097   -3.277871
     77          1           0        7.579033    6.765293   -4.608763
     78          1           0        7.285145    6.825156   -2.767628
     79          1           0        6.216180    6.038961   -3.944463
     80         12           0       -7.961777    0.624582    0.438785
     81          6           0       -7.953892   -1.861979   -2.148880
     82          6           0       -8.661900   -1.884264    2.641087
     83          6           0       -8.420369    2.839942    2.663488
     84          6           0       -8.398380    3.019138   -2.055439
     85          7           0       -8.246382   -1.551250    0.161305
     86          6           0       -8.158741   -2.392383   -0.858090
     87          6           0       -8.218369   -3.891972   -0.461559
     88          6           0       -9.002940   -3.741329    0.931497
     89          6           0       -8.588088   -2.316553    1.292844
     90          6           0      -10.514422   -3.774191    0.777551
     91          6           0       -6.792244   -4.512363   -0.253442
     92          6           0       -6.761618   -6.039983   -0.168605
     93          1           0       -5.617020   -6.745895   -0.737852
     94          7           0       -7.981248    0.472891    2.417470
     95          6           0       -8.264580   -0.626874    3.146516
     96          6           0       -8.162666   -0.213365    4.554631
     97          6           0       -7.957658    1.260025    4.597179
     98          6           0       -8.136519    1.591561    3.197836
     99          6           0       -8.180769   -1.191434    5.693273
    100          6           0       -7.663608    2.214557    5.714587
    101          8           0       -7.760922    3.483154    5.559623
    102          6           0       -7.349203    1.617814    7.020927
    103          7           0       -8.563509    2.612467    0.346142
    104          6           0       -8.630873    3.366876    1.457111
    105          6           0       -8.817171    4.825914    1.115230
    106          6           0       -8.617790    4.924951   -0.468442
    107          6           0       -8.430805    3.426832   -0.794130
    108          6           0      -10.167844    5.431346    1.496703
    109          6           0       -7.552173    5.931621   -0.982016
    110          6           0       -6.169790    5.468845   -0.581752
    111          7           0       -7.961748    0.637845   -1.721739
    112          6           0       -8.190132    1.745031   -2.567947
    113          6           0       -8.204115    1.237199   -3.955146
    114          6           0       -8.004242   -0.144645   -3.817180
    115          6           0       -7.895010   -0.477585   -2.439962
    116          6           0       -8.431916    2.016747   -5.124142
    117          6           0       -7.871454   -1.398877   -4.522854
    118          8           0       -7.794678   -1.725764   -5.706481
    119          6           0       -7.959308   -2.584226   -3.467569
    120          6           0       -6.832042   -3.539924   -3.747613
    121          8           0       -5.650007   -3.185993   -3.592212
    122          8           0       -7.336788   -4.772025   -3.941309
    123          6           0       -6.256213   -5.757444   -4.211741
    124          1           0       -9.105012   -2.555211    3.377543
    125          1           0       -8.478069    3.659159    3.383927
    126          1           0       -8.430963    3.716408   -2.895340
    127          1           0       -8.783371   -4.519270   -1.140559
    128          1           0       -8.632363   -4.445694    1.671707
    129          1           0      -10.813790   -3.774863   -0.260007
    130          1           0      -10.880285   -2.886267    1.276316
    131          1           0      -10.931058   -4.622458    1.328173
    132          1           0       -6.435972   -4.261072    0.753861
    133          1           0       -6.116685   -4.179256   -1.017167
    134          1           0       -7.700689   -6.490792   -0.511929
    135          1           0       -6.695020   -6.327838    0.883404
    136          1           0       -8.509746   -2.185068    5.364842
    137          1           0       -8.962750   -0.861544    6.385767
    138          1           0       -7.229519   -1.232832    6.228135
    139          1           0       -8.180474    0.995124    7.342972
    140          1           0       -7.080941    2.455324    7.667830
    141          1           0       -6.485592    0.953750    6.903468
    142          1           0       -8.066849    5.436201    1.602738
    143          1           0       -9.539896    5.244187   -0.976036
    144          1           0      -10.079477    6.312918    2.159349
    145          1           0      -10.766673    4.661806    1.965462
    146          1           0      -10.792999    5.731405    0.657451
    147          1           0       -7.699183    6.909187   -0.516291
    148          1           0       -7.579952    6.079328   -2.056447
    149          1           0       -6.074493    5.835253    0.444776
    150          1           0       -5.415423    5.910165   -1.229987
    151          1           0       -6.115649    4.374523   -0.547506
    152          1           0       -7.707597    1.693525   -5.859936
    153          1           0       -8.340971    3.080863   -4.916369
    154          1           0       -9.461829    1.729634   -5.352387
    155          1           0       -8.935313   -3.056451   -3.585839
    156          1           0       -6.495690   -6.240929   -5.163890
    157          1           0       -6.210842   -6.404503   -3.315633
    158          1           0       -5.264392   -5.370625   -4.414528
 ---------------------------------------------------------------------

 SCF Done:  E(RCAM-B3LYP) =  -4069.81162667     A.U. after   19 cycles

 Excitation energies and oscillator strengths:

 Excited State   1:      Singlet-A      1.6699 eV  742.48 nm  f=0.0177  <S**2>=0.000
     309 -> 315       -0.10437
     310 -> 316        0.13716
     311 -> 313        0.54721
     312 -> 314       -0.41429
 This state for optimization and/or second-order correction.
 Total Energy, E(TD-HF/TD-DFT) =  -4069.75026017
 Copying the excited state density for this state as the 1-particle RhoCI density.

 Excited State   2:      Singlet-A      1.6851 eV  735.79 nm  f=0.7400  <S**2>=0.000
     309 -> 315        0.14092
     310 -> 316        0.10616
     311 -> 313        0.41378
     312 -> 314        0.54639

 Excited State   3:      Singlet-A      2.1854 eV  567.34 nm  f=0.0596  <S**2>=0.000
     309 -> 314        0.13803
     310 -> 313        0.62772
     311 -> 316       -0.26628

 Excited State   4:      Singlet-A      2.1923 eV  565.54 nm  f=0.1343  <S**2>=0.000
     309 -> 314        0.62582
     310 -> 313       -0.13710
     312 -> 315       -0.27176

 Excited State   5:      Singlet-A      2.8010 eV  442.64 nm  f=0.0000  <S**2>=0.000
     312 -> 313        0.70710

 The electronic state is 1-A.
 Alpha  occ. eigenvalues --  -46.87693 -46.87594 -19.26272 -19.26165 -19.19077
 Alpha  occ. eigenvalues --  -19.18895 -19.18738 -19.18669 -19.18058 -19.17979
 Alpha  occ. eigenvalues --  -14.42434 -14.42348 -14.41348 -14.41295 -14.39302
 Alpha  occ. eigenvalues --  -14.39288 -14.38532 -14.38480 -10.39009 -10.38957
 Alpha  occ. eigenvalues --  -10.35373 -10.35348 -10.34278 -10.34156 -10.31682
 Alpha  occ. eigenvalues --  -10.31562 -10.31299 -10.31242 -10.30962 -10.30811
 Alpha  occ. eigenvalues --  -10.30463 -10.30405 -10.30332 -10.30292 -10.30112
 Alpha  occ. eigenvalues --  -10.30082 -10.29829 -10.29818 -10.29529 -10.29376
 Alpha  occ. eigenvalues --  -10.29337 -10.29157 -10.28657 -10.28648 -10.28591
 Alpha  occ. eigenvalues --  -10.28435 -10.28340 -10.28263 -10.28080 -10.28018
 Alpha  occ. eigenvalues --  -10.27936 -10.27690 -10.27627 -10.27606 -10.27487
 Alpha  occ. eigenvalues --  -10.27458 -10.27419 -10.27417 -10.27406 -10.27405
 Alpha  occ. eigenvalues --  -10.27398 -10.27360 -10.27320 -10.27301 -10.27048
 Alpha  occ. eigenvalues --  -10.26980 -10.26624 -10.26597 -10.26386 -10.26351
 Alpha  occ. eigenvalues --  -10.26144 -10.26080 -10.26068 -10.25972 -10.25917
 Alpha  occ. eigenvalues --  -10.25869 -10.25771 -10.25724 -10.25359 -10.25353
 Alpha  occ. eigenvalues --  -10.24806 -10.24727 -10.24690 -10.24648 -10.24628
 Alpha  occ. eigenvalues --  -10.24567  -3.16435  -3.16344  -1.91317  -1.91226
 Alpha  occ. eigenvalues --   -1.90904  -1.90815  -1.90746  -1.90652  -1.16565
 Alpha  occ. eigenvalues --   -1.16513  -1.08584  -1.08514  -1.07141  -1.06923
 Alpha  occ. eigenvalues --   -1.06863  -1.06518  -1.04479  -1.04431  -1.03660
 Alpha  occ. eigenvalues --   -1.03599  -1.03131  -1.02974  -1.02309  -1.02046
 Alpha  occ. eigenvalues --   -0.91920  -0.91867  -0.89429  -0.89418  -0.89089
 Alpha  occ. eigenvalues --   -0.89087  -0.88189  -0.88158  -0.87762  -0.87723
 Alpha  occ. eigenvalues --   -0.87620  -0.87572  -0.87185  -0.87066  -0.84938
 Alpha  occ. eigenvalues --   -0.84882  -0.83836  -0.83812  -0.82885  -0.82883
 Alpha  occ. eigenvalues --   -0.82593  -0.82551  -0.81527  -0.81477  -0.80494
 Alpha  occ. eigenvalues --   -0.80378  -0.78701  -0.78575  -0.77118  -0.77082
 Alpha  occ. eigenvalues --   -0.76834  -0.76831  -0.75820  -0.75775  -0.74802
 Alpha  occ. eigenvalues --   -0.74743  -0.72671  -0.72634  -0.71574  -0.71520
 Alpha  occ. eigenvalues --   -0.69805  -0.69691  -0.68774  -0.68766  -0.67542
 Alpha  occ. eigenvalues --   -0.67539  -0.67140  -0.67122  -0.65207  -0.65183
 Alpha  occ. eigenvalues --   -0.64749  -0.64705  -0.64588  -0.64518  -0.64169
 Alpha  occ. eigenvalues --   -0.64139  -0.62208  -0.62187  -0.60350  -0.60283
 Alpha  occ. eigenvalues --   -0.59734  -0.59703  -0.58928  -0.58885  -0.58401
 Alpha  occ. eigenvalues --   -0.58360  -0.57482  -0.57473  -0.57209  -0.57174
 Alpha  occ. eigenvalues --   -0.56209  -0.56140  -0.55869  -0.55818  -0.55427
 Alpha  occ. eigenvalues --   -0.55393  -0.55236  -0.55181  -0.54419  -0.54416
 Alpha  occ. eigenvalues --   -0.53850  -0.53794  -0.53203  -0.53167  -0.53125
 Alpha  occ. eigenvalues --   -0.53080  -0.52835  -0.52809  -0.52668  -0.52618
 Alpha  occ. eigenvalues --   -0.52333  -0.52331  -0.51810  -0.51801  -0.51598
 Alpha  occ. eigenvalues --   -0.51518  -0.51133  -0.51090  -0.50493  -0.50427
 Alpha  occ. eigenvalues --   -0.49935  -0.49922  -0.49830  -0.49808  -0.49432
 Alpha  occ. eigenvalues --   -0.49420  -0.49140  -0.49113  -0.49041  -0.48996
 Alpha  occ. eigenvalues --   -0.48492  -0.48488  -0.48373  -0.48348  -0.48315
 Alpha  occ. eigenvalues --   -0.48285  -0.47598  -0.47534  -0.47202  -0.47060
 Alpha  occ. eigenvalues --   -0.46695  -0.46644  -0.46493  -0.46455  -0.46257
 Alpha  occ. eigenvalues --   -0.46206  -0.46058  -0.46019  -0.45752  -0.45711
 Alpha  occ. eigenvalues --   -0.45149  -0.45107  -0.44472  -0.44449  -0.44413
 Alpha  occ. eigenvalues --   -0.44413  -0.44066  -0.44045  -0.44014  -0.43991
 Alpha  occ. eigenvalues --   -0.43919  -0.43881  -0.43484  -0.43386  -0.43322
 Alpha  occ. eigenvalues --   -0.43287  -0.42925  -0.42862  -0.42832  -0.42591
 Alpha  occ. eigenvalues --   -0.42545  -0.42490  -0.41904  -0.41896  -0.41603
 Alpha  occ. eigenvalues --   -0.41601  -0.41433  -0.41396  -0.41043  -0.40929
 Alpha  occ. eigenvalues --   -0.40771  -0.40739  -0.40670  -0.40639  -0.40472
 Alpha  occ. eigenvalues --   -0.40430  -0.40167  -0.40134  -0.39357  -0.39337
 Alpha  occ. eigenvalues --   -0.38372  -0.38290  -0.37645  -0.37590  -0.37221
 Alpha  occ. eigenvalues --   -0.37202  -0.37160  -0.37135  -0.36696  -0.36600
 Alpha  occ. eigenvalues --   -0.36150  -0.36085  -0.34187  -0.34183  -0.33781
 Alpha  occ. eigenvalues --   -0.33649  -0.33110  -0.33082  -0.31267  -0.31228
 Alpha  occ. eigenvalues --   -0.30935  -0.30910  -0.29916  -0.29882  -0.29351
 Alpha  occ. eigenvalues --   -0.29266  -0.29216  -0.29143  -0.23978  -0.23971
 Alpha  occ. eigenvalues --   -0.21053  -0.21026
 Alpha virt. eigenvalues --   -0.08728  -0.08674  -0.01651  -0.01622   0.00028
 Alpha virt. eigenvalues --    0.00034   0.02275   0.02306   0.03246   0.03312
 Alpha virt. eigenvalues --    0.04793   0.04819   0.05218   0.05244   0.06246

 Mulliken charges:
               1
     1  Mg   0.839158
     2  C   -0.002837
     3  C   -0.094133
     4  C   -0.045936
     5  C   -0.063894
     6  N   -0.256761
     7  C   -0.052383
     8  C   -0.014028
     9  C   -0.087011
    10  C    0.046328
    11  C    0.104864
    12  C    0.053448
    13  C   -0.071772
    14  H    0.036241
    15  N   -0.433078
    16  C    0.168367
    17  C   -0.177278
    18  C   -0.004183
    19  C    0.148689
    20  C    0.110227
    21  C    0.012146
    22  O   -0.249982
    23  C    0.062542
    24  N   -0.341208
    25  C    0.041250
    26  C   -0.028072
    27  C   -0.024023
    28  C    0.075020
    29  C    0.076269
    30  C    0.035112
    31  C   -0.004493
    32  N   -0.310580
    33  C    0.080687
    34  C   -0.169300
    35  C    0.008464
    36  C    0.083269
    37  C    0.127203
    38  C    0.046413
    39  O   -0.188169
    40  C   -0.005447
    41  C    0.212848
    42  O   -0.256604
    43  O   -0.304944
    44  C    0.157646
    45  H   -0.017806
    46  H   -0.017142
    47  H   -0.041361
    48  H    0.000872
    49  H   -0.004101
    50  H    0.025416
    51  H    0.016347
    52  H    0.016485
    53  H    0.011285
    54  H    0.044409
    55  H    0.017712
    56  H    0.017859
    57  H    0.005831
    58  H    0.026541
    59  H    0.039375
    60  H    0.037287
    61  H    0.035159
    62  H    0.031467
    63  H    0.016363
    64  H    0.009324
    65  H    0.022884
    66  H    0.012450
    67  H    0.004636
    68  H    0.005967
    69  H    0.004922
    70  H    0.008336
    71  H    0.018767
    72  H    0.029360
    73  H    0.048122
    74  H    0.009266
    75  H    0.045817
    76  H    0.034996
    77  H    0.042846
    78  H    0.046255
    79  H    0.053980
    80  Mg   0.838198
    81  C   -0.016698
    82  C   -0.087800
    83  C   -0.045571
    84  C   -0.064837
    85  N   -0.254552
    86  C   -0.049769
    87  C   -0.015129
    88  C   -0.090510
    89  C    0.045744
    90  C    0.114426
    91  C    0.062526
    92  C   -0.077848
    93  H    0.034928
    94  N   -0.423407
    95  C    0.162877
    96  C   -0.174729
    97  C   -0.007962
    98  C    0.152125
    99  C    0.099413
   100  C    0.015453
   101  O   -0.253438
   102  C    0.061254
   103  N   -0.350117
   104  C    0.037510
   105  C   -0.019762
   106  C   -0.034864
   107  C    0.089068
   108  C    0.073748
   109  C    0.034737
   110  C   -0.007692
   111  N   -0.324213
   112  C    0.078696
   113  C   -0.162785
   114  C    0.002339
   115  C    0.096462
   116  C    0.131397
   117  C    0.042667
   118  O   -0.187613
   119  C    0.000798
   120  C    0.211249
   121  O   -0.250539
   122  O   -0.305763
   123  C    0.151999
   124  H   -0.019830
   125  H   -0.015797
   126  H   -0.040323
   127  H   -0.000719
   128  H   -0.004365
   129  H    0.022399
   130  H    0.014338
   131  H    0.016134
   132  H    0.014025
   133  H    0.037934
   134  H    0.020633
   135  H    0.019546
   136  H    0.008730
   137  H    0.025902
   138  H    0.039659
   139  H    0.038195
   140  H    0.036006
   141  H    0.033854
   142  H    0.014294
   143  H    0.012305
   144  H    0.024904
   145  H    0.011531
   146  H    0.005573
   147  H    0.005995
   148  H    0.003814
   149  H    0.010617
   150  H    0.018459
   151  H    0.030391
   152  H    0.046511
   153  H    0.008657
   154  H    0.046763
   155  H    0.034872
   156  H    0.043815
   157  H    0.049326
   158  H    0.053838
 Sum of Mulliken charges =  -0.00000

 Dipole moment (field-independent basis, Debye):
    X=              0.2823    Y=             -0.6215    Z=              7.2696  Tot=              7.3016
 Quadrupole moment (field-independent basis, Debye-Ang):
   XX=           -455.1999   YY=           -460.0948   ZZ=           -539.6896
   XY=             29.8060   XZ=              7.3886   YZ=              3.2761

 Normal termination of Gaussian 16 at Sat Sep 11 22:34:55 2021.
