 Gaussian 16, Revision A.03,
 Gaussian 16:  ES64L-G16RevA.03 25-Dec-2016

 -----------------------------------
 #p cam-b3lyp/Def2SVP td=(nstates=5)
 -----------------------------------

 --------------------------------
 TDDFT excited states in gaussian
 --------------------------------
 Symbolic Z-matrix:
 Charge =  0 Multiplicity = 1

                         Standard orientation:
 ---------------------------------------------------------------------
 Center     Atomic      Atomic             Coordinates (Angstroms)
 Number     Number       Type             X           Y           Z
 ---------------------------------------------------------------------
      1         12           0       -7.638665   -1.054670    0.396819
      2          6           0       -8.009694    2.493383    0.103779
      3          6           0       -8.616608   -1.276704   -2.864683
      4          6           0       -7.757670   -4.202762    0.760104
      5          6           0       -7.800923   -0.637842    3.853058
      6          7           0       -8.211824    0.484533   -1.087427
      7          6           0       -8.254849    1.813182   -1.091156
      8          6           0       -8.511034    2.419066   -2.503476
      9          6           0       -9.232753    1.171631   -3.185403
     10          6           0       -8.625301    0.055357   -2.354224
     11          6           0      -10.745516    1.161651   -2.990593
     12          6           0       -7.180681    2.785999   -3.243241
     13          6           0       -7.344201    3.675635   -4.479026
     14          1           0       -6.320982    4.669376   -4.766863
     15          7           0       -7.640015   -2.500560   -0.949379
     16          6           0       -8.057839   -2.409832   -2.234866
     17          6           0       -7.858253   -3.751406   -2.823954
     18          6           0       -7.468521   -4.677639   -1.724729
     19          6           0       -7.634098   -3.825521   -0.575008
     20          6           0       -7.990230   -4.034726   -4.288898
     21          6           0       -7.028387   -6.107408   -1.711511
     22          8           0       -6.961760   -6.788606   -0.631649
     23          6           0       -6.758621   -6.723866   -3.023094
     24          7           0       -7.981438   -2.281315    2.050749
     25          6           0       -7.920197   -3.613365    1.946461
     26          6           0       -7.916642   -4.267153    3.296456
     27          6           0       -7.742653   -3.087490    4.358472
     28          6           0       -7.759478   -1.886032    3.381494
     29          6           0       -9.165614   -5.088178    3.645738
     30          6           0       -6.564992   -3.209052    5.357850
     31          6           0       -5.250795   -3.084690    4.619935
     32          7           0       -7.686518    0.624187    1.771662
     33          6           0       -7.777084    0.566584    3.169930
     34          6           0       -7.886821    1.955248    3.653290
     35          6           0       -7.869035    2.728302    2.494015
     36          6           0       -7.781828    1.875069    1.357053
     37          6           0       -8.044009    2.355604    5.009549
     38          6           0       -7.928234    4.075338    1.950099
     39          8           0       -7.912742    5.207713    2.434848
     40          6           0       -8.144448    3.971000    0.375872
     41          6           0       -7.159572    4.899568   -0.280703
     42          8           0       -5.933283    4.674962   -0.224742
     43          8           0       -7.819689    5.765357   -1.065049
     44          6           0       -6.898293    6.696623   -1.769270
     45          1           0       -9.134812   -1.485938   -3.802567
     46          1           0       -7.691564   -5.278185    0.937676
     47          1           0       -7.770139   -0.425589    4.923317
     48          1           0       -9.174377    3.284110   -2.513424
     49          1           0       -8.951057    1.060853   -4.232350
     50          1           0      -11.064001    1.946122   -2.304230
     51          1           0      -10.979713    0.178995   -2.580677
     52          1           0      -11.260028    1.216349   -3.950313
     53          1           0       -6.771342    1.891026   -3.711777
     54          1           0       -6.472481    3.250192   -2.555997
     55          1           0       -8.336160    4.126730   -4.516961
     56          1           0       -7.300964    3.041455   -5.364546
     57          1           0       -8.446974   -3.199744   -4.818741
     58          1           0       -8.708536   -4.847751   -4.392513
     59          1           0       -7.040096   -4.324141   -4.738138
     60          1           0       -7.659433   -6.676086   -3.635307
     61          1           0       -6.369661   -7.719580   -2.813062
     62          1           0       -6.003409   -6.133069   -3.542287
     63          1           0       -7.082217   -4.960588    3.392935
     64          1           0       -8.621059   -2.977156    4.994792
     65          1           0       -8.950119   -6.126028    3.900951
     66          1           0       -9.855046   -5.027464    2.804140
     67          1           0       -9.771854   -4.677228    4.452590
     68          1           0       -6.572976   -4.187954    5.836005
     69          1           0       -6.588924   -2.455283    6.144939
     70          1           0       -5.081180   -4.096205    4.252648
     71          1           0       -4.457995   -2.779557    5.303728
     72          1           0       -5.342507   -2.433426    3.750492
     73          1           0       -7.377325    3.205345    5.155979
     74          1           0       -7.804071    1.541474    5.693088
     75          1           0       -9.102888    2.613405    5.022565
     76          1           0       -9.175690    4.263734    0.181017
     77          1           0       -7.215683    7.709850   -1.522555
     78          1           0       -6.906683    6.405439   -2.819768
     79          1           0       -5.866521    6.712499   -1.416377
     80         12           0        8.213560   -0.344172   -0.153644
     81          6           0        6.510402    2.811447   -0.010825
     82          6           0        6.143997   -1.175123   -2.734544
     83          6           0        9.383815   -3.290031   -0.012840
     84          6           0        9.331867    0.269992    3.089488
     85          7           0        6.578870    0.760170   -1.153902
     86          6           0        6.061844    1.975555   -1.054630
     87          6           0        5.062211    2.343469   -2.183755
     88          6           0        4.616443    0.858870   -2.603433
     89          6           0        5.867945    0.096862   -2.172439
     90          6           0        3.437764    0.334712   -1.800108
     91          6           0        5.755547    3.093356   -3.374955
     92          6           0        4.794352    3.753657   -4.365842
     93          1           0        5.187542    5.019500   -4.978634
     94          7           0        8.178028   -1.805678   -1.495764
     95          6           0        7.279531   -1.977665   -2.487947
     96          6           0        7.679644   -3.210480   -3.183815
     97          6           0        8.790262   -3.841007   -2.419819
     98          6           0        8.813677   -2.995849   -1.242859
     99          6           0        7.077923   -3.639164   -4.490557
    100          6           0        9.675223   -5.018579   -2.696157
    101          8           0       10.415392   -5.533144   -1.784994
    102          6           0        9.579928   -5.609454   -4.039016
    103          7           0        9.037032   -1.461712    1.394039
    104          6           0        9.517011   -2.698350    1.174380
    105          6           0       10.305224   -3.196510    2.362217
    106          6           0       10.459207   -1.936312    3.334721
    107          6           0        9.620133   -0.905547    2.548033
    108          6           0        9.682746   -4.360616    3.132781
    109          6           0       11.901847   -1.546279    3.758199
    110          6           0       12.671318   -1.036898    2.560777
    111          7           0        8.137649    1.313460    1.230024
    112          6           0        8.646542    1.349418    2.546771
    113          6           0        8.253246    2.648407    3.130198
    114          6           0        7.517312    3.273503    2.112290
    115          6           0        7.439097    2.415723    0.981978
    116          6           0        8.538089    3.085968    4.454410
    117          6           0        6.779809    4.459576    1.740777
    118          8           0        6.580615    5.556928    2.260270
    119          6           0        5.987643    4.161369    0.395434
    120          6           0        6.217408    5.313425   -0.543976
    121          8           0        7.352792    5.543336   -0.996352
    122          8           0        5.028575    5.817352   -0.922287
    123          6           0        5.203921    6.955536   -1.863343
    124          1           0        5.401373   -1.622302   -3.395919
    125          1           0        9.897787   -4.251939    0.050644
    126          1           0        9.725089    0.577477    4.060827
    127          1           0        4.199601    2.912884   -1.859033
    128          1           0        4.472211    0.778606   -3.677728
    129          1           0        3.168690    1.003702   -0.996243
    130          1           0        3.752751   -0.622697   -1.406156
    131          1           0        2.593369    0.124827   -2.462904
    132          1           0        6.228849    2.355564   -4.035564
    133          1           0        6.455711    3.820283   -3.011679
    134          1           0        3.774046    3.819418   -3.968856
    135          1           0        4.700093    3.106737   -5.241417
    136          1           0        6.171923   -3.066159   -4.723433
    137          1           0        6.722637   -4.666712   -4.357196
    138          1           0        7.796704   -3.617619   -5.312478
    139          1           0        8.556614   -5.929006   -4.221165
    140          1           0       10.351183   -6.381350   -4.074050
    141          1           0        9.803797   -4.833370   -4.779420
    142          1           0       11.290520   -3.529839    2.060253
    143          1           0        9.943356   -2.095718    4.293010
    144          1           0       10.346053   -5.243502    3.200627
    145          1           0        8.747271   -4.623483    2.657043
    146          1           0        9.367724   -4.126396    4.148208
    147          1           0       12.440230   -2.424760    4.122304
    148          1           0       11.934192   -0.799830    4.544819
    149          1           0       13.021005   -1.956778    2.082622
    150          1           0       13.506001   -0.415065    2.878038
    151          1           0       12.006241   -0.529434    1.852392
    152          1           0        8.852059    4.118653    4.380306
    153          1           0        9.303612    2.469379    4.920849
    154          1           0        7.558930    2.947233    4.920518
    155          1           0        4.934152    4.047732    0.653911
    156          1           0        4.671609    7.809959   -1.434052
    157          1           0        4.855115    6.586912   -2.846302
    158          1           0        6.201676    7.363125   -1.976538
 ---------------------------------------------------------------------

 SCF Done:  E(RCAM-B3LYP) =  -4069.81167789     A.U. after   19 cycles

 Excitation energies and oscillator strengths:

 Excited State   1:      Singlet-A      1.6695 eV  742.66 nm  f=0.0135  <S**2>=0.000
     309 -> 315        0.10578
     310 -> 316       -0.13599
     311 -> 313        0.41971
     312 -> 314        0.54311
 This state for optimization and/or second-order correction.
 Total Energy, E(TD-HF/TD-DFT) =  -4069.75032604
 Copying the excited state density for this state as the 1-particle RhoCI density.

 Excited State   2:      Singlet-A      1.6854 eV  735.64 nm  f=0.7416  <S**2>=0.000
     309 -> 315        0.14006
     310 -> 316        0.10756
     311 -> 313        0.54224
     312 -> 314       -0.41914

 Excited State   3:      Singlet-A      2.1854 eV  567.34 nm  f=0.0708  <S**2>=0.000
     309 -> 313        0.12070
     310 -> 314        0.63129
     312 -> 316        0.26768

 Excited State   4:      Singlet-A      2.1927 eV  565.43 nm  f=0.1253  <S**2>=0.000
     309 -> 313        0.62932
     310 -> 314       -0.11979
     311 -> 315       -0.27355

 Excited State   5:      Singlet-A      2.7421 eV  452.15 nm  f=0.0000  <S**2>=0.000
     312 -> 313        0.70704

 The electronic state is 1-A.
 Alpha  occ. eigenvalues --  -46.87890 -46.87578 -19.26363 -19.26221 -19.19102
 Alpha  occ. eigenvalues --  -19.19047 -19.18915 -19.18650 -19.18243 -19.17947
 Alpha  occ. eigenvalues --  -14.42543 -14.42412 -14.41538 -14.41278 -14.39497
 Alpha  occ. eigenvalues --  -14.39271 -14.38676 -14.38515 -10.39162 -10.38974
 Alpha  occ. eigenvalues --  -10.35550 -10.35329 -10.34464 -10.34122 -10.31755
 Alpha  occ. eigenvalues --  -10.31629 -10.31494 -10.31216 -10.31007 -10.30936
 Alpha  occ. eigenvalues --  -10.30657 -10.30595 -10.30315 -10.30297 -10.30274
 Alpha  occ. eigenvalues --  -10.30068 -10.30003 -10.29813 -10.29719 -10.29360
 Alpha  occ. eigenvalues --  -10.29347 -10.29320 -10.28851 -10.28663 -10.28613
 Alpha  occ. eigenvalues --  -10.28567 -10.28457 -10.28319 -10.28213 -10.28036
 Alpha  occ. eigenvalues --  -10.27917 -10.27879 -10.27819 -10.27677 -10.27591
 Alpha  occ. eigenvalues --  -10.27586 -10.27576 -10.27525 -10.27494 -10.27452
 Alpha  occ. eigenvalues --  -10.27412 -10.27395 -10.27388 -10.27308 -10.27239
 Alpha  occ. eigenvalues --  -10.26933 -10.26827 -10.26602 -10.26527 -10.26368
 Alpha  occ. eigenvalues --  -10.26320 -10.26253 -10.26105 -10.26079 -10.25900
 Alpha  occ. eigenvalues --  -10.25893 -10.25856 -10.25763 -10.25503 -10.25334
 Alpha  occ. eigenvalues --  -10.24917 -10.24876 -10.24786 -10.24762 -10.24675
 Alpha  occ. eigenvalues --  -10.24609  -3.16633  -3.16328  -1.91515  -1.91210
 Alpha  occ. eigenvalues --   -1.91101  -1.90943  -1.90799  -1.90635  -1.16712
 Alpha  occ. eigenvalues --   -1.16519  -1.08699  -1.08550  -1.07317  -1.06904
 Alpha  occ. eigenvalues --   -1.06830  -1.06724  -1.04674  -1.04408  -1.03850
 Alpha  occ. eigenvalues --   -1.03580  -1.03323  -1.02958  -1.02500  -1.02028
 Alpha  occ. eigenvalues --   -0.92059  -0.91893  -0.89601  -0.89418  -0.89287
 Alpha  occ. eigenvalues --   -0.89051  -0.88367  -0.88148  -0.87949  -0.87766
 Alpha  occ. eigenvalues --   -0.87707  -0.87600  -0.87373  -0.87052  -0.85081
 Alpha  occ. eigenvalues --   -0.84908  -0.84014  -0.83803  -0.83066  -0.82869
 Alpha  occ. eigenvalues --   -0.82744  -0.82565  -0.81669  -0.81495  -0.80686
 Alpha  occ. eigenvalues --   -0.80351  -0.78890  -0.78560  -0.77307  -0.77060
 Alpha  occ. eigenvalues --   -0.77024  -0.76805  -0.76011  -0.75739  -0.74977
 Alpha  occ. eigenvalues --   -0.74724  -0.72859  -0.72616  -0.71758  -0.71492
 Alpha  occ. eigenvalues --   -0.69984  -0.69690  -0.68969  -0.68738  -0.67730
 Alpha  occ. eigenvalues --   -0.67518  -0.67326  -0.67118  -0.65382  -0.65176
 Alpha  occ. eigenvalues --   -0.64940  -0.64709  -0.64683  -0.64561  -0.64352
 Alpha  occ. eigenvalues --   -0.64127  -0.62379  -0.62175  -0.60536  -0.60268
 Alpha  occ. eigenvalues --   -0.59899  -0.59701  -0.59074  -0.58907  -0.58590
 Alpha  occ. eigenvalues --   -0.58337  -0.57666  -0.57448  -0.57393  -0.57156
 Alpha  occ. eigenvalues --   -0.56397  -0.56120  -0.56065  -0.55783  -0.55612
 Alpha  occ. eigenvalues --   -0.55417  -0.55367  -0.55162  -0.54602  -0.54397
 Alpha  occ. eigenvalues --   -0.53994  -0.53815  -0.53389  -0.53318  -0.53148
 Alpha  occ. eigenvalues --   -0.53053  -0.53002  -0.52858  -0.52810  -0.52595
 Alpha  occ. eigenvalues --   -0.52514  -0.52334  -0.51985  -0.51796  -0.51717
 Alpha  occ. eigenvalues --   -0.51571  -0.51279  -0.51111  -0.50679  -0.50415
 Alpha  occ. eigenvalues --   -0.50114  -0.50015  -0.49898  -0.49796  -0.49611
 Alpha  occ. eigenvalues --   -0.49406  -0.49302  -0.49186  -0.49111  -0.49005
 Alpha  occ. eigenvalues --   -0.48676  -0.48550  -0.48530  -0.48462  -0.48300
 Alpha  occ. eigenvalues --   -0.48262  -0.47786  -0.47510  -0.47386  -0.47041
 Alpha  occ. eigenvalues --   -0.46883  -0.46654  -0.46627  -0.46463  -0.46445
 Alpha  occ. eigenvalues --   -0.46242  -0.46191  -0.45999  -0.45899  -0.45723
 Alpha  occ. eigenvalues --   -0.45281  -0.45133  -0.44660  -0.44603  -0.44421
 Alpha  occ. eigenvalues --   -0.44389  -0.44231  -0.44183  -0.44106  -0.44034
 Alpha  occ. eigenvalues --   -0.44002  -0.43856  -0.43576  -0.43477  -0.43454
 Alpha  occ. eigenvalues --   -0.43295  -0.43112  -0.42833  -0.42799  -0.42780
 Alpha  occ. eigenvalues --   -0.42734  -0.42482  -0.42094  -0.41885  -0.41789
 Alpha  occ. eigenvalues --   -0.41632  -0.41576  -0.41372  -0.41229  -0.40964
 Alpha  occ. eigenvalues --   -0.40926  -0.40899  -0.40653  -0.40649  -0.40616
 Alpha  occ. eigenvalues --   -0.40415  -0.40347  -0.40138  -0.39519  -0.39360
 Alpha  occ. eigenvalues --   -0.38553  -0.38276  -0.37854  -0.37567  -0.37405
 Alpha  occ. eigenvalues --   -0.37362  -0.37187  -0.37110  -0.36794  -0.36664
 Alpha  occ. eigenvalues --   -0.36277  -0.36129  -0.34375  -0.34168  -0.33855
 Alpha  occ. eigenvalues --   -0.33754  -0.33275  -0.33092  -0.31444  -0.31209
 Alpha  occ. eigenvalues --   -0.31125  -0.30888  -0.30102  -0.29849  -0.29542
 Alpha  occ. eigenvalues --   -0.29407  -0.29249  -0.29125  -0.24170  -0.23951
 Alpha  occ. eigenvalues --   -0.21217  -0.21034
 Alpha virt. eigenvalues --   -0.08864  -0.08709  -0.01841  -0.01603  -0.00154
 Alpha virt. eigenvalues --    0.00049   0.02119   0.02299   0.03001   0.03302
 Alpha virt. eigenvalues --    0.04622   0.04817   0.05016   0.05279   0.06069

 Mulliken charges:
               1
     1  Mg   0.838199
     2  C   -0.003116
     3  C   -0.094421
     4  C   -0.045884
     5  C   -0.063816
     6  N   -0.256765
     7  C   -0.052539
     8  C   -0.013922
     9  C   -0.086932
    10  C    0.046122
    11  C    0.104790
    12  C    0.053561
    13  C   -0.071653
    14  H    0.035706
    15  N   -0.433126
    16  C    0.168174
    17  C   -0.177400
    18  C   -0.004163
    19  C    0.148564
    20  C    0.110203
    21  C    0.012055
    22  O   -0.249527
    23  C    0.062631
    24  N   -0.341107
    25  C    0.041213
    26  C   -0.028174
    27  C   -0.024083
    28  C    0.074877
    29  C    0.076120
    30  C    0.035103
    31  C   -0.004540
    32  N   -0.310545
    33  C    0.080464
    34  C   -0.169421
    35  C    0.008564
    36  C    0.083002
    37  C    0.127233
    38  C    0.046317
    39  O   -0.187850
    40  C   -0.005425
    41  C    0.213037
    42  O   -0.257296
    43  O   -0.304727
    44  C    0.157599
    45  H   -0.017620
    46  H   -0.016773
    47  H   -0.041151
    48  H    0.001163
    49  H   -0.004272
    50  H    0.025629
    51  H    0.016557
    52  H    0.016715
    53  H    0.010628
    54  H    0.043926
    55  H    0.018264
    56  H    0.017714
    57  H    0.005810
    58  H    0.026970
    59  H    0.038886
    60  H    0.037510
    61  H    0.035630
    62  H    0.030832
    63  H    0.016524
    64  H    0.009689
    65  H    0.023308
    66  H    0.012568
    67  H    0.004931
    68  H    0.006548
    69  H    0.005017
    70  H    0.008669
    71  H    0.018409
    72  H    0.028694
    73  H    0.048039
    74  H    0.009323
    75  H    0.046210
    76  H    0.035336
    77  H    0.043348
    78  H    0.046140
    79  H    0.053729
    80  Mg   0.837874
    81  C   -0.016795
    82  C   -0.087818
    83  C   -0.045608
    84  C   -0.064953
    85  N   -0.254579
    86  C   -0.049610
    87  C   -0.015236
    88  C   -0.090539
    89  C    0.045804
    90  C    0.114379
    91  C    0.062559
    92  C   -0.077786
    93  H    0.034480
    94  N   -0.423496
    95  C    0.162872
    96  C   -0.174754
    97  C   -0.007957
    98  C    0.152086
    99  C    0.099468
   100  C    0.015451
   101  O   -0.253360
   102  C    0.061255
   103  N   -0.350062
   104  C    0.037491
   105  C   -0.019801
   106  C   -0.034816
   107  C    0.088967
   108  C    0.073700
   109  C    0.034764
   110  C   -0.007647
   111  N   -0.324200
   112  C    0.078581
   113  C   -0.163136
   114  C    0.002507
   115  C    0.096149
   116  C    0.131469
   117  C    0.042547
   118  O   -0.187335
   119  C    0.000889
   120  C    0.211163
   121  O   -0.251393
   122  O   -0.305082
   123  C    0.152157
   124  H   -0.019913
   125  H   -0.015772
   126  H   -0.040530
   127  H    0.000394
   128  H   -0.004797
   129  H    0.023654
   130  H    0.014222
   131  H    0.016219
   132  H    0.013570
   133  H    0.037620
   134  H    0.021490
   135  H    0.019067
   136  H    0.008502
   137  H    0.025894
   138  H    0.039461
   139  H    0.038118
   140  H    0.036180
   141  H    0.033754
   142  H    0.014238
   143  H    0.012403
   144  H    0.024944
   145  H    0.011709
   146  H    0.005608
   147  H    0.006114
   148  H    0.003629
   149  H    0.010838
   150  H    0.017813
   151  H    0.030179
   152  H    0.046021
   153  H    0.008322
   154  H    0.047308
   155  H    0.036231
   156  H    0.044365
   157  H    0.049295
   158  H    0.053200
 Sum of Mulliken charges =  -0.00000

 Dipole moment (field-independent basis, Debye):
    X=             -4.6869    Y=             -4.4522    Z=             -6.0199  Tot=              8.8334
 Quadrupole moment (field-independent basis, Debye-Ang):
   XX=           -513.3916   YY=           -564.8944   ZZ=           -446.9989
   XY=             -5.4498   XZ=             31.8529   YZ=            -25.5142

 Normal termination of Gaussian 16 at Sun Sep 12 04:51:32 2021.
