 Gaussian 16, Revision A.03,
 Gaussian 16:  ES64L-G16RevA.03 25-Dec-2016

 -----------------------------------
 #p cam-b3lyp/Def2SVP td=(nstates=5)
 -----------------------------------

 --------------------------------
 TDDFT excited states in gaussian
 --------------------------------
 Symbolic Z-matrix:
 Charge =  0 Multiplicity = 1

                         Standard orientation:
 ---------------------------------------------------------------------
 Center     Atomic      Atomic             Coordinates (Angstroms)
 Number     Number       Type             X           Y           Z
 ---------------------------------------------------------------------
      1         12           0        6.201517    0.847209    0.384928
      2          6           0        6.643530   -2.294579   -1.272178
      3          6           0        7.120911    2.349140   -2.537739
      4          6           0        6.259070    3.606250    1.947300
      5          6           0        6.429270   -0.880213    3.403173
      6          7           0        6.783083    0.024307   -1.586178
      7          6           0        6.854461   -1.196053   -2.108476
      8          6           0        7.100375   -1.196218   -3.646950
      9          6           0        7.783966    0.236765   -3.792758
     10          6           0        7.166469    0.924200   -2.587746
     11          6           0        9.299158    0.209448   -3.619700
     12          6           0        5.766235   -1.280152   -4.462276
     13          6           0        5.928482   -1.612762   -5.948345
     14          1           0        4.922183   -2.441878   -6.594313
     15          7           0        6.149869    2.703137   -0.290138
     16          6           0        6.548419    3.131893   -1.511863
     17          6           0        6.310546    4.591275   -1.529248
     18          6           0        5.919147    5.004927   -0.153097
     19          6           0        6.121738    3.776515    0.571707
     20          6           0        6.412408    5.426851   -2.768275
     21          6           0        5.448796    6.304300    0.420081
     22          8           0        5.385312    6.508396    1.680592
     23          6           0        5.144446    7.376211   -0.545020
     24          7           0        6.545019    1.340143    2.384092
     25          6           0        6.453588    2.605288    2.808395
     26          6           0        6.458166    2.680445    4.306483
     27          6           0        6.326885    1.175894    4.824986
     28          6           0        6.353404    0.451504    3.456474
     29          6           0        7.694840    3.332514    4.940088
     30          6           0        5.163427    0.867278    5.800454
     31          6           0        3.840277    1.006315    5.081399
     32          7           0        6.307805   -1.233038    0.995108
     33          6           0        6.420018   -1.723003    2.304313
     34          6           0        6.567349   -3.186837    2.206583
     35          6           0        6.547116   -3.446711    0.837678
     36          6           0        6.423053   -2.220205    0.124528
     37          6           0        6.755271   -4.080203    3.297921
     38          6           0        6.626204   -4.472893   -0.189236
     39          8           0        6.642891   -5.704638   -0.184811
     40          6           0        6.814311   -3.757238   -1.599300
     41          6           0        5.838904   -4.381552   -2.559572
     42          8           0        4.609171   -4.228643   -2.412124
     43          8           0        6.504455   -4.855322   -3.624056
     44          6           0        5.591781   -5.461881   -4.629674
     45          1           0        7.619081    2.921041   -3.323039
     46          1           0        6.172886    4.525129    2.530970
     47          1           0        6.420575   -1.493802    4.305883
     48          1           0        7.781824   -1.971246   -3.998207
     49          1           0        7.482846    0.739706   -4.711507
     50          1           0        9.645560   -0.771990   -3.296119
     51          1           0        9.518960    0.960160   -2.860350
     52          1           0        9.798927    0.546837   -4.528092
     53          1           0        5.330217   -0.284330   -4.541570
     54          1           0        5.079486   -1.993930   -4.005962
     55          1           0        6.929112   -1.987286   -6.166017
     56          1           0        5.857181   -0.684799   -6.515796
     57          1           0        6.878171    4.876868   -3.585055
     58          1           0        7.111358    6.234346   -2.551182
     59          1           0        5.449064    5.843655   -3.062512
     60          1           0        6.035921    7.594513   -1.133378
     61          1           0        4.737763    8.200638    0.039599
     62          1           0        4.393643    7.015206   -1.248524
     63          1           0        5.610787    3.259306    4.671579
     64          1           0        7.217760    0.849085    5.361841
     65          1           0        7.461398    4.182630    5.581581
     66          1           0        8.371531    3.622859    4.136919
     67          1           0        8.322874    2.655394    5.518446
     68          1           0        5.158297    1.582015    6.622689
     69          1           0        5.216376   -0.132874    6.230738
     70          1           0        3.643060    2.076173    5.139193
     71          1           0        3.065498    0.438079    5.597188
     72          1           0        3.931644    0.748358    4.026129
     73          1           0        6.109411   -4.936844    3.105568
     74          1           0        6.509200   -3.603699    4.246602
     75          1           0        7.819495   -4.294936    3.202150
     76          1           0        7.848250   -3.923774   -1.899897
     77          1           0        5.934780   -6.482433   -4.800137
     78          1           0        5.576724   -4.783932   -5.483234
     79          1           0        4.566506   -5.641053   -4.304025
     80         12           0       -6.989858    0.137745   -0.178424
     81          6           0       -4.344725   -2.015800    0.937192
     82          6           0       -4.785908    2.728593    0.075964
     83          6           0       -9.408414    2.118264   -0.722072
     84          6           0       -9.230415   -2.367673    0.742683
     85          7           0       -4.867052    0.219484    0.437418
     86          6           0       -3.948768   -0.671092    0.780922
     87          6           0       -2.508948   -0.101239    0.889322
     88          6           0       -2.879197    1.437028    1.164106
     89          6           0       -4.248265    1.483323    0.488674
     90          6           0       -3.062719    1.757819    2.638132
     91          6           0       -1.698305   -0.267642   -0.443795
     92          6           0       -0.194077   -0.016561   -0.317356
     93          1           0        0.716387   -0.821153   -1.127395
     94          7           0       -6.990562    2.030912   -0.773835
     95          6           0       -6.003312    2.936132   -0.609008
     96          6           0       -6.500457    4.186431   -1.203800
     97          6           0       -7.925264    3.990007   -1.585963
     98          6           0       -8.174832    2.683592   -1.010558
     99          6           0       -5.623771    5.383096   -1.433638
    100          6           0       -8.905225    4.843030   -2.333123
    101          8           0      -10.158923    4.576661   -2.343557
    102          6           0       -8.366905    6.051414   -2.974601
    103          7           0       -9.033163   -0.000336    0.179607
    104          6           0       -9.869711    0.980778   -0.201848
    105          6           0      -11.310625    0.542576   -0.091669
    106          6           0      -11.260347   -1.026234    0.214755
    107          6           0       -9.731114   -1.214295    0.321766
    108          6           0      -12.139067    1.244664    0.984035
    109          6           0      -12.054195   -1.956209   -0.743184
    110          6           0      -11.419817   -1.946312   -2.115357
    111          7           0       -6.842062   -1.904921    0.509852
    112          6           0       -7.904891   -2.765166    0.862622
    113          6           0       -7.303090   -4.011470    1.379325
    114          6           0       -5.921057   -3.779168    1.312287
    115          6           0       -5.678945   -2.472200    0.809567
    116          6           0       -8.018808   -5.138168    1.873712
    117          6           0       -4.612099   -4.338412    1.562472
    118          8           0       -4.190173   -5.441509    1.907250
    119          6           0       -3.535362   -3.174685    1.449568
    120          6           0       -2.402789   -3.671263    0.593290
    121          8           0       -2.585438   -3.927805   -0.609797
    122          8           0       -1.249668   -3.554424    1.276698
    123          6           0       -0.095546   -4.024142    0.464808
    124          1           0       -4.245966    3.639075    0.337450
    125          1           0      -10.278326    2.719845   -0.995637
    126          1           0       -9.860158   -3.233480    0.958292
    127          1           0       -1.924993   -0.495834    1.712165
    128          1           0       -2.184194    2.106093    0.663431
    129          1           0       -3.029853    0.869281    3.250955
    130          1           0       -4.030235    2.236124    2.716847
    131          1           0       -2.330169    2.505575    2.955231
    132          1           0       -1.967444    0.545332   -1.130367
    133          1           0       -1.868204   -1.235121   -0.874776
    134          1           0        0.134628   -0.000442    0.728892
    135          1           0        0.021388    0.990896   -0.681535
    136          1           0       -4.669271    5.290748   -0.900909
    137          1           0       -6.118171    6.237578   -0.958993
    138          1           0       -5.479681    5.602303   -2.493753
    139          1           0       -7.902086    6.683435   -2.221637
    140          1           0       -9.200343    6.481641   -3.533327
    141          1           0       -7.573600    5.754649   -3.669733
    142          1           0      -11.835682    0.701572   -1.025554
    143          1           0      -11.675986   -1.261381    1.205610
    144          1           0      -13.044177    1.739594    0.584156
    145          1           0      -11.505430    1.961526    1.489160
    146          1           0      -12.466424    0.607618    1.803926
    147          1           0      -13.074681   -1.586641   -0.870364
    148          1           0      -12.123983   -2.980184   -0.391622
    149          1           0      -11.843114   -1.048928   -2.576452
    150          1           0      -11.693137   -2.841563   -2.670209
    151          1           0      -10.335426   -1.801358   -2.046574
    152          1           0       -7.536422   -6.016703    1.466307
    153          1           0       -9.069612   -5.095296    1.594874
    154          1           0       -7.873715   -5.004864    2.949095
    155          1           0       -3.207851   -2.932120    2.461239
    156          1           0        0.415948   -4.793342    1.051669
    157          1           0        0.482436   -3.115077    0.213239
    158          1           0       -0.312570   -4.564773   -0.449015
 ---------------------------------------------------------------------

 SCF Done:  E(RCAM-B3LYP) =  -4069.81242486     A.U. after   19 cycles

 Excitation energies and oscillator strengths:

 Excited State   1:      Singlet-A      1.6632 eV  745.45 nm  f=0.0051  <S**2>=0.000
     309 -> 315        0.11503
     310 -> 316       -0.12566
     311 -> 313        0.46176
     312 -> 314        0.50839
 This state for optimization and/or second-order correction.
 Total Energy, E(TD-HF/TD-DFT) =  -4069.75130288
 Copying the excited state density for this state as the 1-particle RhoCI density.

 Excited State   2:      Singlet-A      1.6901 eV  733.59 nm  f=0.7307  <S**2>=0.000
     309 -> 315        0.13169
     310 -> 316        0.11887
     311 -> 313        0.50702
     312 -> 314       -0.46062

 Excited State   3:      Singlet-A      2.1845 eV  567.56 nm  f=0.1082  <S**2>=0.000
     310 -> 314        0.64243
     312 -> 316        0.27175

 Excited State   4:      Singlet-A      2.1923 eV  565.56 nm  f=0.0945  <S**2>=0.000
     309 -> 313        0.64048
     311 -> 315       -0.27760

 Excited State   5:      Singlet-A      2.5700 eV  482.44 nm  f=0.0000  <S**2>=0.000
     312 -> 313        0.70676

 The electronic state is 1-A.
 Alpha  occ. eigenvalues --  -46.88035 -46.87488 -19.26444 -19.25773 -19.19229
 Alpha  occ. eigenvalues --  -19.19074 -19.18696 -19.18583 -19.18376 -19.17817
 Alpha  occ. eigenvalues --  -14.42674 -14.42317 -14.41682 -14.41190 -14.39642
 Alpha  occ. eigenvalues --  -14.39183 -14.38823 -14.38423 -10.39285 -10.38637
 Alpha  occ. eigenvalues --  -10.35708 -10.35264 -10.34595 -10.33983 -10.31777
 Alpha  occ. eigenvalues --  -10.31618 -10.31130 -10.31111 -10.30920 -10.30827
 Alpha  occ. eigenvalues --  -10.30795 -10.30744 -10.30439 -10.30226 -10.30176
 Alpha  occ. eigenvalues --  -10.30150 -10.29994 -10.29863 -10.29727 -10.29487
 Alpha  occ. eigenvalues --  -10.29281 -10.29231 -10.28931 -10.28661 -10.28597
 Alpha  occ. eigenvalues --  -10.28465 -10.28298 -10.28272 -10.28218 -10.28018
 Alpha  occ. eigenvalues --  -10.27946 -10.27920 -10.27827 -10.27821 -10.27726
 Alpha  occ. eigenvalues --  -10.27708 -10.27676 -10.27627 -10.27495 -10.27390
 Alpha  occ. eigenvalues --  -10.27358 -10.27344 -10.27302 -10.27284 -10.27245
 Alpha  occ. eigenvalues --  -10.26878 -10.26753 -10.26683 -10.26421 -10.26396
 Alpha  occ. eigenvalues --  -10.26387 -10.26321 -10.26245 -10.26025 -10.26020
 Alpha  occ. eigenvalues --  -10.25823 -10.25773 -10.25692 -10.25635 -10.25283
 Alpha  occ. eigenvalues --  -10.25058 -10.25021 -10.24979 -10.24690 -10.24621
 Alpha  occ. eigenvalues --  -10.24521  -3.16779  -3.16238  -1.91661  -1.91247
 Alpha  occ. eigenvalues --   -1.91121  -1.91089  -1.90709  -1.90546  -1.16800
 Alpha  occ. eigenvalues --   -1.16096  -1.08831  -1.08404  -1.07478  -1.06844
 Alpha  occ. eigenvalues --   -1.06839  -1.06473  -1.04804  -1.04309  -1.03991
 Alpha  occ. eigenvalues --   -1.03489  -1.03468  -1.02871  -1.02643  -1.01938
 Alpha  occ. eigenvalues --   -0.92191  -0.91770  -0.89752  -0.89374  -0.89333
 Alpha  occ. eigenvalues --   -0.88921  -0.88515  -0.88081  -0.88070  -0.87888
 Alpha  occ. eigenvalues --   -0.87619  -0.87514  -0.87493  -0.86976  -0.85178
 Alpha  occ. eigenvalues --   -0.84771  -0.84165  -0.83712  -0.83215  -0.82852
 Alpha  occ. eigenvalues --   -0.82798  -0.82424  -0.81770  -0.81235  -0.80804
 Alpha  occ. eigenvalues --   -0.80143  -0.79026  -0.78476  -0.77431  -0.77121
 Alpha  occ. eigenvalues --   -0.76949  -0.76617  -0.76110  -0.75543  -0.75111
 Alpha  occ. eigenvalues --   -0.74598  -0.72993  -0.72524  -0.71881  -0.71375
 Alpha  occ. eigenvalues --   -0.70146  -0.69617  -0.69075  -0.68604  -0.67863
 Alpha  occ. eigenvalues --   -0.67419  -0.67399  -0.66970  -0.65483  -0.65065
 Alpha  occ. eigenvalues --   -0.65025  -0.64826  -0.64569  -0.64497  -0.64360
 Alpha  occ. eigenvalues --   -0.64019  -0.62483  -0.61875  -0.60679  -0.60188
 Alpha  occ. eigenvalues --   -0.60004  -0.59584  -0.59206  -0.58794  -0.58722
 Alpha  occ. eigenvalues --   -0.58209  -0.57788  -0.57531  -0.57259  -0.57029
 Alpha  occ. eigenvalues --   -0.56525  -0.56151  -0.56020  -0.55740  -0.55553
 Alpha  occ. eigenvalues --   -0.55519  -0.55197  -0.54996  -0.54730  -0.54181
 Alpha  occ. eigenvalues --   -0.54084  -0.53675  -0.53524  -0.53430  -0.53128
 Alpha  occ. eigenvalues --   -0.53031  -0.52979  -0.52909  -0.52679  -0.52610
 Alpha  occ. eigenvalues --   -0.52495  -0.52246  -0.52116  -0.51814  -0.51702
 Alpha  occ. eigenvalues --   -0.51412  -0.51404  -0.50955  -0.50818  -0.50346
 Alpha  occ. eigenvalues --   -0.50259  -0.50147  -0.49807  -0.49724  -0.49717
 Alpha  occ. eigenvalues --   -0.49428  -0.49297  -0.49281  -0.48978  -0.48874
 Alpha  occ. eigenvalues --   -0.48788  -0.48695  -0.48659  -0.48288  -0.48218
 Alpha  occ. eigenvalues --   -0.48127  -0.47907  -0.47511  -0.47373  -0.47013
 Alpha  occ. eigenvalues --   -0.46915  -0.46746  -0.46581  -0.46514  -0.46372
 Alpha  occ. eigenvalues --   -0.46318  -0.46085  -0.46006  -0.45845  -0.45520
 Alpha  occ. eigenvalues --   -0.45423  -0.45039  -0.44779  -0.44730  -0.44373
 Alpha  occ. eigenvalues --   -0.44279  -0.44277  -0.44258  -0.44227  -0.43927
 Alpha  occ. eigenvalues --   -0.43886  -0.43707  -0.43683  -0.43594  -0.43238
 Alpha  occ. eigenvalues --   -0.43237  -0.43102  -0.42919  -0.42844  -0.42706
 Alpha  occ. eigenvalues --   -0.42432  -0.42379  -0.42231  -0.41919  -0.41771
 Alpha  occ. eigenvalues --   -0.41726  -0.41451  -0.41348  -0.41231  -0.41082
 Alpha  occ. eigenvalues --   -0.41057  -0.40793  -0.40789  -0.40556  -0.40492
 Alpha  occ. eigenvalues --   -0.40414  -0.40309  -0.39967  -0.39688  -0.39290
 Alpha  occ. eigenvalues --   -0.38688  -0.38185  -0.37933  -0.37545  -0.37463
 Alpha  occ. eigenvalues --   -0.37383  -0.37094  -0.36955  -0.36912  -0.36402
 Alpha  occ. eigenvalues --   -0.36389  -0.35916  -0.34513  -0.34069  -0.33988
 Alpha  occ. eigenvalues --   -0.33458  -0.33415  -0.32976  -0.31602  -0.31262
 Alpha  occ. eigenvalues --   -0.31140  -0.30784  -0.30233  -0.29711  -0.29688
 Alpha  occ. eigenvalues --   -0.29551  -0.29165  -0.29032  -0.24310  -0.23854
 Alpha  occ. eigenvalues --   -0.21356  -0.20945
 Alpha virt. eigenvalues --   -0.09005  -0.08619  -0.01984  -0.01516  -0.00295
 Alpha virt. eigenvalues --    0.00137   0.01975   0.02394   0.02600   0.03392
 Alpha virt. eigenvalues --    0.04514   0.04895   0.04988   0.05588   0.06017

 Mulliken charges:
               1
     1  Mg   0.836507
     2  C   -0.003514
     3  C   -0.093884
     4  C   -0.046399
     5  C   -0.063831
     6  N   -0.256883
     7  C   -0.052348
     8  C   -0.013869
     9  C   -0.086981
    10  C    0.046202
    11  C    0.104688
    12  C    0.053403
    13  C   -0.072438
    14  H    0.037633
    15  N   -0.433232
    16  C    0.168080
    17  C   -0.177192
    18  C   -0.004414
    19  C    0.148334
    20  C    0.110068
    21  C    0.011365
    22  O   -0.249845
    23  C    0.062817
    24  N   -0.341059
    25  C    0.041218
    26  C   -0.028197
    27  C   -0.024073
    28  C    0.074502
    29  C    0.076025
    30  C    0.035157
    31  C   -0.004714
    32  N   -0.310457
    33  C    0.080060
    34  C   -0.169888
    35  C    0.008281
    36  C    0.082005
    37  C    0.127452
    38  C    0.045175
    39  O   -0.187381
    40  C   -0.005001
    41  C    0.213654
    42  O   -0.259306
    43  O   -0.304468
    44  C    0.157164
    45  H   -0.017119
    46  H   -0.016910
    47  H   -0.040910
    48  H    0.001498
    49  H   -0.003697
    50  H    0.025772
    51  H    0.016456
    52  H    0.017182
    53  H    0.010867
    54  H    0.043521
    55  H    0.018228
    56  H    0.018106
    57  H    0.006368
    58  H    0.027245
    59  H    0.039006
    60  H    0.038090
    61  H    0.035425
    62  H    0.030440
    63  H    0.015947
    64  H    0.010152
    65  H    0.023353
    66  H    0.012842
    67  H    0.005292
    68  H    0.006847
    69  H    0.005698
    70  H    0.007882
    71  H    0.018499
    72  H    0.027808
    73  H    0.047814
    74  H    0.009610
    75  H    0.046686
    76  H    0.035911
    77  H    0.043935
    78  H    0.046839
    79  H    0.054276
    80  Mg   0.837423
    81  C   -0.016327
    82  C   -0.087984
    83  C   -0.045881
    84  C   -0.065415
    85  N   -0.254491
    86  C   -0.049862
    87  C   -0.014736
    88  C   -0.090364
    89  C    0.045665
    90  C    0.114362
    91  C    0.063163
    92  C   -0.082093
    93  H    0.043720
    94  N   -0.423397
    95  C    0.162638
    96  C   -0.174924
    97  C   -0.008256
    98  C    0.152000
    99  C    0.099483
   100  C    0.015265
   101  O   -0.253638
   102  C    0.061352
   103  N   -0.350174
   104  C    0.037384
   105  C   -0.019688
   106  C   -0.034829
   107  C    0.089137
   108  C    0.073812
   109  C    0.034834
   110  C   -0.007611
   111  N   -0.324208
   112  C    0.078685
   113  C   -0.163387
   114  C    0.002549
   115  C    0.096098
   116  C    0.131494
   117  C    0.042199
   118  O   -0.186839
   119  C    0.001339
   120  C    0.211518
   121  O   -0.251402
   122  O   -0.307082
   123  C    0.151133
   124  H   -0.019817
   125  H   -0.016082
   126  H   -0.040789
   127  H   -0.000099
   128  H   -0.004403
   129  H    0.022169
   130  H    0.013884
   131  H    0.016528
   132  H    0.012452
   133  H    0.038882
   134  H    0.020263
   135  H    0.017226
   136  H    0.008613
   137  H    0.025754
   138  H    0.038862
   139  H    0.038070
   140  H    0.035873
   141  H    0.033480
   142  H    0.014068
   143  H    0.012177
   144  H    0.024742
   145  H    0.011574
   146  H    0.005386
   147  H    0.005908
   148  H    0.003545
   149  H    0.010705
   150  H    0.017694
   151  H    0.030369
   152  H    0.046244
   153  H    0.008153
   154  H    0.046747
   155  H    0.034540
   156  H    0.046223
   157  H    0.053680
   158  H    0.055340
 Sum of Mulliken charges =  -0.00000

 Dipole moment (field-independent basis, Debye):
    X=              3.7904    Y=              7.0133    Z=             -1.8130  Tot=              8.1756
 Quadrupole moment (field-independent basis, Debye-Ang):
   XX=           -484.7495   YY=           -550.2047   ZZ=           -474.6700
   XY=             24.3869   XZ=            -30.6954   YZ=             -9.6550

 Normal termination of Gaussian 16 at Sat Sep 11 11:07:31 2021.
