 Gaussian 16, Revision A.03,
 Gaussian 16:  ES64L-G16RevA.03 25-Dec-2016

 -----------------------------------
 #p cam-b3lyp/Def2SVP td=(nstates=5)
 -----------------------------------

 --------------------------------
 TDDFT excited states in gaussian
 --------------------------------
 Symbolic Z-matrix:
 Charge =  0 Multiplicity = 1

                         Standard orientation:
 ---------------------------------------------------------------------
 Center     Atomic      Atomic             Coordinates (Angstroms)
 Number     Number       Type             X           Y           Z
 ---------------------------------------------------------------------
      1         12           0        3.418849   -1.509074    0.479672
      2          6           0        4.518603    1.491619   -1.132343
      3          6           0        4.313966   -0.069399    3.440950
      4          6           0        2.881945   -4.305013    1.876483
      5          6           0        3.680406   -3.091663   -2.614300
      6          7           0        4.292784    0.466432    0.963677
      7          6           0        4.611291    1.548406    0.260075
      8          6           0        4.981339    2.775020    1.146560
      9          6           0        5.424530    2.004490    2.470139
     10          6           0        4.602002    0.739203    2.301552
     11          6           0        6.903003    1.630078    2.491030
     12          6           0        3.753009    3.709199    1.411598
     13          6           0        4.092282    5.087075    1.987536
     14          1           0        3.296885    6.233644    1.575139
     15          7           0        3.113054   -1.954116    2.380008
     16          6           0        3.534609   -1.246371    3.455495
     17          6           0        3.057514   -1.986896    4.643217
     18          6           0        2.488729   -3.281026    4.174382
     19          6           0        2.833339   -3.242747    2.776113
     20          6           0        3.120818   -1.437803    6.035424
     21          6           0        1.760813   -4.382868    4.877385
     22          8           0        1.558952   -5.521253    4.331577
     23          6           0        1.362573   -4.121641    6.272451
     24          7           0        3.506615   -3.478923   -0.205621
     25          6           0        3.169079   -4.501307    0.587968
     26          6           0        3.035872   -5.776253   -0.190946
     27          6           0        3.116091   -5.363593   -1.731410
     28          6           0        3.377967   -3.847349   -1.556218
     29          6           0        4.088302   -6.853891    0.104176
     30          6           0        1.943585   -5.809345   -2.640781
     31          6           0        0.680596   -5.077460   -2.245434
     32          7           0        3.821376   -0.897532   -1.563618
     33          6           0        3.904498   -1.727205   -2.691185
     34          6           0        4.303016   -0.874741   -3.826331
     35          6           0        4.441054    0.396848   -3.273292
     36          6           0        4.172926    0.337221   -1.875850
     37          6           0        4.546389   -1.318021   -5.156258
     38          6           0        4.776686    1.787411   -3.533180
     39          8           0        4.999399    2.450848   -4.546956
     40          6           0        4.959112    2.528477   -2.135550
     41          6           0        4.185938    3.817403   -2.200204
     42          8           0        2.940028    3.813162   -2.271305
     43          8           0        5.008080    4.842983   -1.930371
     44          6           0        4.297334    6.149368   -1.949146
     45          1           0        4.772914    0.184986    4.398340
     46          1           0        2.594360   -5.271162    2.296350
     47          1           0        3.699451   -3.499764   -3.626497
     48          1           0        5.810095    3.374651    0.769690
     49          1           0        5.121068    2.536425    3.371626
     50          1           0        7.380936    1.840948    1.534456
     51          1           0        6.929531    0.560904    2.702355
     52          1           0        7.413152    2.113063    3.324847
     53          1           0        3.164236    3.303990    2.234527
     54          1           0        3.160103    3.833525    0.504773
     55          1           0        5.156201    5.306955    1.894590
     56          1           0        3.913912    5.061247    3.062579
     57          1           0        3.738818   -0.542166    6.084980
     58          1           0        3.653753   -2.169473    6.642341
     59          1           0        2.129175   -1.265308    6.454019
     60          1           0        2.250746   -3.901174    6.864981
     61          1           0        0.775939   -4.985007    6.584396
     62          1           0        0.744397   -3.223869    6.300972
     63          1           0        2.075889   -6.253578    0.001461
     64          1           0        4.001188   -5.772962   -2.218948
     65          1           0        3.662779   -7.806266    0.421377
     66          1           0        4.771345   -6.460769    0.856637
     67          1           0        4.770536   -7.064126   -0.719095
     68          1           0        1.749953   -6.874090   -2.515206
     69          1           0        2.127497   -5.628346   -3.699869
     70          1           0        0.302522   -5.674685   -1.416449
     71          1           0       -0.028169   -5.066903   -3.074139
     72          1           0        0.901747   -4.083298   -1.856565
     73          1           0        4.071784   -0.588641   -5.812555
     74          1           0        4.145504   -2.318075   -5.319921
     75          1           0        5.635783   -1.295747   -5.180359
     76          1           0        6.027773    2.698101   -2.007823
     77          1           0        4.819740    6.788794   -2.660806
     78          1           0        4.240055    6.485876   -0.913826
     79          1           0        3.293103    6.145697   -2.374405
     80         12           0       -4.263695    0.296458   -0.422649
     81          6           0       -1.340108    2.320666    0.061408
     82          6           0       -5.967334    2.569240    1.465903
     83          6           0       -6.741216   -1.685582   -0.450977
     84          6           0       -2.135186   -2.329910   -1.269617
     85          7           0       -3.626408    2.163133    0.578182
     86          6           0       -2.504936    2.865012    0.641325
     87          6           0       -2.657621    4.263749    1.296894
     88          6           0       -3.966156    3.973252    2.181325
     89          6           0       -4.584168    2.855625    1.343670
     90          6           0       -3.649622    3.417691    3.559914
     91          6           0       -2.917893    5.393985    0.240095
     92          6           0       -2.769643    6.820345    0.774218
     93          1           0       -2.223225    7.842804   -0.113750
     94          7           0       -6.182178    0.633223   -0.042443
     95          6           0       -6.699294    1.613979    0.726971
     96          6           0       -8.157013    1.417323    0.703588
     97          6           0       -8.447063    0.142897   -0.008040
     98          6           0       -7.104335   -0.374317   -0.180316
     99          6           0       -9.123337    2.428393    1.248918
    100          6           0       -9.722723   -0.509319   -0.447907
    101          8           0       -9.755204   -1.729663   -0.838491
    102          6           0      -10.947683    0.293477   -0.319494
    103          7           0       -4.414487   -1.769670   -0.597955
    104          6           0       -5.614754   -2.374626   -0.634348
    105          6           0       -5.483445   -3.823112   -1.040568
    106          6           0       -3.963995   -4.002761   -1.505947
    107          6           0       -3.433544   -2.587035   -1.190148
    108          6           0       -5.808096   -4.850200    0.043910
    109          6           0       -3.727181   -4.580599   -2.928159
    110          6           0       -4.195826   -3.592071   -3.971512
    111          7           0       -2.143211    0.060978   -0.763489
    112          6           0       -1.457900   -1.131651   -1.082962
    113          6           0       -0.015540   -0.812875   -1.103324
    114          6           0        0.040168    0.548613   -0.769051
    115          6           0       -1.273222    1.038566   -0.535672
    116          6           0        1.037190   -1.737077   -1.355765
    117          6           0        0.912167    1.680160   -0.550163
    118          8           0        2.117096    1.887660   -0.687409
    119          6           0        0.066995    2.847103    0.120896
    120          6           0        0.369522    4.122823   -0.616333
    121          8           0        0.037133    4.258802   -1.806979
    122          8           0        0.802745    5.046541    0.260840
    123          6           0        1.105360    6.333008   -0.421250
    124          1           0       -6.540697    3.095835    2.229344
    125          1           0       -7.568810   -2.386899   -0.580298
    126          1           0       -1.413808   -3.070767   -1.620918
    127          1           0       -1.834230    4.557925    1.936638
    128          1           0       -4.624348    4.837769    2.208674
    129          1           0       -2.598484    3.198210    3.674219
    130          1           0       -4.237337    2.514029    3.654958
    131          1           0       -4.015981    4.098257    4.333823
    132          1           0       -3.983878    5.401123   -0.021373
    133          1           0       -2.290428    5.263177   -0.620025
    134          1           0       -2.263492    6.845718    1.746907
    135          1           0       -3.765943    7.219119    0.980046
    136          1           0       -8.613060    3.184964    1.857698
    137          1           0       -9.771462    1.901490    1.957550
    138          1           0       -9.743278    2.880437    0.471744
    139          1           0      -11.080199    0.586468    0.719282
    140          1           0      -11.740394   -0.309366   -0.766763
    141          1           0      -10.821744    1.218176   -0.893684
    142          1           0       -6.135747   -4.051545   -1.874494
    143          1           0       -3.416653   -4.696717   -0.851215
    144          1           0       -6.603977   -5.559809   -0.251217
    145          1           0       -6.086821   -4.319243    0.944421
    146          1           0       -4.963459   -5.448815    0.380729
    147          1           0       -4.319427   -5.487663   -3.071850
    148          1           0       -2.691413   -4.838064   -3.122824
    149          1           0       -5.270720   -3.787294   -4.031227
    150          1           0       -3.706807   -3.780832   -4.925062
    151          1           0       -4.066966   -2.560892   -3.622629
    152          1           0        1.732948   -1.242526   -2.020477
    153          1           0        0.659842   -2.660736   -1.789623
    154          1           0        1.414750   -1.884732   -0.340429
    155          1           0        0.359254    2.901524    1.170276
    156          1           0        2.140472    6.589313   -0.175225
    157          1           0        0.319675    7.038280   -0.091031
    158          1           0        1.139964    6.329969   -1.504416
 ---------------------------------------------------------------------

 SCF Done:  E(RCAM-B3LYP) =  -4069.77740397     A.U. after   18 cycles

 Excitation energies and oscillator strengths:

 Excited State   1:      Singlet-A      1.6205 eV  765.08 nm  f=0.3610  <S**2>=0.000
     309 -> 315        0.12914
     311 -> 313        0.51752
     312 -> 313        0.18988
     312 -> 314       -0.40764
 This state for optimization and/or second-order correction.
 Total Energy, E(TD-HF/TD-DFT) =  -4069.71784991
 Copying the excited state density for this state as the 1-particle RhoCI density.

 Excited State   2:      Singlet-A      1.6860 eV  735.38 nm  f=0.4498  <S**2>=0.000
     309 -> 315        0.10255
     310 -> 316        0.14023
     311 -> 313        0.37130
     312 -> 313        0.17705
     312 -> 314        0.53870

 Excited State   3:      Singlet-A      1.9380 eV  639.75 nm  f=0.0024  <S**2>=0.000
     311 -> 313       -0.25501
     312 -> 313        0.64782

 Excited State   4:      Singlet-A      2.0927 eV  592.45 nm  f=0.0448  <S**2>=0.000
     309 -> 313       -0.16385
     310 -> 314        0.62756
     312 -> 316       -0.21996

 Excited State   5:      Singlet-A      2.1751 eV  570.03 nm  f=0.1222  <S**2>=0.000
     309 -> 313        0.62297
     310 -> 314        0.15517
     311 -> 315       -0.25140

 The electronic state is 1-A.
 Alpha  occ. eigenvalues --  -46.87701 -46.86782 -19.26257 -19.25679 -19.18771
 Alpha  occ. eigenvalues --  -19.18553 -19.18384 -19.18151 -19.18052 -19.17357
 Alpha  occ. eigenvalues --  -14.42546 -14.41449 -14.41380 -14.40361 -14.39410
 Alpha  occ. eigenvalues --  -14.38664 -14.38476 -14.37288 -10.38674 -10.38102
 Alpha  occ. eigenvalues --  -10.35446 -10.34804 -10.34413 -10.33545 -10.31679
 Alpha  occ. eigenvalues --  -10.31611 -10.31395 -10.31053 -10.30479 -10.30458
 Alpha  occ. eigenvalues --  -10.30360 -10.30123 -10.29945 -10.29665 -10.29608
 Alpha  occ. eigenvalues --  -10.29497 -10.29489 -10.29473 -10.29446 -10.29118
 Alpha  occ. eigenvalues --  -10.28808 -10.28763 -10.28679 -10.28477 -10.28343
 Alpha  occ. eigenvalues --  -10.28211 -10.27996 -10.27845 -10.27736 -10.27684
 Alpha  occ. eigenvalues --  -10.27550 -10.27534 -10.27514 -10.27447 -10.27338
 Alpha  occ. eigenvalues --  -10.27181 -10.27122 -10.27109 -10.27097 -10.26984
 Alpha  occ. eigenvalues --  -10.26890 -10.26889 -10.26879 -10.26740 -10.26677
 Alpha  occ. eigenvalues --  -10.26476 -10.26457 -10.26269 -10.26177 -10.26137
 Alpha  occ. eigenvalues --  -10.26093 -10.25917 -10.25888 -10.25823 -10.25443
 Alpha  occ. eigenvalues --  -10.25424 -10.25316 -10.25207 -10.25189 -10.25079
 Alpha  occ. eigenvalues --  -10.25002 -10.24959 -10.24736 -10.24699 -10.23939
 Alpha  occ. eigenvalues --  -10.23871  -3.16450  -3.15529  -1.91331  -1.90920
 Alpha  occ. eigenvalues --   -1.90758  -1.90427  -1.89992  -1.89836  -1.16393
 Alpha  occ. eigenvalues --   -1.15979  -1.09262  -1.07801  -1.07020  -1.06571
 Alpha  occ. eigenvalues --   -1.06415  -1.05741  -1.04550  -1.03716  -1.03536
 Alpha  occ. eigenvalues --   -1.03084  -1.02823  -1.02351  -1.02165  -1.01484
 Alpha  occ. eigenvalues --   -0.92050  -0.91047  -0.89499  -0.89207  -0.89057
 Alpha  occ. eigenvalues --   -0.88249  -0.88211  -0.88097  -0.87725  -0.87692
 Alpha  occ. eigenvalues --   -0.87196  -0.87032  -0.86788  -0.86539  -0.85049
 Alpha  occ. eigenvalues --   -0.84137  -0.83855  -0.83605  -0.82967  -0.82693
 Alpha  occ. eigenvalues --   -0.82412  -0.81974  -0.81644  -0.80959  -0.80521
 Alpha  occ. eigenvalues --   -0.79808  -0.78795  -0.78019  -0.77300  -0.76949
 Alpha  occ. eigenvalues --   -0.76660  -0.76189  -0.75879  -0.75218  -0.74813
 Alpha  occ. eigenvalues --   -0.74340  -0.72906  -0.71963  -0.71630  -0.70888
 Alpha  occ. eigenvalues --   -0.69862  -0.69659  -0.68895  -0.68095  -0.67718
 Alpha  occ. eigenvalues --   -0.67255  -0.66875  -0.66354  -0.65341  -0.64831
 Alpha  occ. eigenvalues --   -0.64690  -0.64549  -0.64207  -0.64121  -0.64007
 Alpha  occ. eigenvalues --   -0.63528  -0.62297  -0.61667  -0.60413  -0.59985
 Alpha  occ. eigenvalues --   -0.59739  -0.59112  -0.58923  -0.58527  -0.58248
 Alpha  occ. eigenvalues --   -0.57910  -0.57736  -0.57276  -0.56908  -0.56684
 Alpha  occ. eigenvalues --   -0.56488  -0.56263  -0.55772  -0.55506  -0.55401
 Alpha  occ. eigenvalues --   -0.55148  -0.54835  -0.54722  -0.54461  -0.54072
 Alpha  occ. eigenvalues --   -0.53920  -0.53746  -0.53276  -0.53075  -0.53048
 Alpha  occ. eigenvalues --   -0.52823  -0.52764  -0.52687  -0.52513  -0.52407
 Alpha  occ. eigenvalues --   -0.52252  -0.52232  -0.52092  -0.51643  -0.51613
 Alpha  occ. eigenvalues --   -0.51056  -0.50895  -0.50564  -0.50510  -0.50186
 Alpha  occ. eigenvalues --   -0.50043  -0.49996  -0.49757  -0.49627  -0.49498
 Alpha  occ. eigenvalues --   -0.49336  -0.49194  -0.48949  -0.48771  -0.48536
 Alpha  occ. eigenvalues --   -0.48434  -0.48339  -0.48230  -0.48008  -0.47845
 Alpha  occ. eigenvalues --   -0.47745  -0.47603  -0.47473  -0.46997  -0.46934
 Alpha  occ. eigenvalues --   -0.46833  -0.46669  -0.46567  -0.46181  -0.46098
 Alpha  occ. eigenvalues --   -0.45998  -0.45749  -0.45462  -0.45422  -0.45207
 Alpha  occ. eigenvalues --   -0.45112  -0.44715  -0.44565  -0.44503  -0.44286
 Alpha  occ. eigenvalues --   -0.44112  -0.44034  -0.43876  -0.43650  -0.43491
 Alpha  occ. eigenvalues --   -0.43434  -0.43398  -0.43232  -0.43063  -0.42958
 Alpha  occ. eigenvalues --   -0.42704  -0.42611  -0.42485  -0.42423  -0.42185
 Alpha  occ. eigenvalues --   -0.42066  -0.41913  -0.41828  -0.41700  -0.41431
 Alpha  occ. eigenvalues --   -0.41245  -0.40979  -0.40785  -0.40765  -0.40669
 Alpha  occ. eigenvalues --   -0.40624  -0.40418  -0.40256  -0.40222  -0.40110
 Alpha  occ. eigenvalues --   -0.40058  -0.39706  -0.39414  -0.39370  -0.39073
 Alpha  occ. eigenvalues --   -0.38331  -0.37849  -0.37671  -0.37260  -0.37240
 Alpha  occ. eigenvalues --   -0.37074  -0.36574  -0.36403  -0.36304  -0.35937
 Alpha  occ. eigenvalues --   -0.35813  -0.35370  -0.34310  -0.33587  -0.33253
 Alpha  occ. eigenvalues --   -0.33066  -0.32803  -0.32208  -0.31320  -0.30993
 Alpha  occ. eigenvalues --   -0.30709  -0.30485  -0.29654  -0.29365  -0.29176
 Alpha  occ. eigenvalues --   -0.29022  -0.28613  -0.28297  -0.24066  -0.22708
 Alpha  occ. eigenvalues --   -0.21217  -0.20246
 Alpha virt. eigenvalues --   -0.08897  -0.07863  -0.01737  -0.01016  -0.00156
 Alpha virt. eigenvalues --    0.00762   0.01943   0.02975   0.03228   0.04656
 Alpha virt. eigenvalues --    0.05111   0.05529   0.05578   0.06216   0.06440

 Mulliken charges:
               1
     1  Mg   0.654045
     2  C    0.091163
     3  C   -0.095585
     4  C   -0.050575
     5  C   -0.068307
     6  N   -0.246137
     7  C   -0.047319
     8  C   -0.018980
     9  C   -0.084112
    10  C    0.046218
    11  C    0.106635
    12  C    0.048669
    13  C   -0.065867
    14  H    0.023154
    15  N   -0.417830
    16  C    0.168337
    17  C   -0.179770
    18  C   -0.007161
    19  C    0.151709
    20  C    0.110960
    21  C    0.010338
    22  O   -0.252914
    23  C    0.063440
    24  N   -0.328195
    25  C    0.041805
    26  C   -0.025341
    27  C   -0.023928
    28  C    0.068703
    29  C    0.078156
    30  C    0.063994
    31  C   -0.010681
    32  N   -0.320176
    33  C    0.058344
    34  C   -0.169792
    35  C    0.011249
    36  C    0.073756
    37  C    0.128416
    38  C    0.051785
    39  O   -0.189356
    40  C   -0.023047
    41  C    0.211208
    42  O   -0.237196
    43  O   -0.306599
    44  C    0.153356
    45  H   -0.021208
    46  H   -0.021349
    47  H   -0.049866
    48  H   -0.005512
    49  H   -0.008481
    50  H    0.024419
    51  H    0.015085
    52  H    0.012822
    53  H    0.005327
    54  H    0.055136
    55  H    0.014393
    56  H    0.013200
    57  H    0.004383
    58  H    0.024689
    59  H    0.035979
    60  H    0.036486
    61  H    0.032969
    62  H    0.029709
    63  H    0.011821
    64  H    0.008591
    65  H    0.020697
    66  H    0.013566
    67  H    0.003201
    68  H    0.003654
    69  H    0.002009
    70  H    0.006276
    71  H    0.026712
    72  H    0.003027
    73  H    0.045302
    74  H    0.005599
    75  H    0.044091
    76  H    0.031380
    77  H    0.041496
    78  H    0.052283
    79  H    0.047121
    80  Mg   0.840341
    81  C   -0.018725
    82  C   -0.088013
    83  C   -0.045727
    84  C   -0.060346
    85  N   -0.254605
    86  C   -0.052687
    87  C   -0.014555
    88  C   -0.090485
    89  C    0.046462
    90  C    0.114561
    91  C    0.062770
    92  C   -0.077444
    93  H    0.035054
    94  N   -0.423599
    95  C    0.163714
    96  C   -0.174368
    97  C   -0.007382
    98  C    0.152678
    99  C    0.099312
   100  C    0.015874
   101  O   -0.252567
   102  C    0.061067
   103  N   -0.349873
   104  C    0.039278
   105  C   -0.020786
   106  C   -0.033369
   107  C    0.085688
   108  C    0.073092
   109  C    0.034001
   110  C   -0.007234
   111  N   -0.323877
   112  C    0.078623
   113  C   -0.172154
   114  C    0.010471
   115  C    0.100449
   116  C    0.192077
   117  C    0.073873
   118  O   -0.170847
   119  C    0.004599
   120  C    0.227332
   121  O   -0.234948
   122  O   -0.315134
   123  C    0.163356
   124  H   -0.019747
   125  H   -0.015082
   126  H   -0.050622
   127  H   -0.001886
   128  H   -0.004228
   129  H    0.021438
   130  H    0.014597
   131  H    0.015898
   132  H    0.013758
   133  H    0.040056
   134  H    0.019534
   135  H    0.019281
   136  H    0.008843
   137  H    0.026404
   138  H    0.040236
   139  H    0.038253
   140  H    0.036723
   141  H    0.034073
   142  H    0.014306
   143  H    0.015591
   144  H    0.024927
   145  H    0.011672
   146  H    0.007958
   147  H    0.005673
   148  H    0.002232
   149  H    0.010897
   150  H    0.016782
   151  H    0.030276
   152  H    0.085489
   153  H    0.005875
   154  H    0.085853
   155  H    0.029188
   156  H    0.010213
   157  H    0.044531
   158  H    0.063482
 Sum of Mulliken charges =  -0.00000

 Dipole moment (field-independent basis, Debye):
    X=             -2.2965    Y=              3.0486    Z=              5.8586  Tot=              6.9922
 Quadrupole moment (field-independent basis, Debye-Ang):
   XX=           -504.8729   YY=           -482.5713   ZZ=           -508.9385
   XY=            -25.4233   XZ=              7.9420   YZ=             46.8893

 Normal termination of Gaussian 16 at Thu Sep  9 02:23:57 2021.
