 Gaussian 16, Revision A.03,
 Gaussian 16:  ES64L-G16RevA.03 25-Dec-2016

 -----------------------------------
 #p cam-b3lyp/Def2SVP td=(nstates=5)
 -----------------------------------

 --------------------------------
 TDDFT excited states in gaussian
 --------------------------------
 Symbolic Z-matrix:
 Charge =  0 Multiplicity = 1

                         Standard orientation:
 ---------------------------------------------------------------------
 Center     Atomic      Atomic             Coordinates (Angstroms)
 Number     Number       Type             X           Y           Z
 ---------------------------------------------------------------------
      1         12           0       -4.279553   -0.668513   -0.345405
      2          6           0       -4.733224    2.864340   -0.699450
      3          6           0       -5.081355   -0.952387   -3.649886
      4          6           0       -4.329792   -3.814723    0.048878
      5          6           0       -4.631446   -0.220170    3.092737
      6          7           0       -4.817824    0.838173   -1.875375
      7          6           0       -4.897431    2.164958   -1.897176
      8          6           0       -5.097099    2.748481   -3.327913
      9          6           0       -5.747793    1.474019   -4.031009
     10          6           0       -5.153318    0.384182   -3.156493
     11          6           0       -7.267734    1.423261   -3.913937
     12          6           0       -3.741033    3.145141   -4.002803
     13          6           0       -3.865175    4.016763   -5.255887
     14          1           0       -2.856421    5.035997   -5.502716
     15          7           0       -4.171333   -2.127921   -1.672532
     16          6           0       -4.524621   -2.062564   -2.978749
     17          6           0       -4.257772   -3.404063   -3.540757
     18          6           0       -3.899744   -4.307294   -2.412004
     19          6           0       -4.147999   -3.448178   -1.282551
     20          6           0       -4.306068   -3.706376   -5.007053
     21          6           0       -3.421396   -5.723812   -2.359152
     22          8           0       -3.391715   -6.391472   -1.269234
     23          6           0       -3.067315   -6.346126   -3.647715
     24          7           0       -4.673066   -1.886933    1.303303
     25          6           0       -4.569605   -3.217737    1.218212
     26          6           0       -4.617589   -3.856948    2.574327
     27          6           0       -4.531419   -2.661743    3.629700
     28          6           0       -4.531120   -1.471570    2.638864
     29          6           0       -5.859670   -4.709290    2.868873
     30          6           0       -3.403980   -2.739412    4.689544
     31          6           0       -2.057410   -2.585649    4.018571
     32          7           0       -4.444831    1.022663    1.005022
     33          6           0       -4.605800    0.977207    2.397393
     34          6           0       -4.778803    2.367208    2.857865
     35          6           0       -4.722666    3.128237    1.691877
     36          6           0       -4.553274    2.265922    0.571157
     37          6           0       -5.016812    2.777175    4.199398
     38          6           0       -4.791053    4.467271    1.129588
     39          8           0       -4.832007    5.604659    1.600932
     40          6           0       -4.922767    4.340325   -0.452298
     41          6           0       -3.931455    5.289458   -1.068541
     42          8           0       -2.703930    5.100260   -0.947080
     43          8           0       -4.573974    6.127925   -1.895997
     44          6           0       -3.643648    7.077457   -2.563108
     45          1           0       -5.544468   -1.186047   -4.610547
     46          1           0       -4.243138   -4.885920    0.242441
     47          1           0       -4.661829    0.004098    4.160555
     48          1           0       -5.782781    3.594245   -3.382203
     49          1           0       -5.409483    1.360271   -5.060732
     50          1           0       -7.642847    2.205566   -3.254232
     51          1           0       -7.495429    0.438727   -3.504863
     52          1           0       -7.733355    1.453287   -4.899367
     53          1           0       -3.283398    2.257245   -4.439004
     54          1           0       -3.082388    3.636390   -3.285736
     55          1           0       -4.865983    4.439170   -5.350034
     56          1           0       -3.758729    3.374796   -6.130386
     57          1           0       -4.757844   -2.890270   -5.569561
     58          1           0       -4.995245   -4.540454   -5.137653
     59          1           0       -3.326357   -3.973476   -5.403482
     60          1           0       -3.936312   -6.330301   -4.305850
     61          1           0       -2.662246   -7.328168   -3.406132
     62          1           0       -2.302993   -5.739669   -4.134512
     63          1           0       -3.770344   -4.525429    2.721751
     64          1           0       -5.444212   -2.569645    4.218768
     65          1           0       -5.628931   -5.737886    3.147183
     66          1           0       -6.506173   -4.676961    1.992358
     67          1           0       -6.517902   -4.307217    3.638604
     68          1           0       -3.409476   -3.713072    5.178320
     69          1           0       -3.489392   -1.978397    5.465310
     70          1           0       -1.841080   -3.595758    3.672576
     71          1           0       -1.309720   -2.251028    4.738431
     72          1           0       -2.122161   -1.946410    3.137851
     73          1           0       -4.382396    3.646942    4.369668
     74          1           0       -4.789980    1.977388    4.904019
     75          1           0       -6.081694    3.005017    4.155008
     76          1           0       -5.950302    4.601683   -0.703269
     77          1           0       -4.001325    8.083827   -2.345118
     78          1           0       -3.589740    6.775135   -3.609101
     79          1           0       -2.632299    7.126243   -2.157977
     80         12           0        4.682179   -0.021951   -0.196350
     81          6           0        3.454615    0.296576    3.160832
     82          6           0        4.458428   -3.402209    0.201623
     83          6           0        6.179913   -0.348332   -2.974422
     84          6           0        5.869303    3.243376    0.075827
     85          7           0        4.026212   -1.271052    1.507088
     86          6           0        3.522637   -1.038103    2.709783
     87          6           0        2.991859   -2.300644    3.440414
     88          6           0        3.874068   -3.406776    2.680780
     89          6           0        4.109870   -2.669412    1.364214
     90          6           0        5.222015   -3.655915    3.336757
     91          6           0        1.457491   -2.527668    3.203353
     92          6           0        0.809147   -3.558358    4.130212
     93          1           0       -0.564535   -3.331560    4.570705
     94          7           0        4.790304   -1.579162   -1.421900
     95          6           0        4.652567   -2.881692   -1.096722
     96          6           0        4.838378   -3.630833   -2.349095
     97          6           0        5.260202   -2.675261   -3.409124
     98          6           0        5.450803   -1.474321   -2.620758
     99          6           0        4.541221   -5.097136   -2.471898
    100          6           0        5.471079   -2.821710   -4.885696
    101          8           0        6.068273   -1.919831   -5.573299
    102          6           0        5.041284   -4.092881   -5.486428
    103          7           0        6.037750    1.179299   -1.217024
    104          6           0        6.494365    0.828186   -2.431984
    105          6           0        7.236170    1.969077   -3.086582
    106          6           0        6.973440    3.242656   -2.155699
    107          6           0        6.163461    2.568195   -1.026799
    108          6           0        8.741342    1.769749   -3.262936
    109          6           0        6.378813    4.503920   -2.840037
    110          6           0        4.963712    4.226241   -3.293643
    111          7           0        4.520853    1.576305    1.248500
    112          6           0        5.117544    2.854178    1.177076
    113          6           0        4.814729    3.547591    2.445902
    114          6           0        4.076550    2.609084    3.182646
    115          6           0        3.946924    1.407824    2.434530
    116          6           0        5.251475    4.853960    2.804770
    117          6           0        3.386596    2.357678    4.427418
    118          8           0        3.091302    3.037307    5.409579
    119          6           0        3.061301    0.804627    4.520167
    120          6           0        1.623158    0.655250    4.934832
    121          8           0        0.706437    1.033863    4.184572
    122          8           0        1.561047   -0.102788    6.044746
    123          6           0        0.153876   -0.288754    6.488705
    124          1           0        4.642456   -4.472531    0.298730
    125          1           0        6.624220   -0.368532   -3.972260
    126          1           0        6.120309    4.299155    0.198294
    127          1           0        3.195312   -2.329101    4.504171
    128          1           0        3.305353   -4.317378    2.511255
    129          1           0        5.413672   -2.960504    4.140379
    130          1           0        5.957412   -3.538748    2.551572
    131          1           0        5.294870   -4.696711    3.665030
    132          1           0        1.314675   -3.027970    2.236897
    133          1           0        0.921469   -1.600434    3.262909
    134          1           0        1.450836   -3.805649    4.984631
    135          1           0        0.711664   -4.501177    3.586512
    136          1           0        4.406920   -5.564092   -1.488374
    137          1           0        5.440584   -5.572758   -2.877847
    138          1           0        3.701212   -5.302247   -3.138955
    139          1           0        5.565819   -4.915143   -5.005588
    140          1           0        5.191242   -3.973650   -6.561221
    141          1           0        3.974952   -4.235278   -5.278400
    142          1           0        6.842564    2.169448   -4.075538
    143          1           0        7.903123    3.611642   -1.698136
    144          1           0        9.074062    1.864888   -4.313797
    145          1           0        9.005731    0.798288   -2.866830
    146          1           0        9.367760    2.437622   -2.674067
    147          1           0        6.949599    4.752058   -3.738247
    148          1           0        6.381757    5.382540   -2.203634
    149          1           0        5.106748    3.726323   -4.256302
    150          1           0        4.409428    5.155381   -3.409915
    151          1           0        4.467962    3.514693   -2.623134
    152          1           0        4.403901    5.352667    3.255779
    153          1           0        5.621687    5.400911    1.940153
    154          1           0        6.051787    4.605964    3.507107
    155          1           0        3.745117    0.369709    5.250109
    156          1           0        0.099524    0.049135    7.528209
    157          1           0       -0.083785   -1.350942    6.291232
    158          1           0       -0.604142    0.331457    6.024808
 ---------------------------------------------------------------------

 SCF Done:  E(RCAM-B3LYP) =  -4069.77672696     A.U. after   19 cycles

 Excitation energies and oscillator strengths:

 Excited State   1:      Singlet-A      1.6449 eV  753.74 nm  f=0.0097  <S**2>=0.000
     309 -> 315       -0.10680
     310 -> 316        0.12531
     311 -> 313       -0.44425
     312 -> 314        0.52512
 This state for optimization and/or second-order correction.
 Total Energy, E(TD-HF/TD-DFT) =  -4069.71627762
 Copying the excited state density for this state as the 1-particle RhoCI density.

 Excited State   2:      Singlet-A      1.7039 eV  727.63 nm  f=0.6906  <S**2>=0.000
     309 -> 315        0.13791
     310 -> 316        0.11552
     311 -> 313        0.52224
     312 -> 314        0.44193

 Excited State   3:      Singlet-A      2.1800 eV  568.75 nm  f=0.0320  <S**2>=0.000
     309 -> 313        0.32708
     310 -> 314        0.55630
     311 -> 315       -0.13528
     312 -> 316       -0.22863

 Excited State   4:      Singlet-A      2.1945 eV  564.98 nm  f=0.1496  <S**2>=0.000
     309 -> 313        0.55043
     310 -> 314       -0.32358
     311 -> 315       -0.24318
     312 -> 316        0.14108

 Excited State   5:      Singlet-A      2.3519 eV  527.17 nm  f=0.0000  <S**2>=0.000
     312 -> 313        0.70688

 The electronic state is 1-A.
 Alpha  occ. eigenvalues --  -46.87834 -46.87269 -19.26359 -19.26149 -19.19033
 Alpha  occ. eigenvalues --  -19.18927 -19.18858 -19.18461 -19.18079 -19.17731
 Alpha  occ. eigenvalues --  -14.42481 -14.42033 -14.41576 -14.40994 -14.39450
 Alpha  occ. eigenvalues --  -14.38981 -14.38577 -14.38214 -10.38949 -10.38934
 Alpha  occ. eigenvalues --  -10.35564 -10.35147 -10.34297 -10.33910 -10.32131
 Alpha  occ. eigenvalues --  -10.31550 -10.31402 -10.30936 -10.30832 -10.30576
 Alpha  occ. eigenvalues --  -10.30554 -10.30538 -10.30404 -10.30050 -10.30029
 Alpha  occ. eigenvalues --  -10.29960 -10.29806 -10.29657 -10.29533 -10.29299
 Alpha  occ. eigenvalues --  -10.29086 -10.29033 -10.28723 -10.28462 -10.28362
 Alpha  occ. eigenvalues --  -10.28100 -10.28039 -10.28034 -10.27905 -10.27862
 Alpha  occ. eigenvalues --  -10.27781 -10.27760 -10.27652 -10.27624 -10.27526
 Alpha  occ. eigenvalues --  -10.27465 -10.27421 -10.27235 -10.27226 -10.27163
 Alpha  occ. eigenvalues --  -10.27120 -10.27114 -10.27090 -10.27086 -10.27081
 Alpha  occ. eigenvalues --  -10.26763 -10.26639 -10.26559 -10.26258 -10.26223
 Alpha  occ. eigenvalues --  -10.26155 -10.25998 -10.25863 -10.25740 -10.25731
 Alpha  occ. eigenvalues --  -10.25586 -10.25574 -10.25493 -10.25487 -10.25152
 Alpha  occ. eigenvalues --  -10.24893 -10.24889 -10.24788 -10.24517 -10.24441
 Alpha  occ. eigenvalues --  -10.24335  -3.16575  -3.16019  -1.91456  -1.91045
 Alpha  occ. eigenvalues --   -1.90901  -1.90885  -1.90489  -1.90327  -1.16621
 Alpha  occ. eigenvalues --   -1.16495  -1.08521  -1.08354  -1.07335  -1.06822
 Alpha  occ. eigenvalues --   -1.06721  -1.06486  -1.04608  -1.04047  -1.03865
 Alpha  occ. eigenvalues --   -1.03279  -1.03262  -1.02675  -1.02459  -1.01734
 Alpha  occ. eigenvalues --   -0.91973  -0.91628  -0.90111  -0.89176  -0.89165
 Alpha  occ. eigenvalues --   -0.88652  -0.88438  -0.87889  -0.87823  -0.87720
 Alpha  occ. eigenvalues --   -0.87409  -0.87335  -0.87143  -0.86811  -0.85098
 Alpha  occ. eigenvalues --   -0.84746  -0.84250  -0.83601  -0.83177  -0.82722
 Alpha  occ. eigenvalues --   -0.82681  -0.82169  -0.81601  -0.81348  -0.80650
 Alpha  occ. eigenvalues --   -0.80095  -0.78851  -0.78293  -0.77848  -0.76999
 Alpha  occ. eigenvalues --   -0.76784  -0.76278  -0.75943  -0.75430  -0.75155
 Alpha  occ. eigenvalues --   -0.74503  -0.72921  -0.72306  -0.71770  -0.71215
 Alpha  occ. eigenvalues --   -0.71009  -0.69450  -0.68922  -0.68248  -0.67698
 Alpha  occ. eigenvalues --   -0.67252  -0.67225  -0.66314  -0.65446  -0.65061
 Alpha  occ. eigenvalues --   -0.64775  -0.64749  -0.64487  -0.64439  -0.64117
 Alpha  occ. eigenvalues --   -0.63872  -0.62312  -0.62122  -0.60578  -0.60024
 Alpha  occ. eigenvalues --   -0.59806  -0.59238  -0.59092  -0.58628  -0.58592
 Alpha  occ. eigenvalues --   -0.58100  -0.57608  -0.57440  -0.57314  -0.57038
 Alpha  occ. eigenvalues --   -0.56900  -0.56349  -0.55943  -0.55894  -0.55693
 Alpha  occ. eigenvalues --   -0.55530  -0.55168  -0.54973  -0.54823  -0.54270
 Alpha  occ. eigenvalues --   -0.53907  -0.53833  -0.53376  -0.53218  -0.53162
 Alpha  occ. eigenvalues --   -0.52923  -0.52906  -0.52846  -0.52743  -0.52548
 Alpha  occ. eigenvalues --   -0.52180  -0.52116  -0.51963  -0.51736  -0.51597
 Alpha  occ. eigenvalues --   -0.51537  -0.51117  -0.51065  -0.50665  -0.50525
 Alpha  occ. eigenvalues --   -0.50185  -0.50005  -0.49616  -0.49585  -0.49483
 Alpha  occ. eigenvalues --   -0.49302  -0.49121  -0.49083  -0.48934  -0.48759
 Alpha  occ. eigenvalues --   -0.48552  -0.48532  -0.48499  -0.48208  -0.48081
 Alpha  occ. eigenvalues --   -0.48014  -0.47818  -0.47439  -0.47263  -0.47108
 Alpha  occ. eigenvalues --   -0.46859  -0.46756  -0.46525  -0.46366  -0.46313
 Alpha  occ. eigenvalues --   -0.46042  -0.45997  -0.45853  -0.45741  -0.45687
 Alpha  occ. eigenvalues --   -0.45331  -0.44998  -0.44858  -0.44565  -0.44371
 Alpha  occ. eigenvalues --   -0.44155  -0.44108  -0.44016  -0.43939  -0.43858
 Alpha  occ. eigenvalues --   -0.43783  -0.43655  -0.43518  -0.43407  -0.43370
 Alpha  occ. eigenvalues --   -0.43298  -0.43011  -0.42853  -0.42763  -0.42605
 Alpha  occ. eigenvalues --   -0.42515  -0.42276  -0.42229  -0.41854  -0.41676
 Alpha  occ. eigenvalues --   -0.41546  -0.41507  -0.41283  -0.41267  -0.41084
 Alpha  occ. eigenvalues --   -0.40911  -0.40719  -0.40691  -0.40427  -0.40352
 Alpha  occ. eigenvalues --   -0.40188  -0.40068  -0.39388  -0.39058  -0.38857
 Alpha  occ. eigenvalues --   -0.38745  -0.37859  -0.37755  -0.37578  -0.37252
 Alpha  occ. eigenvalues --   -0.36973  -0.36859  -0.36793  -0.36691  -0.36250
 Alpha  occ. eigenvalues --   -0.35915  -0.34324  -0.33881  -0.33690  -0.33650
 Alpha  occ. eigenvalues --   -0.33241  -0.32822  -0.32199  -0.31458  -0.31072
 Alpha  occ. eigenvalues --   -0.31019  -0.30583  -0.29934  -0.29636  -0.29485
 Alpha  occ. eigenvalues --   -0.29270  -0.28988  -0.28848  -0.24126  -0.23656
 Alpha  occ. eigenvalues --   -0.21182  -0.20721
 Alpha virt. eigenvalues --   -0.08807  -0.08428  -0.01842  -0.01311  -0.00097
 Alpha virt. eigenvalues --    0.00322   0.02186   0.02548   0.02915   0.03864
 Alpha virt. eigenvalues --    0.04656   0.05224   0.05307   0.05371   0.06200

 Mulliken charges:
               1
     1  Mg   0.842040
     2  C   -0.001741
     3  C   -0.093298
     4  C   -0.046855
     5  C   -0.063081
     6  N   -0.256408
     7  C   -0.051880
     8  C   -0.014138
     9  C   -0.087057
    10  C    0.046102
    11  C    0.104813
    12  C    0.053341
    13  C   -0.071888
    14  H    0.036719
    15  N   -0.432914
    16  C    0.167988
    17  C   -0.177155
    18  C   -0.004676
    19  C    0.148641
    20  C    0.110174
    21  C    0.011538
    22  O   -0.251256
    23  C    0.062773
    24  N   -0.339843
    25  C    0.039678
    26  C   -0.029869
    27  C   -0.020650
    28  C    0.070026
    29  C    0.076559
    30  C    0.048696
    31  C   -0.004483
    32  N   -0.311865
    33  C    0.084950
    34  C   -0.163692
    35  C    0.009356
    36  C    0.086014
    37  C    0.127152
    38  C    0.048668
    39  O   -0.186506
    40  C   -0.006479
    41  C    0.212798
    42  O   -0.254440
    43  O   -0.305291
    44  C    0.157629
    45  H   -0.017453
    46  H   -0.018279
    47  H   -0.043390
    48  H    0.001226
    49  H   -0.003767
    50  H    0.025545
    51  H    0.016090
    52  H    0.016739
    53  H    0.011465
    54  H    0.045194
    55  H    0.017657
    56  H    0.017988
    57  H    0.006294
    58  H    0.026517
    59  H    0.039080
    60  H    0.037999
    61  H    0.034459
    62  H    0.030690
    63  H    0.016382
    64  H    0.010262
    65  H    0.023043
    66  H    0.014424
    67  H    0.005363
    68  H    0.003462
    69  H    0.004929
    70  H    0.033502
    71  H    0.038141
    72  H    0.052160
    73  H    0.052469
    74  H    0.007224
    75  H    0.045278
    76  H    0.035002
    77  H    0.042844
    78  H    0.045949
    79  H    0.054367
    80  Mg   0.837317
    81  C   -0.017714
    82  C   -0.087262
    83  C   -0.046323
    84  C   -0.065108
    85  N   -0.255585
    86  C   -0.048743
    87  C   -0.009853
    88  C   -0.088580
    89  C    0.046152
    90  C    0.115021
    91  C    0.075353
    92  C   -0.119918
    93  H    0.025771
    94  N   -0.423226
    95  C    0.162365
    96  C   -0.175371
    97  C   -0.009047
    98  C    0.151894
    99  C    0.099716
   100  C    0.014408
   101  O   -0.254424
   102  C    0.061949
   103  N   -0.350156
   104  C    0.037298
   105  C   -0.019477
   106  C   -0.034782
   107  C    0.089084
   108  C    0.074040
   109  C    0.034929
   110  C   -0.007467
   111  N   -0.324550
   112  C    0.079646
   113  C   -0.161654
   114  C    0.002472
   115  C    0.097755
   116  C    0.131152
   117  C    0.043449
   118  O   -0.188607
   119  C    0.000243
   120  C    0.212245
   121  O   -0.249480
   122  O   -0.303940
   123  C    0.146729
   124  H   -0.019829
   125  H   -0.016852
   126  H   -0.040882
   127  H   -0.003500
   128  H   -0.001582
   129  H    0.020915
   130  H    0.012251
   131  H    0.015613
   132  H    0.007708
   133  H    0.022779
   134  H   -0.002009
   135  H    0.002234
   136  H    0.009941
   137  H    0.025058
   138  H    0.037863
   139  H    0.038392
   140  H    0.034755
   141  H    0.032071
   142  H    0.013426
   143  H    0.011779
   144  H    0.024058
   145  H    0.011476
   146  H    0.005086
   147  H    0.005002
   148  H    0.003685
   149  H    0.009445
   150  H    0.017920
   151  H    0.031911
   152  H    0.047400
   153  H    0.008384
   154  H    0.045932
   155  H    0.034886
   156  H    0.043335
   157  H    0.061954
   158  H    0.052627
 Sum of Mulliken charges =  -0.00000

 Dipole moment (field-independent basis, Debye):
    X=             -2.3274    Y=             -5.1209    Z=             -3.9189  Tot=              6.8555
 Quadrupole moment (field-independent basis, Debye-Ang):
   XX=           -489.6912   YY=           -513.5289   ZZ=           -489.2789
   XY=              9.8971   XZ=             17.1960   YZ=            -34.6634

 Normal termination of Gaussian 16 at Thu Sep  9 19:17:01 2021.
