 Gaussian 16, Revision A.03,
 Gaussian 16:  ES64L-G16RevA.03 25-Dec-2016

 -----------------------------------
 #p cam-b3lyp/Def2SVP td=(nstates=5)
 -----------------------------------

 --------------------------------
 TDDFT excited states in gaussian
 --------------------------------
 Symbolic Z-matrix:
 Charge =  0 Multiplicity = 1

                         Standard orientation:
 ---------------------------------------------------------------------
 Center     Atomic      Atomic             Coordinates (Angstroms)
 Number     Number       Type             X           Y           Z
 ---------------------------------------------------------------------
      1         12           0        4.089356   -0.405469    0.837049
      2          6           0        4.468932    2.638831   -1.006961
      3          6           0        4.298472    1.466298    3.682365
      4          6           0        4.212393   -3.114828    2.480477
      5          6           0        5.039246   -2.102689   -2.054804
      6          7           0        4.348376    1.768277    1.166264
      7          6           0        4.421099    2.834117    0.375146
      8          6           0        4.365481    4.184184    1.150775
      9          6           0        4.884260    3.679824    2.571510
     10          6           0        4.454177    2.226044    2.485046
     11          6           0        6.401194    3.735221    2.720996
     12          6           0        2.911391    4.757726    1.242435
     13          6           0        2.812241    6.218275    1.692234
     14          1           0        1.774418    7.059650    1.115727
     15          7           0        3.751638   -0.759379    2.751088
     16          6           0        3.869837    0.124192    3.771195
     17          6           0        3.510229   -0.619094    4.997934
     18          6           0        3.357329   -2.054601    4.631825
     19          6           0        3.798993   -2.037572    3.260686
     20          6           0        3.300558    0.039045    6.327084
     21          6           0        2.897646   -3.253567    5.399485
     22          8           0        3.060840   -4.444186    4.963173
     23          6           0        2.323523   -2.999225    6.733177
     24          7           0        4.768093   -2.322503    0.365953
     25          6           0        4.653112   -3.329186    1.239082
     26          6           0        4.939493   -4.650617    0.589663
     27          6           0        5.038460   -4.360786   -0.977486
     28          6           0        4.862447   -2.822538   -0.944566
     29          6           0        6.215169   -5.364121    1.058253
     30          6           0        4.114882   -5.189160   -1.905505
     31          6           0        2.671161   -4.808063   -1.665649
     32          7           0        4.487022    0.122886   -1.230255
     33          6           0        4.890189   -0.741046   -2.258726
     34          6           0        5.139505    0.091801   -3.449639
     35          6           0        4.878335    1.392690   -3.023820
     36          6           0        4.515847    1.376475   -1.646637
     37          6           0        5.608959   -0.374499   -4.709247
     38          6           0        4.845033    2.795257   -3.405334
     39          8           0        4.966610    3.408290   -4.466891
     40          6           0        4.696932    3.670721   -2.083420
     41          6           0        3.611469    4.683252   -2.328082
     42          8           0        2.424641    4.326189   -2.474065
     43          8           0        4.097462    5.915936   -2.116316
     44          6           0        3.063098    6.966359   -2.313439
     45          1           0        4.585911    1.916731    4.634432
     46          1           0        4.162560   -4.084686    2.979807
     47          1           0        5.256467   -2.571559   -3.016276
     48          1           0        5.029800    4.957675    0.765009
     49          1           0        4.370445    4.178787    3.392943
     50          1           0        6.885312    3.991058    1.778606
     51          1           0        6.698567    2.737060    3.043074
     52          1           0        6.686389    4.408435    3.529837
     53          1           0        2.385449    4.274008    2.065516
     54          1           0        2.388309    4.636517    0.293214
     55          1           0        3.780360    6.717401    1.641959
     56          1           0        2.554678    6.232751    2.751315
     57          1           0        3.645356    1.072305    6.321192
     58          1           0        3.957207   -0.462381    7.037782
     59          1           0        2.266801   -0.037580    6.664437
     60          1           0        3.063344   -2.491826    7.352661
     61          1           0        1.968546   -3.962978    7.096525
     62          1           0        1.484732   -2.310077    6.630939
     63          1           0        4.132246   -5.358895    0.771654
     64          1           0        6.040426   -4.546196   -1.365250
     65          1           0        6.038326   -6.367719    1.445838
     66          1           0        6.697565   -4.735447    1.806153
     67          1           0        6.997853   -5.443271    0.304226
     68          1           0        4.207503   -6.251515   -1.682414
     69          1           0        4.334228   -5.052300   -2.964471
     70          1           0        2.398786   -5.416305   -0.803857
     71          1           0        2.061125   -5.063951   -2.532591
     72          1           0        2.579287   -3.763043   -1.369038
     73          1           0        5.013140    0.136906   -5.465180
     74          1           0        5.510553   -1.456612   -4.792611
     75          1           0        6.649164   -0.051660   -4.669171
     76          1           0        5.664028    4.141327   -1.909128
     77          1           0        3.452136    7.664895   -3.054338
     78          1           0        2.826660    7.357985   -1.323928
     79          1           0        2.138598    6.647894   -2.796366
     80         12           0       -3.675963   -0.894388   -0.700572
     81          6           0       -6.359239    1.301762    0.224615
     82          6           0       -1.940152    1.877568   -1.668989
     83          6           0       -1.481467   -2.822838   -1.938590
     84          6           0       -5.999798   -3.491306   -0.739140
     85          7           0       -4.189652    1.256828   -0.675329
     86          6           0       -5.213572    1.977915   -0.244108
     87          6           0       -4.966510    3.510409   -0.244540
     88          6           0       -3.820706    3.568945   -1.368180
     89          6           0       -3.251626    2.160410   -1.210579
     90          6           0       -4.367928    3.707899   -2.779056
     91          6           0       -4.441281    4.031563    1.139134
     92          6           0       -4.472515    5.552227    1.307506
     93          1           0       -4.775521    6.100367    2.626669
     94          7           0       -1.790137   -0.537379   -1.205331
     95          6           0       -1.250340    0.651329   -1.547218
     96          6           0        0.163325    0.379090   -1.849863
     97          6           0        0.374605   -1.093684   -1.818277
     98          6           0       -0.991870   -1.552899   -1.670085
     99          6           0        1.176237    1.468131   -2.053400
    100          6           0        1.601902   -1.947928   -1.919251
    101          8           0        1.527722   -3.213703   -2.106740
    102          6           0        2.893516   -1.246422   -1.885659
    103          7           0       -3.765656   -2.825913   -1.464459
    104          6           0       -2.655201   -3.453186   -1.890303
    105          6           0       -2.917428   -4.919908   -2.135958
    106          6           0       -4.380324   -5.198345   -1.552877
    107          6           0       -4.763028   -3.762122   -1.133120
    108          6           0       -2.857025   -5.371235   -3.595079
    109          6           0       -4.515017   -6.335741   -0.503657
    110          6           0       -3.803982   -5.947391    0.772667
    111          7           0       -5.752725   -1.131440   -0.153849
    112          6           0       -6.538854   -2.298233   -0.275066
    113          6           0       -7.916805   -1.937446    0.116742
    114          6           0       -7.841009   -0.569473    0.419055
    115          6           0       -6.514197   -0.105545    0.209684
    116          6           0       -9.039131   -2.812937    0.112376
    117          6           0       -8.584059    0.589979    0.857498
    118          8           0       -9.728100    0.785152    1.265925
    119          6           0       -7.686014    1.881514    0.629794
    120          6           0       -7.735187    2.708660    1.885161
    121          8           0       -7.247610    2.278247    2.945171
    122          8           0       -8.151387    3.950849    1.578358
    123          6           0       -8.205923    4.812220    2.789500
    124          1           0       -1.401238    2.654887   -2.211420
    125          1           0       -0.738917   -3.555612   -2.262882
    126          1           0       -6.760922   -4.266928   -0.630637
    127          1           0       -5.817397    4.107623   -0.549685
    128          1           0       -3.067335    4.313906   -1.125645
    129          1           0       -5.444363    3.625261   -2.803639
    130          1           0       -3.913995    2.908974   -3.350651
    131          1           0       -4.014818    4.639581   -3.230284
    132          1           0       -3.359183    3.858001    1.199779
    133          1           0       -4.972172    3.567512    1.947498
    134          1           0       -5.084749    6.039541    0.538972
    135          1           0       -3.466087    5.941224    1.134895
    136          1           0        0.695456    2.445726   -2.182068
    137          1           0        1.663156    1.276159   -3.015650
    138          1           0        1.936927    1.487614   -1.270055
    139          1           0        2.935859   -0.528495   -2.701282
    140          1           0        3.652300   -2.031342   -1.879764
    141          1           0        2.954588   -0.670199   -0.955689
    142          1           0       -2.203433   -5.535101   -1.602237
    143          1           0       -5.085161   -5.492780   -2.344303
    144          1           0       -2.126816   -6.183634   -3.770793
    145          1           0       -2.624205   -4.511320   -4.208992
    146          1           0       -3.804429   -5.705060   -4.014821
    147          1           0       -4.028335   -7.244662   -0.865835
    148          1           0       -5.543917   -6.591267   -0.273309
    149          1           0       -2.762761   -6.211937    0.565397
    150          1           0       -4.194571   -6.513117    1.616134
    151          1           0       -3.843437   -4.863393    0.930968
    152          1           0       -9.582297   -2.627393    1.029468
    153          1           0       -8.731253   -3.853631    0.035357
    154          1           0       -9.551575   -2.468615   -0.789902
    155          1           0       -8.093188    2.416388   -0.229096
    156          1           0       -9.222707    5.212214    2.851559
    157          1           0       -7.383410    5.542860    2.673752
    158          1           0       -8.110127    4.327475    3.754013
 ---------------------------------------------------------------------

 SCF Done:  E(RCAM-B3LYP) =  -4069.52269400     A.U. after   19 cycles

 Excitation energies and oscillator strengths:

 Excited State   1:      Singlet-A      1.5474 eV  801.22 nm  f=0.2602  <S**2>=0.000
     309 -> 315        0.14116
     311 -> 313        0.64317
     312 -> 314        0.24831
 This state for optimization and/or second-order correction.
 Total Energy, E(TD-HF/TD-DFT) =  -4069.46582688
 Copying the excited state density for this state as the 1-particle RhoCI density.

 Excited State   2:      Singlet-A      1.6559 eV  748.76 nm  f=0.4704  <S**2>=0.000
     309 -> 313       -0.11883
     310 -> 316        0.11466
     311 -> 313       -0.23711
     312 -> 313       -0.13621
     312 -> 314        0.61731

 Excited State   3:      Singlet-A      1.7878 eV  693.49 nm  f=0.0686  <S**2>=0.000
     309 -> 313        0.61633
     311 -> 315       -0.17386
     312 -> 313       -0.24872

 Excited State   4:      Singlet-A      1.8113 eV  684.49 nm  f=0.0239  <S**2>=0.000
     309 -> 313        0.22585
     312 -> 313        0.64158
     312 -> 314        0.15906

 Excited State   5:      Singlet-A      2.1948 eV  564.90 nm  f=0.0887  <S**2>=0.000
     310 -> 314        0.62732
     312 -> 316       -0.22442
     312 -> 317       -0.15629

 The electronic state is 1-A.
 Alpha  occ. eigenvalues --  -46.89142 -46.87030 -19.27270 -19.26026 -19.20261
 Alpha  occ. eigenvalues --  -19.19640 -19.18800 -19.18521 -19.17453 -19.17391
 Alpha  occ. eigenvalues --  -14.43318 -14.41999 -14.41871 -14.40752 -14.40333
 Alpha  occ. eigenvalues --  -14.38924 -14.38671 -14.37966 -10.40202 -10.38715
 Alpha  occ. eigenvalues --  -10.36239 -10.34837 -10.33652 -10.33469 -10.32614
 Alpha  occ. eigenvalues --  -10.32531 -10.31942 -10.31696 -10.31521 -10.31448
 Alpha  occ. eigenvalues --  -10.30972 -10.30831 -10.30719 -10.30324 -10.29848
 Alpha  occ. eigenvalues --  -10.29770 -10.29669 -10.29462 -10.29461 -10.29452
 Alpha  occ. eigenvalues --  -10.29432 -10.29213 -10.28935 -10.28778 -10.28681
 Alpha  occ. eigenvalues --  -10.28664 -10.28642 -10.28428 -10.28391 -10.28346
 Alpha  occ. eigenvalues --  -10.28217 -10.28181 -10.27873 -10.27860 -10.27692
 Alpha  occ. eigenvalues --  -10.27589 -10.27443 -10.27261 -10.27202 -10.27054
 Alpha  occ. eigenvalues --  -10.26990 -10.26988 -10.26956 -10.26912 -10.26858
 Alpha  occ. eigenvalues --  -10.26765 -10.26533 -10.26517 -10.26434 -10.26337
 Alpha  occ. eigenvalues --  -10.26086 -10.25739 -10.25545 -10.25479 -10.25339
 Alpha  occ. eigenvalues --  -10.25309 -10.25292 -10.25206 -10.25120 -10.25097
 Alpha  occ. eigenvalues --  -10.24350 -10.24187 -10.24179 -10.23842 -10.21725
 Alpha  occ. eigenvalues --  -10.19287  -3.17913  -3.15784  -1.92810  -1.92350
 Alpha  occ. eigenvalues --   -1.92232  -1.90668  -1.90255  -1.90090  -1.17648
 Alpha  occ. eigenvalues --   -1.16309  -1.09094  -1.08462  -1.08099  -1.08002
 Alpha  occ. eigenvalues --   -1.07790  -1.06579  -1.05675  -1.04736  -1.04629
 Alpha  occ. eigenvalues --   -1.03872  -1.03296  -1.03056  -1.02409  -1.01467
 Alpha  occ. eigenvalues --   -0.94017  -0.91376  -0.90752  -0.90021  -0.89127
 Alpha  occ. eigenvalues --   -0.88950  -0.88633  -0.88503  -0.88238  -0.87832
 Alpha  occ. eigenvalues --   -0.87728  -0.87175  -0.87044  -0.86362  -0.85780
 Alpha  occ. eigenvalues --   -0.84715  -0.84416  -0.83543  -0.83417  -0.82706
 Alpha  occ. eigenvalues --   -0.82484  -0.82243  -0.81218  -0.81120  -0.80904
 Alpha  occ. eigenvalues --   -0.79817  -0.79599  -0.78015  -0.77771  -0.77294
 Alpha  occ. eigenvalues --   -0.76719  -0.76453  -0.76388  -0.75234  -0.74867
 Alpha  occ. eigenvalues --   -0.74235  -0.73587  -0.72465  -0.72026  -0.71022
 Alpha  occ. eigenvalues --   -0.70112  -0.69567  -0.69265  -0.68853  -0.68117
 Alpha  occ. eigenvalues --   -0.68033  -0.67019  -0.66721  -0.66052  -0.65857
 Alpha  occ. eigenvalues --   -0.65429  -0.64841  -0.64565  -0.64208  -0.64044
 Alpha  occ. eigenvalues --   -0.63659  -0.63028  -0.61804  -0.61294  -0.60734
 Alpha  occ. eigenvalues --   -0.60274  -0.59686  -0.59288  -0.59227  -0.58475
 Alpha  occ. eigenvalues --   -0.58259  -0.57882  -0.57827  -0.57354  -0.57050
 Alpha  occ. eigenvalues --   -0.56920  -0.56854  -0.56502  -0.56093  -0.55870
 Alpha  occ. eigenvalues --   -0.55570  -0.55325  -0.54871  -0.54766  -0.54475
 Alpha  occ. eigenvalues --   -0.54423  -0.54353  -0.54087  -0.53994  -0.53767
 Alpha  occ. eigenvalues --   -0.53593  -0.53385  -0.53317  -0.52672  -0.52454
 Alpha  occ. eigenvalues --   -0.52434  -0.52323  -0.52065  -0.51921  -0.51477
 Alpha  occ. eigenvalues --   -0.51314  -0.51279  -0.51108  -0.50763  -0.50640
 Alpha  occ. eigenvalues --   -0.50562  -0.50275  -0.50079  -0.49914  -0.49647
 Alpha  occ. eigenvalues --   -0.49410  -0.49329  -0.49198  -0.49155  -0.49006
 Alpha  occ. eigenvalues --   -0.48766  -0.48602  -0.48466  -0.48253  -0.48121
 Alpha  occ. eigenvalues --   -0.47994  -0.47887  -0.47586  -0.47313  -0.47179
 Alpha  occ. eigenvalues --   -0.46956  -0.46796  -0.46593  -0.46238  -0.46101
 Alpha  occ. eigenvalues --   -0.46013  -0.45842  -0.45612  -0.45492  -0.45338
 Alpha  occ. eigenvalues --   -0.45234  -0.45095  -0.44848  -0.44806  -0.44765
 Alpha  occ. eigenvalues --   -0.44508  -0.44236  -0.44172  -0.44140  -0.43972
 Alpha  occ. eigenvalues --   -0.43838  -0.43726  -0.43634  -0.43528  -0.43389
 Alpha  occ. eigenvalues --   -0.43261  -0.43085  -0.42834  -0.42467  -0.42350
 Alpha  occ. eigenvalues --   -0.42295  -0.42043  -0.41914  -0.41697  -0.41568
 Alpha  occ. eigenvalues --   -0.41498  -0.41360  -0.41279  -0.41180  -0.41037
 Alpha  occ. eigenvalues --   -0.40901  -0.40881  -0.40462  -0.40215  -0.40020
 Alpha  occ. eigenvalues --   -0.39966  -0.39443  -0.38994  -0.38637  -0.38214
 Alpha  occ. eigenvalues --   -0.38108  -0.37888  -0.37556  -0.37366  -0.37107
 Alpha  occ. eigenvalues --   -0.36995  -0.36709  -0.36671  -0.36416  -0.36277
 Alpha  occ. eigenvalues --   -0.35720  -0.35359  -0.34863  -0.33955  -0.33670
 Alpha  occ. eigenvalues --   -0.33455  -0.32594  -0.32111  -0.31619  -0.30535
 Alpha  occ. eigenvalues --   -0.30447  -0.30421  -0.29685  -0.29385  -0.28848
 Alpha  occ. eigenvalues --   -0.28660  -0.28563  -0.24834  -0.23688  -0.23383
 Alpha  occ. eigenvalues --   -0.21894  -0.20409
 Alpha virt. eigenvalues --   -0.09898  -0.08099  -0.02617  -0.01210  -0.00906
 Alpha virt. eigenvalues --    0.00388   0.01245   0.02419   0.02710   0.03643
 Alpha virt. eigenvalues --    0.04036   0.04213   0.05229   0.05355   0.05561

 Mulliken charges:
               1
     1  Mg   0.777706
     2  C    0.001555
     3  C   -0.095077
     4  C   -0.051031
     5  C    0.298207
     6  N   -0.256941
     7  C   -0.060077
     8  C   -0.012977
     9  C   -0.088450
    10  C    0.054387
    11  C    0.104348
    12  C    0.052952
    13  C   -0.072499
    14  H    0.035347
    15  N   -0.425412
    16  C    0.175591
    17  C   -0.173246
    18  C    0.000658
    19  C    0.155245
    20  C    0.108964
    21  C    0.016044
    22  O   -0.242195
    23  C    0.060934
    24  N   -0.327366
    25  C    0.062732
    26  C   -0.029844
    27  C    0.002223
    28  C   -0.052182
    29  C    0.078018
    30  C    0.058730
    31  C    0.051811
    32  N   -0.344324
    33  C   -0.175955
    34  C   -0.124748
    35  C    0.012384
    36  C    0.054186
    37  C    0.130565
    38  C    0.030007
    39  O   -0.188500
    40  C   -0.005335
    41  C    0.221256
    42  O   -0.256382
    43  O   -0.302021
    44  C    0.156474
    45  H   -0.015253
    46  H   -0.011829
    47  H   -0.028440
    48  H    0.001649
    49  H   -0.001932
    50  H    0.028263
    51  H    0.017707
    52  H    0.019229
    53  H    0.012113
    54  H    0.040664
    55  H    0.019344
    56  H    0.019867
    57  H    0.008945
    58  H    0.031218
    59  H    0.045540
    60  H    0.038052
    61  H    0.039946
    62  H    0.034224
    63  H    0.023593
    64  H    0.003363
    65  H    0.023901
    66  H    0.007980
    67  H    0.007067
    68  H   -0.015125
    69  H   -0.013641
    70  H   -0.038719
    71  H   -0.000937
    72  H    0.035430
    73  H    0.042478
    74  H    0.008477
    75  H    0.046256
    76  H    0.037474
    77  H    0.046289
    78  H    0.048225
    79  H    0.051681
    80  Mg   0.833297
    81  C   -0.017136
    82  C   -0.090144
    83  C   -0.050524
    84  C   -0.065513
    85  N   -0.254166
    86  C   -0.052560
    87  C   -0.014704
    88  C   -0.089470
    89  C    0.044413
    90  C    0.114551
    91  C    0.063056
    92  C   -0.076193
    93  H    0.030891
    94  N   -0.423548
    95  C    0.159805
    96  C   -0.190039
    97  C    0.039497
    98  C    0.147232
    99  C    0.108073
   100  C    0.093645
   101  O   -0.253919
   102  C    0.094740
   103  N   -0.349939
   104  C    0.038100
   105  C   -0.019737
   106  C   -0.033785
   107  C    0.087354
   108  C    0.073728
   109  C    0.035274
   110  C   -0.007220
   111  N   -0.323295
   112  C    0.075552
   113  C   -0.165479
   114  C    0.001211
   115  C    0.094032
   116  C    0.132001
   117  C    0.040546
   118  O   -0.191624
   119  C    0.001305
   120  C    0.210957
   121  O   -0.252614
   122  O   -0.305444
   123  C    0.152694
   124  H   -0.010134
   125  H   -0.018792
   126  H   -0.042775
   127  H   -0.002097
   128  H   -0.003898
   129  H    0.021207
   130  H    0.015954
   131  H    0.016042
   132  H    0.012652
   133  H    0.036308
   134  H    0.020836
   135  H    0.018042
   136  H    0.020385
   137  H    0.028462
   138  H    0.054007
   139  H    0.048232
   140  H   -0.129694
   141  H    0.039547
   142  H    0.012778
   143  H    0.011063
   144  H    0.022508
   145  H    0.011651
   146  H    0.005521
   147  H    0.004485
   148  H    0.002868
   149  H    0.010468
   150  H    0.016633
   151  H    0.030525
   152  H    0.043741
   153  H    0.006822
   154  H    0.045138
   155  H    0.033870
   156  H    0.042982
   157  H    0.048654
   158  H    0.052253
 Sum of Mulliken charges =  -0.00000

 Dipole moment (field-independent basis, Debye):
    X=              5.7773    Y=              3.7742    Z=              3.3435  Tot=              7.6682
 Quadrupole moment (field-independent basis, Debye-Ang):
   XX=           -556.2838   YY=           -470.7432   ZZ=           -505.5259
   XY=             11.0155   XZ=             41.5101   YZ=             30.2533

 Normal termination of Gaussian 16 at Wed Sep  8 14:34:24 2021.
