 Gaussian 16, Revision A.03,
 Gaussian 16:  ES64L-G16RevA.03 25-Dec-2016

 -----------------------------------
 #p cam-b3lyp/Def2SVP td=(nstates=5)
 -----------------------------------

 --------------------------------
 TDDFT excited states in gaussian
 --------------------------------
 Symbolic Z-matrix:
 Charge =  0 Multiplicity = 1

                         Standard orientation:
 ---------------------------------------------------------------------
 Center     Atomic      Atomic             Coordinates (Angstroms)
 Number     Number       Type             X           Y           Z
 ---------------------------------------------------------------------
      1         12           0        4.914166   -1.334538    0.460550
      2          6           0        5.617640    2.012540   -0.595103
      3          6           0        5.644906   -0.327447    3.637790
      4          6           0        4.741851   -4.374340    1.347416
      5          6           0        5.347840   -2.314370   -2.855700
      6          7           0        5.537882    0.620995    1.289717
      7          6           0        5.713176    1.839266    0.787465
      8          6           0        5.933714    2.930870    1.877024
      9          6           0        6.479924    2.004743    3.054284
     10          6           0        5.820814    0.695129    2.658797
     11          6           0        7.993728    1.819363    3.031225
     12          6           0        4.600272    3.644992    2.281613
     13          6           0        4.768980    4.934155    3.090904
     14          1           0        3.833304    6.026610    2.870909
     15          7           0        4.681011   -2.135411    2.251385
     16          6           0        5.018988   -1.576998    3.438496
     17          6           0        4.647368   -2.564932    4.474144
     18          6           0        4.241306   -3.819323    3.781532
     19          6           0        4.567688   -3.497710    2.415729
     20          6           0        4.652185   -2.260797    5.940850
     21          6           0        3.662308   -5.107874    4.274006
     22          8           0        3.600211   -6.151123    3.537562
     23          6           0        3.245239   -5.142965    5.687464
     24          7           0        5.242322   -3.130079   -0.552357
     25          6           0        5.041387   -4.308024    0.048522
     26          6           0        5.062692   -5.435931   -0.940069
     27          6           0        5.078859   -4.756887   -2.385196
     28          6           0        5.150402   -3.273001   -1.947893
     29          6           0        6.243857   -6.408797   -0.820098
     30          6           0        3.964360   -5.181464   -3.374158
     31          6           0        2.622830   -4.691806   -2.876536
     32          7           0        5.221372   -0.334265   -1.441061
     33          6           0        5.398945   -0.939996   -2.693351
     34          6           0        5.679011    0.138458   -3.659048
     35          6           0        5.661185    1.302666   -2.893446
     36          6           0        5.413346    0.969858   -1.531056
     37          6           0        5.965699   -0.034856   -5.041873
     38          6           0        5.818283    2.748016   -2.905283
     39          8           0        5.948500    3.598940   -3.786456
     40          6           0        5.917319    3.253622   -1.398504
     41          6           0        4.988555    4.427929   -1.251161
     42          8           0        3.752447    4.280946   -1.339475
     43          8           0        5.678035    5.485806   -0.797227
     44          6           0        4.809376    6.677026   -0.600809
     45          1           0        6.075770   -0.186975    4.631050
     46          1           0        4.580574   -5.426624    1.590576
     47          1           0        5.410006   -2.536072   -3.922676
     48          1           0        6.678062    3.684982    1.620734
     49          1           0        6.119247    2.331140    4.029527
     50          1           0        8.434187    2.249987    2.132070
     51          1           0        8.155373    0.741510    3.055664
     52          1           0        8.445854    2.210900    3.942849
     53          1           0        4.073124    3.033746    3.014111
     54          1           0        3.989535    3.849154    1.401474
     55          1           0        5.796306    5.297492    3.052199
     56          1           0        4.603492    4.701184    4.142825
     57          1           0        5.153692   -1.317288    6.152571
     58          1           0        5.277075   -3.014102    6.420178
     59          1           0        3.649996   -2.287947    6.368882
     60          1           0        4.103388   -4.919232    6.321557
     61          1           0        2.773588   -6.113425    5.837809
     62          1           0        2.519883   -4.347637    5.861420
     63          1           0        4.171442   -6.055042   -0.846260
     64          1           0        6.004436   -4.962552   -2.923418
     65          1           0        5.943219   -7.447076   -0.677632
     66          1           0        6.878128   -6.069500   -0.001642
     67          1           0        6.940691   -6.387204   -1.657578
     68          1           0        3.906368   -6.267601   -3.436518
     69          1           0        4.116064   -4.798941   -4.383570
     70          1           0        2.328780   -5.465484   -2.168165
     71          1           0        1.911974   -4.626713   -3.700949
     72          1           0        2.720896   -3.759990   -2.319231
     73          1           0        5.398588    0.731994   -5.569409
     74          1           0        5.691779   -1.033670   -5.380903
     75          1           0        7.043539    0.126691   -5.046430
     76          1           0        6.957326    3.530362   -1.228439
     77          1           0        5.242244    7.489660   -1.184320
     78          1           0        4.718408    6.820024    0.476076
     79          1           0        3.810255    6.621807   -1.034453
     80         12           0       -5.559679   -0.054067   -0.450871
     81          6           0       -3.241495    2.684840   -0.509702
     82          6           0       -6.774095    1.231433    2.465849
     83          6           0       -7.303635   -2.685599   -0.132888
     84          6           0       -3.454319   -1.702720   -2.685845
     85          7           0       -4.998417    1.732866    0.725611
     86          6           0       -4.143915    2.733336    0.573214
     87          6           0       -4.316989    3.888406    1.595673
     88          6           0       -5.029971    3.062009    2.773645
     89          6           0       -5.674107    1.955610    1.940795
     90          6           0       -4.047126    2.421836    3.739842
     91          6           0       -5.244295    5.032336    1.053872
     92          6           0       -5.210118    6.327698    1.867890
     93          1           0       -5.333113    7.598559    1.159184
     94          7           0       -7.161864   -0.405764    0.666215
     95          6           0       -7.513400    0.225100    1.806268
     96          6           0       -8.760341   -0.415400    2.252445
     97          6           0       -9.027949   -1.585055    1.372100
     98          6           0       -7.803844   -1.617203    0.597102
     99          6           0       -9.607772    0.137805    3.361154
    100          6           0      -10.187552   -2.527504    1.256713
    101          8           0      -10.105924   -3.616595    0.585865
    102          6           0      -11.390801   -2.184042    2.028554
    103          7           0       -5.301349   -2.005980   -1.118439
    104          6           0       -6.235645   -2.944964   -0.887499
    105          6           0       -5.965334   -4.193211   -1.693233
    106          6           0       -4.785039   -3.806949   -2.700862
    107          6           0       -4.504327   -2.365912   -2.221273
    108          6           0       -5.563726   -5.429798   -0.889525
    109          6           0       -5.044983   -4.045059   -4.213602
    110          6           0       -6.117912   -3.101619   -4.707680
    111          7           0       -3.786168    0.449844   -1.577278
    112          6           0       -3.049935   -0.398038   -2.433517
    113          6           0       -1.862369    0.358831   -2.879888
    114          6           0       -1.978992    1.596265   -2.229021
    115          6           0       -3.145475    1.602414   -1.417377
    116          6           0       -0.835358   -0.132709   -3.734148
    117          6           0       -1.374904    2.894886   -2.035722
    118          8           0       -0.420151    3.491402   -2.532068
    119          6           0       -2.098030    3.612014   -0.815387
    120          6           0       -2.428967    5.018619   -1.233098
    121          8           0       -3.252369    5.231310   -2.140497
    122          8           0       -1.887035    5.878988   -0.351938
    123          6           0       -2.197129    7.286833   -0.717493
    124          1           0       -7.075476    1.420727    3.496493
    125          1           0       -7.927760   -3.582151   -0.144427
    126          1           0       -2.801357   -2.111607   -3.459879
    127          1           0       -3.390385    4.321201    1.953249
    128          1           0       -5.791410    3.658333    3.269593
    129          1           0       -3.025764    2.530203    3.406356
    130          1           0       -4.320558    1.375896    3.787637
    131          1           0       -4.196760    2.818834    4.747983
    132          1           0       -6.292831    4.744215    1.203175
    133          1           0       -5.025016    5.245736    0.025765
    134          1           0       -4.361918    6.355652    2.562676
    135          1           0       -6.088977    6.353107    2.516706
    136          1           0       -9.073379    0.909126    3.929385
    137          1           0       -9.761014   -0.673017    4.081533
    138          1           0      -10.581133    0.489142    3.012174
    139          1           0      -11.136360   -2.118066    3.083718
    140          1           0      -12.140103   -2.926633    1.747525
    141          1           0      -11.729477   -1.187608    1.723581
    142          1           0       -6.837988   -4.479414   -2.267388
    143          1           0       -3.872582   -4.387870   -2.501417
    144          1           0       -6.227839   -6.297572   -1.062752
    145          1           0       -5.549452   -5.165311    0.159457
    146          1           0       -4.545067   -5.776818   -1.054169
    147          1           0       -5.422007   -5.057419   -4.378322
    148          1           0       -4.158507   -3.927637   -4.827913
    149          1           0       -7.043950   -3.614077   -4.430345
    150          1           0       -6.046584   -2.971182   -5.785611
    151          1           0       -6.089813   -2.152327   -4.160215
    152          1           0       -0.614508    0.655867   -4.441159
    153          1           0       -1.141786   -1.046317   -4.239328
    154          1           0       -0.043341   -0.314004   -3.002640
    155          1           0       -1.412124    3.587334    0.032257
    156          1           0       -1.241455    7.814058   -0.797533
    157          1           0       -2.907469    7.645501    0.050964
    158          1           0       -2.621494    7.468207   -1.698044
 ---------------------------------------------------------------------

 SCF Done:  E(RCAM-B3LYP) =  -4069.80898951     A.U. after   19 cycles

 Excitation energies and oscillator strengths:

 Excited State   1:      Singlet-A      1.6564 eV  748.54 nm  f=0.1444  <S**2>=0.000
     309 -> 315       -0.11519
     310 -> 316        0.12379
     311 -> 313       -0.46753
     312 -> 314        0.50348
 This state for optimization and/or second-order correction.
 Total Energy, E(TD-HF/TD-DFT) =  -4069.74811948
 Copying the excited state density for this state as the 1-particle RhoCI density.

 Excited State   2:      Singlet-A      1.6986 eV  729.93 nm  f=0.6044  <S**2>=0.000
     309 -> 315        0.13174
     310 -> 316        0.12161
     311 -> 313        0.50156
     312 -> 314        0.46596

 Excited State   3:      Singlet-A      2.1836 eV  567.80 nm  f=0.0039  <S**2>=0.000
     309 -> 313       -0.39146
     310 -> 314        0.51115
     311 -> 315        0.16452
     312 -> 316       -0.21566

 Excited State   4:      Singlet-A      2.1954 eV  564.73 nm  f=0.1733  <S**2>=0.000
     309 -> 313        0.50722
     310 -> 314        0.38789
     311 -> 315       -0.22409
     312 -> 316       -0.17071

 Excited State   5:      Singlet-A      2.5036 eV  495.23 nm  f=0.0000  <S**2>=0.000
     312 -> 313        0.70682

 The electronic state is 1-A.
 Alpha  occ. eigenvalues --  -46.87640 -46.87420 -19.26032 -19.25819 -19.18828
 Alpha  occ. eigenvalues --  -19.18697 -19.18498 -19.18441 -19.17872 -19.17510
 Alpha  occ. eigenvalues --  -14.42293 -14.42275 -14.41305 -14.41119 -14.39248
 Alpha  occ. eigenvalues --  -14.39107 -14.38409 -14.38334 -10.38758 -10.38541
 Alpha  occ. eigenvalues --  -10.35335 -10.35181 -10.34087 -10.33697 -10.31515
 Alpha  occ. eigenvalues --  -10.31268 -10.31221 -10.31054 -10.30804 -10.30739
 Alpha  occ. eigenvalues --  -10.30385 -10.30340 -10.30129 -10.30100 -10.30080
 Alpha  occ. eigenvalues --  -10.29942 -10.29769 -10.29636 -10.29459 -10.29214
 Alpha  occ. eigenvalues --  -10.29129 -10.29115 -10.28571 -10.28537 -10.28527
 Alpha  occ. eigenvalues --  -10.28387 -10.28176 -10.28136 -10.27967 -10.27957
 Alpha  occ. eigenvalues --  -10.27703 -10.27607 -10.27575 -10.27444 -10.27442
 Alpha  occ. eigenvalues --  -10.27423 -10.27377 -10.27373 -10.27333 -10.27274
 Alpha  occ. eigenvalues --  -10.27231 -10.27212 -10.27206 -10.27175 -10.26839
 Alpha  occ. eigenvalues --  -10.26657 -10.26524 -10.26511 -10.26332 -10.26245
 Alpha  occ. eigenvalues --  -10.26194 -10.26090 -10.25984 -10.25905 -10.25886
 Alpha  occ. eigenvalues --  -10.25706 -10.25642 -10.25491 -10.25362 -10.25205
 Alpha  occ. eigenvalues --  -10.24767 -10.24635 -10.24627 -10.24575 -10.24566
 Alpha  occ. eigenvalues --  -10.24440  -3.16384  -3.16170  -1.91266  -1.91053
 Alpha  occ. eigenvalues --   -1.90852  -1.90694  -1.90642  -1.90477  -1.16321
 Alpha  occ. eigenvalues --   -1.16154  -1.08305  -1.08104  -1.07102  -1.06755
 Alpha  occ. eigenvalues --   -1.06601  -1.06090  -1.04413  -1.04261  -1.03612
 Alpha  occ. eigenvalues --   -1.03420  -1.03070  -1.02790  -1.02249  -1.01857
 Alpha  occ. eigenvalues --   -0.91752  -0.91691  -0.89415  -0.89267  -0.89020
 Alpha  occ. eigenvalues --   -0.88967  -0.88184  -0.88007  -0.87681  -0.87517
 Alpha  occ. eigenvalues --   -0.87496  -0.87450  -0.87138  -0.86892  -0.84817
 Alpha  occ. eigenvalues --   -0.84797  -0.83844  -0.83664  -0.82862  -0.82727
 Alpha  occ. eigenvalues --   -0.82475  -0.82443  -0.81322  -0.81319  -0.80388
 Alpha  occ. eigenvalues --   -0.80192  -0.78644  -0.78384  -0.77084  -0.76933
 Alpha  occ. eigenvalues --   -0.76755  -0.76681  -0.75712  -0.75603  -0.74767
 Alpha  occ. eigenvalues --   -0.74579  -0.72614  -0.72442  -0.71507  -0.71349
 Alpha  occ. eigenvalues --   -0.69857  -0.69568  -0.68709  -0.68614  -0.67464
 Alpha  occ. eigenvalues --   -0.67338  -0.67059  -0.67000  -0.65106  -0.65049
 Alpha  occ. eigenvalues --   -0.64672  -0.64531  -0.64428  -0.64415  -0.64147
 Alpha  occ. eigenvalues --   -0.63978  -0.62001  -0.61989  -0.60311  -0.60107
 Alpha  occ. eigenvalues --   -0.59634  -0.59582  -0.58814  -0.58739  -0.58313
 Alpha  occ. eigenvalues --   -0.58155  -0.57314  -0.57208  -0.57083  -0.56975
 Alpha  occ. eigenvalues --   -0.56137  -0.55946  -0.55666  -0.55625  -0.55361
 Alpha  occ. eigenvalues --   -0.55211  -0.55166  -0.54998  -0.54271  -0.54235
 Alpha  occ. eigenvalues --   -0.53719  -0.53717  -0.53149  -0.53046  -0.52989
 Alpha  occ. eigenvalues --   -0.52907  -0.52678  -0.52657  -0.52617  -0.52472
 Alpha  occ. eigenvalues --   -0.52332  -0.52199  -0.51702  -0.51556  -0.51450
 Alpha  occ. eigenvalues --   -0.51438  -0.51000  -0.50896  -0.50472  -0.50281
 Alpha  occ. eigenvalues --   -0.49955  -0.49782  -0.49781  -0.49652  -0.49345
 Alpha  occ. eigenvalues --   -0.49274  -0.48996  -0.48958  -0.48918  -0.48816
 Alpha  occ. eigenvalues --   -0.48392  -0.48298  -0.48294  -0.48234  -0.48145
 Alpha  occ. eigenvalues --   -0.48015  -0.47532  -0.47357  -0.47131  -0.46895
 Alpha  occ. eigenvalues --   -0.46653  -0.46485  -0.46378  -0.46355  -0.46204
 Alpha  occ. eigenvalues --   -0.46031  -0.45947  -0.45825  -0.45571  -0.45528
 Alpha  occ. eigenvalues --   -0.45086  -0.44986  -0.44395  -0.44339  -0.44304
 Alpha  occ. eigenvalues --   -0.44195  -0.44028  -0.43933  -0.43886  -0.43849
 Alpha  occ. eigenvalues --   -0.43786  -0.43633  -0.43305  -0.43258  -0.43226
 Alpha  occ. eigenvalues --   -0.43141  -0.42847  -0.42668  -0.42611  -0.42590
 Alpha  occ. eigenvalues --   -0.42344  -0.42269  -0.41878  -0.41754  -0.41501
 Alpha  occ. eigenvalues --   -0.41374  -0.41325  -0.41258  -0.40976  -0.40749
 Alpha  occ. eigenvalues --   -0.40744  -0.40706  -0.40526  -0.40510  -0.40446
 Alpha  occ. eigenvalues --   -0.40275  -0.40073  -0.40054  -0.39412  -0.39241
 Alpha  occ. eigenvalues --   -0.38370  -0.38152  -0.37581  -0.37468  -0.37202
 Alpha  occ. eigenvalues --   -0.37085  -0.37051  -0.36975  -0.36481  -0.36409
 Alpha  occ. eigenvalues --   -0.35974  -0.35859  -0.34116  -0.34000  -0.33543
 Alpha  occ. eigenvalues --   -0.33299  -0.32943  -0.32923  -0.31226  -0.31059
 Alpha  occ. eigenvalues --   -0.30855  -0.30729  -0.29726  -0.29412  -0.29290
 Alpha  occ. eigenvalues --   -0.29119  -0.29071  -0.28885  -0.23910  -0.23789
 Alpha  occ. eigenvalues --   -0.20969  -0.20870
 Alpha virt. eigenvalues --   -0.08605  -0.08525  -0.01603  -0.01452   0.00102
 Alpha virt. eigenvalues --    0.00221   0.02422   0.02551   0.03164   0.03456
 Alpha virt. eigenvalues --    0.04872   0.04934   0.05512   0.05574   0.06333

 Mulliken charges:
               1
     1  Mg   0.837791
     2  C   -0.000774
     3  C   -0.094410
     4  C   -0.046355
     5  C   -0.065037
     6  N   -0.256483
     7  C   -0.052591
     8  C   -0.013817
     9  C   -0.086872
    10  C    0.045895
    11  C    0.104953
    12  C    0.053318
    13  C   -0.071125
    14  H    0.035769
    15  N   -0.433009
    16  C    0.167864
    17  C   -0.177716
    18  C   -0.004547
    19  C    0.148433
    20  C    0.110369
    21  C    0.011843
    22  O   -0.250360
    23  C    0.062700
    24  N   -0.341049
    25  C    0.040767
    26  C   -0.027969
    27  C   -0.023916
    28  C    0.074765
    29  C    0.076282
    30  C    0.035381
    31  C   -0.004324
    32  N   -0.311165
    33  C    0.080647
    34  C   -0.169057
    35  C    0.009813
    36  C    0.084543
    37  C    0.126697
    38  C    0.050213
    39  O   -0.186349
    40  C   -0.006537
    41  C    0.210858
    42  O   -0.247164
    43  O   -0.306636
    44  C    0.157066
    45  H   -0.018181
    46  H   -0.017571
    47  H   -0.041960
    48  H    0.001140
    49  H   -0.004794
    50  H    0.025535
    51  H    0.016191
    52  H    0.016047
    53  H    0.009768
    54  H    0.047222
    55  H    0.017679
    56  H    0.016533
    57  H    0.005421
    58  H    0.026347
    59  H    0.038465
    60  H    0.037183
    61  H    0.035110
    62  H    0.030955
    63  H    0.015703
    64  H    0.009520
    65  H    0.022741
    66  H    0.012742
    67  H    0.004523
    68  H    0.006066
    69  H    0.004795
    70  H    0.008638
    71  H    0.015477
    72  H    0.029065
    73  H    0.049668
    74  H    0.008152
    75  H    0.045695
    76  H    0.034088
    77  H    0.041550
    78  H    0.044093
    79  H    0.057550
    80  Mg   0.836804
    81  C   -0.016716
    82  C   -0.088065
    83  C   -0.045805
    84  C   -0.065464
    85  N   -0.254166
    86  C   -0.050250
    87  C   -0.014675
    88  C   -0.090399
    89  C    0.045125
    90  C    0.114578
    91  C    0.062697
    92  C   -0.077299
    93  H    0.034494
    94  N   -0.423293
    95  C    0.162198
    96  C   -0.175343
    97  C   -0.008399
    98  C    0.151654
    99  C    0.099674
   100  C    0.015108
   101  O   -0.253890
   102  C    0.061392
   103  N   -0.350098
   104  C    0.037139
   105  C   -0.019603
   106  C   -0.034817
   107  C    0.089499
   108  C    0.073751
   109  C    0.034874
   110  C   -0.007546
   111  N   -0.324444
   112  C    0.078852
   113  C   -0.164776
   114  C    0.004459
   115  C    0.095548
   116  C    0.132711
   117  C    0.043283
   118  O   -0.174935
   119  C    0.000511
   120  C    0.212556
   121  O   -0.251819
   122  O   -0.305288
   123  C    0.152776
   124  H   -0.020798
   125  H   -0.016211
   126  H   -0.040912
   127  H   -0.001026
   128  H   -0.005014
   129  H    0.021993
   130  H    0.014132
   131  H    0.014812
   132  H    0.013774
   133  H    0.038110
   134  H    0.019932
   135  H    0.019050
   136  H    0.007990
   137  H    0.025219
   138  H    0.039063
   139  H    0.037831
   140  H    0.035745
   141  H    0.033622
   142  H    0.013912
   143  H    0.012235
   144  H    0.024557
   145  H    0.011658
   146  H    0.005683
   147  H    0.005746
   148  H    0.003044
   149  H    0.010776
   150  H    0.017527
   151  H    0.030533
   152  H    0.048102
   153  H    0.006181
   154  H    0.049032
   155  H    0.036874
   156  H    0.042762
   157  H    0.047945
   158  H    0.053668
 Sum of Mulliken charges =  -0.00000

 Dipole moment (field-independent basis, Debye):
    X=              0.4016    Y=              0.0691    Z=              7.7457  Tot=              7.7564
 Quadrupole moment (field-independent basis, Debye-Ang):
   XX=           -496.8535   YY=           -510.7206   ZZ=           -481.6607
   XY=            -24.8586   XZ=              0.0656   YZ=             58.3539

 Normal termination of Gaussian 16 at Fri Sep 10 20:46:08 2021.
