 Gaussian 16, Revision A.03,
 Gaussian 16:  ES64L-G16RevA.03 25-Dec-2016

 -----------------------------------
 #p cam-b3lyp/Def2SVP td=(nstates=5)
 -----------------------------------

 --------------------------------
 TDDFT excited states in gaussian
 --------------------------------
 Symbolic Z-matrix:
 Charge =  0 Multiplicity = 1

                         Standard orientation:
 ---------------------------------------------------------------------
 Center     Atomic      Atomic             Coordinates (Angstroms)
 Number     Number       Type             X           Y           Z
 ---------------------------------------------------------------------
      1         12           0        5.036465   -1.338455   -0.002976
      2          6           0        6.109782    2.002513   -0.708765
      3          6           0        6.143102   -0.860732    3.189233
      4          6           0        4.516825   -4.422288    0.522923
      5          6           0        5.072587   -1.918448   -3.439248
      6          7           0        5.985767    0.395512    0.993432
      7          6           0        6.287536    1.637379    0.627546
      8          6           0        6.740044    2.538650    1.815115
      9          6           0        7.243288    1.403443    2.815139
     10          6           0        6.381562    0.251662    2.328566
     11          6           0        8.710787    1.032564    2.627002
     12          6           0        5.552999    3.356090    2.427037
     13          6           0        5.959770    4.495180    3.366381
     14          1           0        5.169101    5.716730    3.369171
     15          7           0        4.834967   -2.332917    1.692103
     16          6           0        5.337637   -1.983592    2.900648
     17          6           0        4.915084   -3.044634    3.839966
     18          6           0        4.287777   -4.134904    3.042538
     19          6           0        4.548357   -3.679575    1.700841
     20          6           0        5.075480   -2.940053    5.325592
     21          6           0        3.576944   -5.393455    3.428413
     22          8           0        3.314937   -6.313909    2.580658
     23          6           0        3.269940   -5.561915    4.860339
     24          7           0        5.034843   -3.011379   -1.251559
     25          6           0        4.720956   -4.223385   -0.780923
     26          6           0        4.510093   -5.204310   -1.895939
     27          6           0        4.507382   -4.347826   -3.243597
     28          6           0        4.816143   -2.955844   -2.639177
     29          6           0        5.551863   -6.326156   -2.006331
     30          6           0        3.271729   -4.493436   -4.166840
     31          6           0        2.053028   -3.907938   -3.489303
     32          7           0        5.329928   -0.142699   -1.790459
     33          6           0        5.324766   -0.595209   -3.117818
     34          6           0        5.674797    0.557174   -3.968441
     35          6           0        5.876792    1.602812   -3.069729
     36          6           0        5.691963    1.126983   -1.740174
     37          6           0        5.826756    0.533210   -5.382926
     38          6           0        6.229887    3.005424   -2.921876
     39          8           0        6.407197    3.941925   -3.702273
     40          6           0        6.514149    3.290848   -1.381241
     41          6           0        5.770068    4.543452   -1.006227
     42          8           0        4.522404    4.567137   -0.994477
     43          8           0        6.631677    5.436179   -0.495138
     44          6           0        5.953081    6.691316   -0.075264
     45          1           0        6.664943   -0.908435    4.147015
     46          1           0        4.231637   -5.468509    0.651481
     47          1           0        5.020688   -2.003289   -4.526245
     48          1           0        7.558932    3.219643    1.582534
     49          1           0        7.007713    1.641130    3.852314
     50          1           0        9.135215    1.518957    1.748820
     51          1           0        8.723980   -0.050782    2.505836
     52          1           0        9.281838    1.239780    3.532396
     53          1           0        5.005187    2.725123    3.126926
     54          1           0        4.909742    3.750434    1.639611
     55          1           0        7.021190    4.727416    3.274937
     56          1           0        5.845909    4.148100    4.393401
     57          1           0        5.716947   -2.103956    5.601283
     58          1           0        5.626051   -3.823096    5.649345
     59          1           0        4.115345   -2.896407    5.839953
     60          1           0        4.197294   -5.534406    5.432883
     61          1           0        2.682335   -6.476131    4.936366
     62          1           0        2.676628   -4.711162    5.196714
     63          1           0        3.552117   -5.712511   -1.793756
     64          1           0        5.351282   -4.596094   -3.887701
     65          1           0        5.123180   -7.327659   -1.962426
     66          1           0        6.288355   -6.181050   -1.216512
     67          1           0        6.177947   -6.282498   -2.897134
     68          1           0        3.060169   -5.545646   -4.354034
     69          1           0        3.395854   -4.003200   -5.132507
     70          1           0        1.711164   -4.724920   -2.854872
     71          1           0        1.296095   -3.645000   -4.228984
     72          1           0        2.321321   -3.077918   -2.835413
     73          1           0        5.331362    1.428624   -5.758143
     74          1           0        5.392531   -0.369252   -5.812593
     75          1           0        6.912939    0.556156   -5.469744
     76          1           0        7.592373    3.408757   -1.278025
     77          1           0        6.447067    7.512520   -0.594721
     78          1           0        5.966477    6.701120    1.014749
     79          1           0        4.925264    6.820839   -0.416080
     80         12           0       -5.202559    1.358223    0.231370
     81          6           0       -5.919765   -2.143414   -0.089932
     82          6           0       -4.378105    1.340541   -3.078403
     83          6           0       -4.135850    4.325675    0.583182
     84          6           0       -4.977532    0.854575    3.672508
     85          7           0       -5.191866   -0.254597   -1.282227
     86          6           0       -5.543247   -1.531475   -1.303681
     87          6           0       -5.565139   -2.168850   -2.718896
     88          6           0       -4.534506   -1.175011   -3.446194
     89          6           0       -4.733269    0.063611   -2.575001
     90          6           0       -3.085490   -1.616616   -3.325082
     91          6           0       -6.986619   -2.106973   -3.380387
     92          6           0       -7.155045   -2.980366   -4.625602
     93          1           0       -8.447603   -3.618800   -4.858345
     94          7           0       -4.847286    2.764311   -1.123355
     95          6           0       -4.550933    2.581692   -2.427237
     96          6           0       -4.359052    3.927879   -2.988581
     97          6           0       -4.404125    4.912021   -1.873165
     98          6           0       -4.444269    4.017427   -0.733786
     99          6           0       -4.237371    4.185145   -4.462497
    100          6           0       -4.397605    6.410314   -1.837310
    101          8           0       -4.202385    7.056931   -0.747998
    102          6           0       -4.533327    7.097615   -3.129856
    103          7           0       -4.430182    2.395158    1.859423
    104          6           0       -4.091099    3.692119    1.755328
    105          6           0       -3.822826    4.296454    3.112970
    106          6           0       -4.289353    3.194247    4.173657
    107          6           0       -4.680793    2.058561    3.202893
    108          6           0       -2.371983    4.688596    3.391652
    109          6           0       -5.322604    3.640578    5.244102
    110          6           0       -6.651312    3.937095    4.586838
    111          7           0       -5.584997   -0.275528    1.592491
    112          6           0       -5.400462   -0.280366    2.992492
    113          6           0       -5.684201   -1.651262    3.464282
    114          6           0       -5.994211   -2.360130    2.293868
    115          6           0       -5.889985   -1.497235    1.169569
    116          6           0       -5.590488   -2.103773    4.810610
    117          6           0       -6.375583   -3.644788    1.752656
    118          8           0       -6.693827   -4.730873    2.235219
    119          6           0       -6.221257   -3.593012    0.171556
    120          6           0       -7.470577   -4.169508   -0.436213
    121          8           0       -8.564566   -3.594719   -0.296870
    122          8           0       -7.134667   -5.179749   -1.258983
    123          6           0       -8.339561   -5.776704   -1.894356
    124          1           0       -3.880937    1.396374   -4.047210
    125          1           0       -3.869083    5.367838    0.773458
    126          1           0       -5.024748    0.640621    4.742400
    127          1           0       -5.195665   -3.186276   -2.764635
    128          1           0       -4.836597   -0.973157   -4.470571
    129          1           0       -2.976771   -2.465809   -2.666916
    130          1           0       -2.549502   -0.762489   -2.932345
    131          1           0       -2.665051   -1.806256   -4.316852
    132          1           0       -7.131236   -1.114418   -3.826120
    133          1           0       -7.750147   -2.345515   -2.665716
    134          1           0       -6.342013   -3.708938   -4.731093
    135          1           0       -7.062316   -2.345352   -5.510007
    136          1           0       -4.073497    3.255262   -5.020957
    137          1           0       -3.315699    4.757855   -4.612118
    138          1           0       -5.077759    4.757553   -4.860950
    139          1           0       -3.724918    6.790186   -3.788975
    140          1           0       -4.596887    8.160819   -2.890223
    141          1           0       -5.466366    6.771827   -3.603058
    142          1           0       -4.409444    5.195158    3.258980
    143          1           0       -3.444738    2.820133    4.770723
    144          1           0       -2.252214    5.754782    3.661806
    145          1           0       -1.779827    4.448724    2.518530
    146          1           0       -1.878898    4.110361    4.171210
    147          1           0       -4.997733    4.569051    5.720090
    148          1           0       -5.471412    2.909727    6.031955
    149          1           0       -6.525452    4.962843    4.227556
    150          1           0       -7.460588    3.869049    5.311053
    151          1           0       -6.808189    3.297741    3.710335
    152          1           0       -6.462731   -2.716889    4.994409
    153          1           0       -5.535685   -1.269956    5.507392
    154          1           0       -4.651637   -2.662017    4.763827
    155          1           0       -5.334247   -4.171224   -0.090129
    156          1           0       -8.322820   -6.847312   -1.668050
    157          1           0       -8.289825   -5.486418   -2.960661
    158          1           0       -9.307647   -5.492095   -1.499074
 ---------------------------------------------------------------------

 SCF Done:  E(RCAM-B3LYP) =  -4069.81171213     A.U. after   19 cycles

 Excitation energies and oscillator strengths:

 Excited State   1:      Singlet-A      1.6580 eV  747.79 nm  f=0.0203  <S**2>=0.000
     309 -> 315        0.11327
     310 -> 316        0.12626
     311 -> 313        0.45751
     312 -> 314        0.51257
 This state for optimization and/or second-order correction.
 Total Energy, E(TD-HF/TD-DFT) =  -4069.75078179
 Copying the excited state density for this state as the 1-particle RhoCI density.

 Excited State   2:      Singlet-A      1.6968 eV  730.68 nm  f=0.6977  <S**2>=0.000
     309 -> 315        0.13420
     310 -> 316       -0.11937
     311 -> 313        0.51076
     312 -> 314       -0.45598

 Excited State   3:      Singlet-A      2.1847 eV  567.50 nm  f=0.0229  <S**2>=0.000
     309 -> 313        0.29117
     310 -> 314        0.57416
     311 -> 315       -0.12199
     312 -> 316       -0.24204

 Excited State   4:      Singlet-A      2.1951 eV  564.81 nm  f=0.1598  <S**2>=0.000
     309 -> 313        0.57077
     310 -> 314       -0.28824
     311 -> 315       -0.25022
     312 -> 316        0.12718

 Excited State   5:      Singlet-A      2.4855 eV  498.82 nm  f=0.0000  <S**2>=0.000
     312 -> 313        0.70709

 The electronic state is 1-A.
 Alpha  occ. eigenvalues --  -46.87879 -46.87493 -19.26326 -19.26230 -19.19070
 Alpha  occ. eigenvalues --  -19.19035 -19.18846 -19.18513 -19.18251 -19.17895
 Alpha  occ. eigenvalues --  -14.42528 -14.42331 -14.41537 -14.41197 -14.39479
 Alpha  occ. eigenvalues --  -14.39176 -14.38673 -14.38437 -10.39131 -10.38962
 Alpha  occ. eigenvalues --  -10.35476 -10.35187 -10.34470 -10.34074 -10.31702
 Alpha  occ. eigenvalues --  -10.31654 -10.31489 -10.31153 -10.30974 -10.30845
 Alpha  occ. eigenvalues --  -10.30658 -10.30591 -10.30293 -10.30234 -10.30201
 Alpha  occ. eigenvalues --  -10.30015 -10.29974 -10.29744 -10.29711 -10.29331
 Alpha  occ. eigenvalues --  -10.29256 -10.29233 -10.28809 -10.28581 -10.28570
 Alpha  occ. eigenvalues --  -10.28547 -10.28439 -10.28228 -10.28182 -10.27987
 Alpha  occ. eigenvalues --  -10.27875 -10.27830 -10.27807 -10.27656 -10.27621
 Alpha  occ. eigenvalues --  -10.27551 -10.27534 -10.27495 -10.27479 -10.27401
 Alpha  occ. eigenvalues --  -10.27318 -10.27286 -10.27243 -10.27230 -10.27226
 Alpha  occ. eigenvalues --  -10.26897 -10.26758 -10.26563 -10.26405 -10.26358
 Alpha  occ. eigenvalues --  -10.26294 -10.26188 -10.26116 -10.26055 -10.25973
 Alpha  occ. eigenvalues --  -10.25861 -10.25784 -10.25750 -10.25518 -10.25248
 Alpha  occ. eigenvalues --  -10.24916 -10.24908 -10.24867 -10.24706 -10.24646
 Alpha  occ. eigenvalues --  -10.24519  -3.16622  -3.16243  -1.91503  -1.91125
 Alpha  occ. eigenvalues --   -1.91090  -1.90932  -1.90714  -1.90550  -1.16677
 Alpha  occ. eigenvalues --   -1.16522  -1.08708  -1.08507  -1.07244  -1.06819
 Alpha  occ. eigenvalues --   -1.06762  -1.06693  -1.04658  -1.04328  -1.03844
 Alpha  occ. eigenvalues --   -1.03496  -1.03317  -1.02875  -1.02495  -1.01946
 Alpha  occ. eigenvalues --   -0.92049  -0.91826  -0.89631  -0.89353  -0.89254
 Alpha  occ. eigenvalues --   -0.89001  -0.88392  -0.88082  -0.87967  -0.87751
 Alpha  occ. eigenvalues --   -0.87649  -0.87524  -0.87331  -0.86920  -0.85048
 Alpha  occ. eigenvalues --   -0.84847  -0.84053  -0.83745  -0.83022  -0.82745
 Alpha  occ. eigenvalues --   -0.82709  -0.82488  -0.81652  -0.81457  -0.80664
 Alpha  occ. eigenvalues --   -0.80287  -0.78869  -0.78456  -0.77308  -0.77008
 Alpha  occ. eigenvalues --   -0.76992  -0.76760  -0.75992  -0.75685  -0.74990
 Alpha  occ. eigenvalues --   -0.74657  -0.72863  -0.72543  -0.71750  -0.71424
 Alpha  occ. eigenvalues --   -0.70043  -0.69639  -0.68940  -0.68673  -0.67713
 Alpha  occ. eigenvalues --   -0.67441  -0.67274  -0.67041  -0.65358  -0.65122
 Alpha  occ. eigenvalues --   -0.64934  -0.64699  -0.64618  -0.64506  -0.64371
 Alpha  occ. eigenvalues --   -0.64065  -0.62362  -0.62142  -0.60511  -0.60159
 Alpha  occ. eigenvalues --   -0.59875  -0.59641  -0.59070  -0.58836  -0.58584
 Alpha  occ. eigenvalues --   -0.58270  -0.57656  -0.57409  -0.57390  -0.57080
 Alpha  occ. eigenvalues --   -0.56387  -0.56046  -0.56032  -0.55746  -0.55582
 Alpha  occ. eigenvalues --   -0.55435  -0.55284  -0.55115  -0.54610  -0.54359
 Alpha  occ. eigenvalues --   -0.53959  -0.53763  -0.53377  -0.53277  -0.53073
 Alpha  occ. eigenvalues --   -0.52989  -0.52979  -0.52807  -0.52755  -0.52579
 Alpha  occ. eigenvalues --   -0.52469  -0.52291  -0.52022  -0.51761  -0.51674
 Alpha  occ. eigenvalues --   -0.51497  -0.51284  -0.51057  -0.50618  -0.50274
 Alpha  occ. eigenvalues --   -0.50140  -0.49973  -0.49812  -0.49713  -0.49571
 Alpha  occ. eigenvalues --   -0.49315  -0.49286  -0.49164  -0.49038  -0.48956
 Alpha  occ. eigenvalues --   -0.48667  -0.48547  -0.48493  -0.48410  -0.48235
 Alpha  occ. eigenvalues --   -0.48151  -0.47766  -0.47432  -0.47366  -0.46945
 Alpha  occ. eigenvalues --   -0.46890  -0.46617  -0.46563  -0.46445  -0.46402
 Alpha  occ. eigenvalues --   -0.46249  -0.46110  -0.45944  -0.45905  -0.45690
 Alpha  occ. eigenvalues --   -0.45297  -0.45055  -0.44661  -0.44574  -0.44372
 Alpha  occ. eigenvalues --   -0.44325  -0.44239  -0.44155  -0.44079  -0.43975
 Alpha  occ. eigenvalues --   -0.43925  -0.43762  -0.43568  -0.43463  -0.43422
 Alpha  occ. eigenvalues --   -0.43234  -0.43110  -0.42799  -0.42793  -0.42756
 Alpha  occ. eigenvalues --   -0.42731  -0.42408  -0.42116  -0.41833  -0.41784
 Alpha  occ. eigenvalues --   -0.41603  -0.41515  -0.41314  -0.41216  -0.40955
 Alpha  occ. eigenvalues --   -0.40861  -0.40833  -0.40671  -0.40573  -0.40523
 Alpha  occ. eigenvalues --   -0.40358  -0.40287  -0.40077  -0.39588  -0.39310
 Alpha  occ. eigenvalues --   -0.38569  -0.38214  -0.37811  -0.37515  -0.37418
 Alpha  occ. eigenvalues --   -0.37331  -0.37122  -0.37041  -0.36781  -0.36644
 Alpha  occ. eigenvalues --   -0.36270  -0.36076  -0.34369  -0.34093  -0.33826
 Alpha  occ. eigenvalues --   -0.33728  -0.33267  -0.33011  -0.31378  -0.31111
 Alpha  occ. eigenvalues --   -0.31075  -0.30806  -0.30111  -0.29803  -0.29521
 Alpha  occ. eigenvalues --   -0.29405  -0.29144  -0.29045  -0.24162  -0.23870
 Alpha  occ. eigenvalues --   -0.21211  -0.20950
 Alpha virt. eigenvalues --   -0.08852  -0.08618  -0.01829  -0.01516  -0.00115
 Alpha virt. eigenvalues --    0.00159   0.02117   0.02363   0.03013   0.03381
 Alpha virt. eigenvalues --    0.04644   0.04883   0.05043   0.05297   0.06124

 Mulliken charges:
               1
     1  Mg   0.838573
     2  C   -0.002768
     3  C   -0.094080
     4  C   -0.045801
     5  C   -0.064428
     6  N   -0.256770
     7  C   -0.052505
     8  C   -0.013999
     9  C   -0.087014
    10  C    0.046434
    11  C    0.104763
    12  C    0.053470
    13  C   -0.072040
    14  H    0.036689
    15  N   -0.433261
    16  C    0.168611
    17  C   -0.176946
    18  C   -0.003646
    19  C    0.148879
    20  C    0.110162
    21  C    0.012767
    22  O   -0.248970
    23  C    0.062290
    24  N   -0.341038
    25  C    0.041201
    26  C   -0.028387
    27  C   -0.023730
    28  C    0.074509
    29  C    0.076042
    30  C    0.035278
    31  C   -0.004613
    32  N   -0.310282
    33  C    0.079986
    34  C   -0.170626
    35  C    0.008259
    36  C    0.082694
    37  C    0.127524
    38  C    0.045807
    39  O   -0.188744
    40  C   -0.005178
    41  C    0.212743
    42  O   -0.256976
    43  O   -0.304867
    44  C    0.157484
    45  H   -0.017309
    46  H   -0.016439
    47  H   -0.042210
    48  H    0.001067
    49  H   -0.003929
    50  H    0.025553
    51  H    0.016470
    52  H    0.016879
    53  H    0.010927
    54  H    0.044364
    55  H    0.017963
    56  H    0.017801
    57  H    0.005886
    58  H    0.027237
    59  H    0.039818
    60  H    0.037239
    61  H    0.036844
    62  H    0.031620
    63  H    0.016706
    64  H    0.009555
    65  H    0.023601
    66  H    0.012862
    67  H    0.004743
    68  H    0.006574
    69  H    0.004035
    70  H    0.009512
    71  H    0.015457
    72  H    0.029330
    73  H    0.046663
    74  H    0.008350
    75  H    0.046258
    76  H    0.035261
    77  H    0.042987
    78  H    0.046556
    79  H    0.054253
    80  Mg   0.838035
    81  C   -0.016752
    82  C   -0.087140
    83  C   -0.044246
    84  C   -0.065335
    85  N   -0.254532
    86  C   -0.050058
    87  C   -0.015035
    88  C   -0.090617
    89  C    0.045695
    90  C    0.113960
    91  C    0.062588
    92  C   -0.077640
    93  H    0.034427
    94  N   -0.423893
    95  C    0.163121
    96  C   -0.172796
    97  C   -0.006898
    98  C    0.152514
    99  C    0.098576
   100  C    0.016479
   101  O   -0.253175
   102  C    0.060963
   103  N   -0.349924
   104  C    0.037811
   105  C   -0.019977
   106  C   -0.034366
   107  C    0.088682
   108  C    0.073335
   109  C    0.034926
   110  C   -0.007555
   111  N   -0.323921
   112  C    0.078161
   113  C   -0.163806
   114  C    0.002212
   115  C    0.095857
   116  C    0.131525
   117  C    0.042196
   118  O   -0.188481
   119  C    0.000887
   120  C    0.211149
   121  O   -0.251263
   122  O   -0.305542
   123  C    0.152162
   124  H   -0.018743
   125  H   -0.015250
   126  H   -0.041574
   127  H   -0.000916
   128  H   -0.004603
   129  H    0.022761
   130  H    0.016044
   131  H    0.015327
   132  H    0.013887
   133  H    0.037538
   134  H    0.020464
   135  H    0.019483
   136  H    0.008790
   137  H    0.028831
   138  H    0.039351
   139  H    0.039885
   140  H    0.036092
   141  H    0.033227
   142  H    0.014053
   143  H    0.011249
   144  H    0.024467
   145  H    0.014619
   146  H    0.004195
   147  H    0.005588
   148  H    0.002919
   149  H    0.010896
   150  H    0.017426
   151  H    0.030486
   152  H    0.045599
   153  H    0.007713
   154  H    0.046174
   155  H    0.035355
   156  H    0.043706
   157  H    0.049321
   158  H    0.053357
 Sum of Mulliken charges =  -0.00000

 Dipole moment (field-independent basis, Debye):
    X=              4.2755    Y=              0.0531    Z=              0.3397  Tot=              4.2893
 Quadrupole moment (field-independent basis, Debye-Ang):
   XX=           -524.9172   YY=           -544.6821   ZZ=           -450.1867
   XY=            -20.6890   XZ=             55.2289   YZ=             38.7703

 Normal termination of Gaussian 16 at Sat Sep  4 02:07:42 2021.
