 Gaussian 16, Revision A.03,
 Gaussian 16:  ES64L-G16RevA.03 25-Dec-2016

 -----------------------------------
 #p cam-b3lyp/Def2SVP td=(nstates=5)
 -----------------------------------

 --------------------------------
 TDDFT excited states in gaussian
 --------------------------------
 Symbolic Z-matrix:
 Charge =  0 Multiplicity = 1

                         Standard orientation:
 ---------------------------------------------------------------------
 Center     Atomic      Atomic             Coordinates (Angstroms)
 Number     Number       Type             X           Y           Z
 ---------------------------------------------------------------------
      1         12           0      -15.613991   -0.887895    0.274481
      2          6           0      -15.858526    2.673255    0.008728
      3          6           0      -16.518222   -1.046181   -3.011912
      4          6           0      -15.847387   -4.033442    0.602631
      5          6           0      -15.847239   -0.498261    3.729831
      6          7           0      -16.098501    0.683638   -1.207471
      7          6           0      -16.096851    2.012958   -1.198688
      8          6           0      -16.297723    2.640367   -2.610560
      9          6           0      -17.043850    1.424464   -3.322510
     10          6           0      -16.494817    0.280568   -2.488251
     11          6           0      -18.560435    1.463745   -3.164621
     12          6           0      -14.938004    2.969090   -3.314005
     13          6           0      -15.041126    3.875292   -4.544257
     14          1           0      -13.978388    4.836571   -4.796997
     15          7           0      -15.630669   -2.320225   -1.086034
     16          6           0      -16.013437   -2.203387   -2.380300
     17          6           0      -15.844498   -3.545352   -2.978021
     18          6           0      -15.513224   -4.494486   -1.879160
     19          6           0      -15.678399   -3.648083   -0.725167
     20          6           0      -15.949787   -3.810302   -4.448554
     21          6           0      -15.121734   -5.938362   -1.869841
     22          8           0      -15.104594   -6.631520   -0.795685
     23          6           0      -14.840574   -6.551250   -3.180704
     24          7           0      -16.038320   -2.117724    1.906995
     25          6           0      -16.019224   -3.450046    1.790641
     26          6           0      -16.070834   -4.116214    3.133583
     27          6           0      -15.883595   -2.953112    4.211492
     28          6           0      -15.836066   -1.742661    3.246703
     29          6           0      -17.354853   -4.897836    3.444025
     30          6           0      -14.735637   -3.123738    5.237893
     31          6           0      -13.400238   -3.036908    4.533431
     32          7           0      -15.639368    0.778652    1.664813
     33          6           0      -15.766218    0.711028    3.059807
     34          6           0      -15.841203    2.098011    3.554501
     35          6           0      -15.768969    2.880862    2.403948
     36          6           0      -15.682448    2.035873    1.260794
     37          6           0      -16.018228    2.490709    4.910555
     38          6           0      -15.769560    4.234172    1.872525
     39          8           0      -15.728051    5.360781    2.369035
     40          6           0      -15.950322    4.151963    0.292527
     41          6           0      -14.918999    5.052862   -0.330419
     42          8           0      -13.702679    4.786461   -0.246977
     43          8           0      -15.530203    5.947766   -1.121697
     44          6           0      -14.561041    6.853952   -1.793787
     45          1           0      -17.019899   -1.228991   -3.964194
     46          1           0      -15.821767   -5.112103    0.770775
     47          1           0      -15.835718   -0.297215    4.802631
     48          1           0      -16.931245    3.527372   -2.627794
     49          1           0      -16.740332    1.314061   -4.363380
     50          1           0      -18.869244    2.252051   -2.478230
     51          1           0      -18.837469    0.485756   -2.770562
     52          1           0      -19.049036    1.544784   -4.135949
     53          1           0      -14.547489    2.065239   -3.781564
     54          1           0      -14.231776    3.402638   -2.605059
     55          1           0      -16.016168    4.359961   -4.601675
     56          1           0      -14.997384    3.248347   -5.434890
     57          1           0      -16.365095   -2.955440   -4.980790
     58          1           0      -16.692179   -4.597600   -4.577878
     59          1           0      -14.999117   -4.127408   -4.877508
     60          1           0      -15.723929   -6.467339   -3.814101
     61          1           0      -14.490506   -7.561456   -2.971455
     62          1           0      -14.053423   -5.981447   -3.675343
     63          1           0      -15.262756   -4.838305    3.243226
     64          1           0      -16.773210   -2.819152    4.827378
     65          1           0      -17.180625   -5.944719    3.693796
     66          1           0      -18.020930   -4.805985    2.586589
     67          1           0      -17.966657   -4.474235    4.240061
     68          1           0      -14.788209   -4.106254    5.705701
     69          1           0      -14.753657   -2.377006    6.031818
     70          1           0      -13.255639   -4.050085    4.160072
     71          1           0      -12.614731   -2.765147    5.239359
     72          1           0      -13.448627   -2.374793    3.668706
     73          1           0      -15.327237    3.316042    5.081800
     74          1           0      -15.822625    1.662565    5.591379
     75          1           0      -17.067868    2.783984    4.900472
     76          1           0      -16.966059    4.481167    0.075674
     77          1           0      -14.850261    7.874960   -1.544531
     78          1           0      -14.553320    6.573083   -2.847096
     79          1           0      -13.538319    6.831669   -1.415790
     80         12           0       16.135503   -0.531776   -0.031699
     81          6           0       14.536103    2.678069    0.101896
     82          6           0       14.103423   -1.268126   -2.670459
     83          6           0       17.202510   -3.516669    0.107438
     84          6           0       17.193576    0.013825    3.243748
     85          7           0       14.563884    0.636461   -1.060049
     86          6           0       14.085610    1.867627   -0.960973
     87          6           0       13.126980    2.279660   -2.110237
     88          6           0       12.642147    0.814962   -2.555747
     89          6           0       13.856414    0.007120   -2.102272
     90          6           0       11.427144    0.323399   -1.786688
     91          6           0       13.874191    3.016840   -3.276536
     92          6           0       12.960364    3.718492   -4.283687
     93          1           0       13.410743    4.976028   -4.873799
     94          7           0       16.084049   -1.978596   -1.389127
     95          6           0       15.204994   -2.110839   -2.404542
     96          6           0       15.580561   -3.349881   -3.103026
     97          6           0       16.650256   -4.024689   -2.318748
     98          6           0       16.673007   -3.191873   -1.133011
     99          6           0       14.997156   -3.745720   -4.428313
    100          6           0       17.501784   -5.228829   -2.585504
    101          8           0       18.201615   -5.776609   -1.661932
    102          6           0       17.419827   -5.803520   -3.936246
    103          7           0       16.882674   -1.690958    1.524056
    104          6           0       17.326195   -2.940984    1.303518
    105          6           0       18.067775   -3.476595    2.505009
    106          6           0       18.239929   -2.231491    3.493773
    107          6           0       17.455512   -1.165649    2.697490
    108          6           0       17.387832   -4.626186    3.248300
    109          6           0       19.683970   -1.894384    3.956131
    110          6           0       20.499339   -1.400074    2.783008
    111          7           0       16.081153    1.114416    1.366561
    112          6           0       16.558399    1.120827    2.695576
    113          6           0       16.194629    2.426818    3.282505
    114          6           0       15.505354    3.085928    2.253449
    115          6           0       15.426280    2.241917    1.112878
    116          6           0       16.461289    2.842073    4.617641
    117          6           0       14.817404    4.299660    1.876249
    118          8           0       14.642382    5.398200    2.401912
    119          6           0       14.049053    4.041004    0.509086
    120          6           0       14.340367    5.193404   -0.412677
    121          8           0       15.493625    5.389079   -0.834953
    122          8           0       13.178782    5.740714   -0.814582
    123          6           0       13.415311    6.881104   -1.739453
    124          1           0       13.362733   -1.683759   -3.354201
    125          1           0       17.682225   -4.495944    0.173566
    126          1           0       17.572849    0.298733    4.227439
    127          1           0       12.276202    2.874807   -1.800775
    128          1           0       12.521812    0.749700   -3.633996
    129          1           0       11.160939    0.993525   -0.982814
    130          1           0       11.700059   -0.647752   -1.394989
    131          1           0       10.592763    0.148365   -2.471902
    132          1           0       14.338612    2.269729   -3.932944
    133          1           0       14.589174    3.716277   -2.888952
    134          1           0       11.933371    3.814942   -3.910955
    135          1           0       12.866046    3.083365   -5.167848
    136          1           0       14.116896   -3.140290   -4.677272
    137          1           0       14.604453   -4.761890   -4.314113
    138          1           0       15.736285   -3.740758   -5.232259
    139          1           0       16.391171   -6.086614   -4.146453
    140          1           0       18.165397   -6.600664   -3.960400
    141          1           0       17.687754   -5.028536   -4.663030
    142          1           0       19.048478   -3.840150    2.223680
    143          1           0       17.695583   -2.382369    4.437571
    144          1           0       18.019293   -5.531572    3.323235
    145          1           0       16.456067   -4.852848    2.747325
    146          1           0       17.055922   -4.390996    4.258109
    147          1           0       20.183468   -2.793919    4.324227
    148          1           0       19.721935   -1.156864    4.750879
    149          1           0       20.829655   -2.326706    2.304137
    150          1           0       21.346335   -0.809777    3.126788
    151          1           0       19.869294   -0.863814    2.063897
    152          1           0       16.811435    3.864216    4.561727
    153          1           0       17.193991    2.195638    5.096225
    154          1           0       15.466848    2.732114    5.058384
    155          1           0       12.986290    3.960579    0.740712
    156          1           0       12.901536    7.748944   -1.314520
    157          1           0       13.078650    6.533704   -2.734292
    158          1           0       14.428654    7.255820   -1.824204
 ---------------------------------------------------------------------

 SCF Done:  E(RCAM-B3LYP) =  -4069.81176968     A.U. after   19 cycles

 Excitation energies and oscillator strengths:

 Excited State   1:      Singlet-A      1.6753 eV  740.07 nm  f=0.2078  <S**2>=0.000
     310 -> 316       -0.16831
     311 -> 314        0.16678
     312 -> 313        0.66547
     310 <- 316       -0.10147
 This state for optimization and/or second-order correction.
 Total Energy, E(TD-HF/TD-DFT) =  -4069.75020326
 Copying the excited state density for this state as the 1-particle RhoCI density.

 Excited State   2:      Singlet-A      1.6801 eV  737.96 nm  f=0.5694  <S**2>=0.000
     309 -> 315        0.17034
     311 -> 314        0.66511
     312 -> 313       -0.16673
     309 <- 315        0.10198

 Excited State   3:      Singlet-A      2.1861 eV  567.16 nm  f=0.0975  <S**2>=0.000
     310 -> 313        0.64222
     312 -> 316        0.27298

 Excited State   4:      Singlet-A      2.1925 eV  565.49 nm  f=0.1030  <S**2>=0.000
     309 -> 314        0.64044
     311 -> 315       -0.27818

 Excited State   5:      Singlet-A      3.0633 eV  404.74 nm  f=0.0000  <S**2>=0.000
     312 -> 314        0.70710

 The electronic state is 1-A.
 Alpha  occ. eigenvalues --  -46.87807 -46.87660 -19.26343 -19.26293 -19.19156
 Alpha  occ. eigenvalues --  -19.19029 -19.18828 -19.18715 -19.18178 -19.18048
 Alpha  occ. eigenvalues --  -14.42496 -14.42460 -14.41460 -14.41359 -14.39414
 Alpha  occ. eigenvalues --  -14.39351 -14.38599 -14.38597 -10.39089 -10.39086
 Alpha  occ. eigenvalues --  -10.35461 -10.35393 -10.34398 -10.34225 -10.31748
 Alpha  occ. eigenvalues --  -10.31687 -10.31415 -10.31307 -10.31022 -10.30920
 Alpha  occ. eigenvalues --  -10.30580 -10.30518 -10.30397 -10.30359 -10.30218
 Alpha  occ. eigenvalues --  -10.30141 -10.29930 -10.29894 -10.29641 -10.29436
 Alpha  occ. eigenvalues --  -10.29400 -10.29265 -10.28760 -10.28715 -10.28650
 Alpha  occ. eigenvalues --  -10.28551 -10.28404 -10.28375 -10.28137 -10.28127
 Alpha  occ. eigenvalues --  -10.28000 -10.27803 -10.27738 -10.27668 -10.27595
 Alpha  occ. eigenvalues --  -10.27519 -10.27511 -10.27494 -10.27482 -10.27468
 Alpha  occ. eigenvalues --  -10.27465 -10.27459 -10.27414 -10.27377 -10.27167
 Alpha  occ. eigenvalues --  -10.27046 -10.26717 -10.26689 -10.26425 -10.26417
 Alpha  occ. eigenvalues --  -10.26244 -10.26193 -10.26139 -10.26029 -10.26019
 Alpha  occ. eigenvalues --  -10.25934 -10.25851 -10.25849 -10.25444 -10.25399
 Alpha  occ. eigenvalues --  -10.24871 -10.24843 -10.24798 -10.24733 -10.24697
 Alpha  occ. eigenvalues --  -10.24689  -3.16550  -3.16410  -1.91432  -1.91292
 Alpha  occ. eigenvalues --   -1.91018  -1.90881  -1.90860  -1.90717  -1.16641
 Alpha  occ. eigenvalues --   -1.16637  -1.08655  -1.08636  -1.07229  -1.06968
 Alpha  occ. eigenvalues --   -1.06940  -1.06651  -1.04591  -1.04494  -1.03771
 Alpha  occ. eigenvalues --   -1.03662  -1.03244  -1.03038  -1.02421  -1.02111
 Alpha  occ. eigenvalues --   -0.91985  -0.91982  -0.89530  -0.89494  -0.89198
 Alpha  occ. eigenvalues --   -0.89148  -0.88297  -0.88221  -0.87880  -0.87792
 Alpha  occ. eigenvalues --   -0.87683  -0.87683  -0.87286  -0.87120  -0.84997
 Alpha  occ. eigenvalues --   -0.84993  -0.83946  -0.83876  -0.82980  -0.82932
 Alpha  occ. eigenvalues --   -0.82659  -0.82651  -0.81595  -0.81593  -0.80607
 Alpha  occ. eigenvalues --   -0.80440  -0.78808  -0.78635  -0.77229  -0.77143
 Alpha  occ. eigenvalues --   -0.76944  -0.76896  -0.75933  -0.75836  -0.74908
 Alpha  occ. eigenvalues --   -0.74802  -0.72784  -0.72698  -0.71682  -0.71579
 Alpha  occ. eigenvalues --   -0.69917  -0.69758  -0.68884  -0.68825  -0.67652
 Alpha  occ. eigenvalues --   -0.67600  -0.67231  -0.67198  -0.65297  -0.65269
 Alpha  occ. eigenvalues --   -0.64864  -0.64769  -0.64651  -0.64631  -0.64279
 Alpha  occ. eigenvalues --   -0.64204  -0.62307  -0.62275  -0.60453  -0.60340
 Alpha  occ. eigenvalues --   -0.59815  -0.59794  -0.58997  -0.58992  -0.58514
 Alpha  occ. eigenvalues --   -0.58424  -0.57594  -0.57551  -0.57319  -0.57236
 Alpha  occ. eigenvalues --   -0.56320  -0.56203  -0.55988  -0.55883  -0.55531
 Alpha  occ. eigenvalues --   -0.55450  -0.55349  -0.55246  -0.54533  -0.54486
 Alpha  occ. eigenvalues --   -0.53909  -0.53906  -0.53310  -0.53233  -0.53227
 Alpha  occ. eigenvalues --   -0.53140  -0.52925  -0.52900  -0.52768  -0.52668
 Alpha  occ. eigenvalues --   -0.52448  -0.52402  -0.51923  -0.51883  -0.51656
 Alpha  occ. eigenvalues --   -0.51628  -0.51206  -0.51199  -0.50585  -0.50476
 Alpha  occ. eigenvalues --   -0.50042  -0.49978  -0.49930  -0.49868  -0.49526
 Alpha  occ. eigenvalues --   -0.49487  -0.49225  -0.49200  -0.49106  -0.49102
 Alpha  occ. eigenvalues --   -0.48602  -0.48556  -0.48472  -0.48456  -0.48376
 Alpha  occ. eigenvalues --   -0.48338  -0.47705  -0.47593  -0.47307  -0.47118
 Alpha  occ. eigenvalues --   -0.46807  -0.46708  -0.46566  -0.46551  -0.46369
 Alpha  occ. eigenvalues --   -0.46270  -0.46172  -0.46084  -0.45831  -0.45819
 Alpha  occ. eigenvalues --   -0.45211  -0.45209  -0.44587  -0.44518  -0.44512
 Alpha  occ. eigenvalues --   -0.44474  -0.44155  -0.44125  -0.44099  -0.44077
 Alpha  occ. eigenvalues --   -0.44030  -0.43938  -0.43550  -0.43504  -0.43396
 Alpha  occ. eigenvalues --   -0.43384  -0.43037  -0.42927  -0.42899  -0.42708
 Alpha  occ. eigenvalues --   -0.42664  -0.42554  -0.42019  -0.41963  -0.41714
 Alpha  occ. eigenvalues --   -0.41667  -0.41544  -0.41457  -0.41151  -0.40988
 Alpha  occ. eigenvalues --   -0.40880  -0.40836  -0.40722  -0.40697  -0.40581
 Alpha  occ. eigenvalues --   -0.40493  -0.40246  -0.40224  -0.39451  -0.39427
 Alpha  occ. eigenvalues --   -0.38479  -0.38350  -0.37759  -0.37651  -0.37330
 Alpha  occ. eigenvalues --   -0.37274  -0.37265  -0.37197  -0.36767  -0.36722
 Alpha  occ. eigenvalues --   -0.36216  -0.36202  -0.34296  -0.34252  -0.33858
 Alpha  occ. eigenvalues --   -0.33780  -0.33197  -0.33175  -0.31357  -0.31274
 Alpha  occ. eigenvalues --   -0.31046  -0.30972  -0.30038  -0.29952  -0.29460
 Alpha  occ. eigenvalues --   -0.29332  -0.29327  -0.29210  -0.24091  -0.24035
 Alpha  occ. eigenvalues --   -0.21138  -0.21116
 Alpha virt. eigenvalues --   -0.08791  -0.08785  -0.01760  -0.01683  -0.00069
 Alpha virt. eigenvalues --   -0.00028   0.02191   0.02209   0.03109   0.03227
 Alpha virt. eigenvalues --    0.04707   0.04732   0.05089   0.05170   0.06165

 Mulliken charges:
               1
     1  Mg   0.838687
     2  C   -0.002970
     3  C   -0.094148
     4  C   -0.045890
     5  C   -0.063931
     6  N   -0.256776
     7  C   -0.052455
     8  C   -0.014005
     9  C   -0.086992
    10  C    0.046310
    11  C    0.104811
    12  C    0.053471
    13  C   -0.071797
    14  H    0.036108
    15  N   -0.433147
    16  C    0.168423
    17  C   -0.177175
    18  C   -0.004018
    19  C    0.148709
    20  C    0.110183
    21  C    0.012263
    22  O   -0.249632
    23  C    0.062485
    24  N   -0.341143
    25  C    0.041259
    26  C   -0.028177
    27  C   -0.023988
    28  C    0.074826
    29  C    0.076177
    30  C    0.035146
    31  C   -0.004514
    32  N   -0.310475
    33  C    0.080417
    34  C   -0.169698
    35  C    0.008394
    36  C    0.083001
    37  C    0.127306
    38  C    0.046124
    39  O   -0.188384
    40  C   -0.005359
    41  C    0.212890
    42  O   -0.257116
    43  O   -0.304786
    44  C    0.157681
    45  H   -0.017608
    46  H   -0.016844
    47  H   -0.041462
    48  H    0.000957
    49  H   -0.004053
    50  H    0.025492
    51  H    0.016455
    52  H    0.016661
    53  H    0.011171
    54  H    0.044118
    55  H    0.017899
    56  H    0.017926
    57  H    0.005870
    58  H    0.026824
    59  H    0.039493
    60  H    0.037358
    61  H    0.035620
    62  H    0.031454
    63  H    0.016538
    64  H    0.009486
    65  H    0.023207
    66  H    0.012547
    67  H    0.004773
    68  H    0.006371
    69  H    0.004760
    70  H    0.008755
    71  H    0.018159
    72  H    0.028972
    73  H    0.047606
    74  H    0.009131
    75  H    0.046036
    76  H    0.035175
    77  H    0.042985
    78  H    0.046384
    79  H    0.053689
    80  Mg   0.837908
    81  C   -0.016831
    82  C   -0.087795
    83  C   -0.045539
    84  C   -0.064865
    85  N   -0.254571
    86  C   -0.049823
    87  C   -0.015137
    88  C   -0.090496
    89  C    0.045742
    90  C    0.114368
    91  C    0.062539
    92  C   -0.077908
    93  H    0.034903
    94  N   -0.423519
    95  C    0.162928
    96  C   -0.174634
    97  C   -0.007820
    98  C    0.152132
    99  C    0.099378
   100  C    0.015565
   101  O   -0.253187
   102  C    0.061198
   103  N   -0.350063
   104  C    0.037532
   105  C   -0.019836
   106  C   -0.034829
   107  C    0.088904
   108  C    0.073661
   109  C    0.034740
   110  C   -0.007678
   111  N   -0.324117
   112  C    0.078453
   113  C   -0.163136
   114  C    0.002269
   115  C    0.096213
   116  C    0.131489
   117  C    0.042408
   118  O   -0.187803
   119  C    0.000935
   120  C    0.211233
   121  O   -0.251036
   122  O   -0.305587
   123  C    0.152016
   124  H   -0.019649
   125  H   -0.015584
   126  H   -0.040451
   127  H   -0.000574
   128  H   -0.004331
   129  H    0.022526
   130  H    0.014419
   131  H    0.016325
   132  H    0.013891
   133  H    0.037673
   134  H    0.020848
   135  H    0.019569
   136  H    0.008764
   137  H    0.026136
   138  H    0.039775
   139  H    0.038250
   140  H    0.036385
   141  H    0.033888
   142  H    0.014388
   143  H    0.012434
   144  H    0.025129
   145  H    0.011649
   146  H    0.005683
   147  H    0.006256
   148  H    0.003661
   149  H    0.010925
   150  H    0.017931
   151  H    0.030106
   152  H    0.046024
   153  H    0.008503
   154  H    0.046995
   155  H    0.035108
   156  H    0.043982
   157  H    0.049494
   158  H    0.053565
 Sum of Mulliken charges =  -0.00000

 Dipole moment (field-independent basis, Debye):
    X=             -4.5843    Y=             -4.3897    Z=             -6.3310  Tot=              8.9648
 Quadrupole moment (field-independent basis, Debye-Ang):
   XX=           -522.6090   YY=           -564.1302   ZZ=           -446.0458
   XY=            -12.7949   XZ=             38.0973   YZ=            -27.6729

 Normal termination of Gaussian 16 at Sun Sep 12 18:41:22 2021.
