 Gaussian 16, Revision A.03,
 Gaussian 16:  ES64L-G16RevA.03 25-Dec-2016

 -----------------------------------
 #p cam-b3lyp/Def2SVP td=(nstates=5)
 -----------------------------------

 --------------------------------
 TDDFT excited states in gaussian
 --------------------------------
 Symbolic Z-matrix:
 Charge =  0 Multiplicity = 1

                         Standard orientation:
 ---------------------------------------------------------------------
 Center     Atomic      Atomic             Coordinates (Angstroms)
 Number     Number       Type             X           Y           Z
 ---------------------------------------------------------------------
      1         12           0       -7.788273   -0.899258   -0.000401
      2          6           0       -8.052164    2.659244    0.281793
      3          6           0       -8.637142   -0.552406   -3.287068
      4          6           0       -8.006039   -4.058697   -0.165162
      5          6           0       -8.081032   -1.048206    3.469148
      6          7           0       -8.258775    0.880073   -1.230545
      7          6           0       -8.266144    2.192125   -1.016921
      8          6           0       -8.447905    3.028980   -2.318462
      9          6           0       -9.174062    1.934428   -3.222149
     10          6           0       -8.631228    0.677777   -2.564818
     11          6           0      -10.693272    1.942735   -3.086372
     12          6           0       -7.079002    3.467783   -2.939177
     13          6           0       -7.167882    4.552474   -4.016628
     14          1           0       -6.107564    5.545535   -4.099726
     15          7           0       -7.772963   -2.104651   -1.565535
     16          6           0       -8.135120   -1.791131   -2.832750
     17          6           0       -7.947397   -3.024144   -3.627180
     18          6           0       -7.627949   -4.130061   -2.682197
     19          6           0       -7.817767   -3.472462   -1.414557
     20          6           0       -8.026665   -3.059525   -5.122578
     21          6           0       -7.227034   -5.556497   -2.888792
     22          8           0       -7.222972   -6.406967   -1.934194
     23          6           0       -6.920223   -5.958710   -4.273398
     24          7           0       -8.231228   -2.367887    1.415422
     25          6           0       -8.201323   -3.666229    1.095425
     26          6           0       -8.270610   -4.531771    2.318526
     27          6           0       -8.108931   -3.548100    3.565925
     28          6           0       -8.053591   -2.203138    2.800233
     29          6           0       -9.554324   -5.357123    2.482489
     30          6           0       -6.976931   -3.870345    4.573473
     31          6           0       -5.630713   -3.670480    3.914044
     32          7           0       -7.847686    0.532776    1.629566
     33          6           0       -7.997055    0.250276    2.995054
     34          6           0       -8.089441    1.544042    3.696269
     35          6           0       -8.003482    2.495277    2.681573
     36          6           0       -7.892494    1.837084    1.423497
     37          6           0       -8.291409    1.722154    5.093380
     38          6           0       -8.004351    3.914347    2.365191
     39          8           0       -7.978553    4.951048    3.030080
     40          6           0       -8.158495    4.076096    0.788516
     41          6           0       -7.123084    5.066475    0.329842
     42          8           0       -5.906553    4.795326    0.392266
     43          8           0       -7.727125    6.070234   -0.324486
     44          6           0       -6.753090    7.073164   -0.831970
     45          1           0       -9.121824   -0.588177   -4.264690
     46          1           0       -7.975993   -5.150272   -0.164889
     47          1           0       -8.088536   -1.014995    4.560153
     48          1           0       -9.086964    3.905452   -2.209722
     49          1           0       -8.852701    1.987127   -4.262183
     50          1           0      -11.018607    2.614476   -2.292116
     51          1           0      -10.970227    0.914553   -2.852640
     52          1           0      -11.166329    2.170645   -4.041909
     53          1           0       -6.674808    2.648459   -3.533648
     54          1           0       -6.387464    3.789652   -2.159753
     55          1           0       -8.145059    5.036242   -4.015519
     56          1           0       -7.105283    4.070590   -4.992369
     57          1           0       -8.438842   -2.134490   -5.523782
     58          1           0       -8.761552   -3.820458   -5.384555
     59          1           0       -7.066958   -3.302816   -5.578763
     60          1           0       -7.793559   -5.781688   -4.901487
     61          1           0       -6.566914   -6.987675   -4.216348
     62          1           0       -6.128848   -5.316244   -4.660584
     63          1           0       -7.459646   -5.258849    2.329518
     64          1           0       -9.009450   -3.514349    4.179603
     65          1           0       -9.377251   -6.429288    2.570872
     66          1           0      -10.206777   -5.136818    1.638059
     67          1           0      -10.181979   -5.063860    3.323597
     68          1           0       -7.030645   -4.913465    4.883251
     69          1           0       -7.013019   -3.255087    5.472588
     70          1           0       -5.473220   -4.613348    3.391523
     71          1           0       -4.858779   -3.507674    4.666920
     72          1           0       -5.669263   -2.883111    3.161016
     73          1           0       -7.608859    2.513992    5.401743
     74          1           0       -8.101528    0.799708    5.641687
     75          1           0       -9.342674    2.009217    5.110456
     76          1           0       -9.172696    4.430687    0.607450
     77          1           0       -7.053188    8.042325   -0.433346
     78          1           0       -6.726135    6.958157   -1.915691
     79          1           0       -5.736610    6.996991   -0.444276
     80         12           0        8.092010   -0.633611    0.149563
     81          6           0        7.211686    2.841154    0.323208
     82          6           0        7.852949   -0.370953   -3.242854
     83          6           0        8.421158   -3.784946   -0.018151
     84          6           0        7.152831   -0.895844    3.495434
     85          7           0        7.590401    1.068342   -1.171043
     86          6           0        7.334330    2.355962   -0.995497
     87          6           0        7.281668    3.185806   -2.306278
     88          6           0        6.924426    1.999351   -3.327832
     89          6           0        7.521483    0.824320   -2.556151
     90          6           0        5.430690    1.763111   -3.477159
     91          6           0        8.662811    3.845211   -2.652145
     92          6           0        8.608716    4.916131   -3.743913
     93          1           0        9.499535    6.067989   -3.633788
     94          7           0        8.608649   -1.791443   -1.377220
     95          6           0        8.461249   -1.519707   -2.690891
     96          6           0        8.976369   -2.697788   -3.405683
     97          6           0        9.287717   -3.754499   -2.405122
     98          6           0        8.753365   -3.145475   -1.203591
     99          6           0        9.204752   -2.713868   -4.889273
    100          6           0        9.944670   -5.097154   -2.514163
    101          8           0        9.897376   -5.949551   -1.558122
    102          6           0       10.564735   -5.420525   -3.807389
    103          7           0        7.628674   -2.171853    1.469197
    104          6           0        7.923387   -3.449713    1.172286
    105          6           0        7.752545   -4.343154    2.377671
    106          6           0        7.513678   -3.356476    3.613388
    107          6           0        7.498261   -2.007753    2.860997
    108          6           0        6.605336   -5.350415    2.301879
    109          6           0        8.463933   -3.512132    4.832170
    110          6           0        9.867203   -3.101211    4.448305
    111          7           0        7.496873    0.737101    1.710015
    112          6           0        7.121923    0.413359    3.032398
    113          6           0        6.690269    1.667971    3.682063
    114          6           0        6.823268    2.638430    2.677562
    115          6           0        7.284666    2.028046    1.480051
    116          6           0        6.203902    1.790359    5.014200
    117          6           0        6.668125    4.038601    2.354873
    118          8           0        6.392303    5.052278    2.995280
    119          6           0        6.792134    4.210911    0.779651
    120          6           0        7.728653    5.356662    0.510024
    121          8           0        8.929431    5.278867    0.824186
    122          8           0        7.105157    6.262264   -0.265552
    123          6           0        7.997481    7.412548   -0.569556
    124          1           0        7.584421   -0.455651   -4.296228
    125          1           0        8.621923   -4.858420    0.010821
    126          1           0        6.938644   -0.877191    4.566153
    127          1           0        6.508808    3.944606   -2.332787
    128          1           0        7.434626    2.129782   -4.278649
    129          1           0        4.857403    2.355480   -2.779604
    130          1           0        5.279689    0.707875   -3.290852
    131          1           0        5.123855    1.933185   -4.513139
    132          1           0        9.299844    3.102279   -3.149111
    133          1           0        9.123022    4.249715   -1.771690
    134          1           0        7.582229    5.242549   -3.950618
    135          1           0        8.942667    4.470429   -4.684043
    136          1           0        8.729251   -1.854987   -5.378784
    137          1           0        8.669248   -3.583265   -5.285819
    138          1           0       10.261320   -2.799597   -5.151895
    139          1           0        9.813141   -5.367870   -4.591474
    140          1           0       11.058985   -6.383040   -3.661958
    141          1           0       11.313772   -4.654608   -4.037482
    142          1           0        8.649023   -4.923177    2.559302
    143          1           0        6.511999   -3.484572    4.049360
    144          1           0        6.934547   -6.397929    2.437594
    145          1           0        6.106778   -5.228888    1.349406
    146          1           0        5.795478   -5.182113    3.009690
    147          1           0        8.519890   -4.559930    5.137375
    148          1           0        8.151209   -2.940335    5.699496
    149          1           0       10.267411   -4.002587    3.974549
    150          1           0       10.442383   -2.830979    5.331587
    151          1           0        9.851990   -2.309457    3.690325
    152          1           0        6.672638    2.668872    5.437301
    153          1           0        6.422849    0.900508    5.600720
    154          1           0        5.133525    1.901916    4.821553
    155          1           0        5.790832    4.400446    0.390996
    156          1           0        7.471391    8.317863   -0.251246
    157          1           0        8.242942    7.324257   -1.644593
    158          1           0        8.919387    7.494388   -0.005781
 ---------------------------------------------------------------------

 SCF Done:  E(RCAM-B3LYP) =  -4069.81161216     A.U. after   19 cycles

 Excitation energies and oscillator strengths:

 Excited State   1:      Singlet-A      1.6698 eV  742.52 nm  f=0.0273  <S**2>=0.000
     309 -> 315       -0.10488
     310 -> 316        0.13687
     311 -> 313       -0.41601
     312 -> 314        0.54591
 This state for optimization and/or second-order correction.
 Total Energy, E(TD-HF/TD-DFT) =  -4069.75024912
 Copying the excited state density for this state as the 1-particle RhoCI density.

 Excited State   2:      Singlet-A      1.6854 eV  735.63 nm  f=0.7302  <S**2>=0.000
     309 -> 315        0.14074
     310 -> 316        0.10667
     311 -> 313        0.54508
     312 -> 314        0.41548

 Excited State   3:      Singlet-A      2.1855 eV  567.31 nm  f=0.0548  <S**2>=0.000
     309 -> 313        0.14892
     310 -> 314        0.62522
     312 -> 316       -0.26534

 Excited State   4:      Singlet-A      2.1928 eV  565.42 nm  f=0.1382  <S**2>=0.000
     309 -> 313        0.62326
     310 -> 314       -0.14781
     311 -> 315       -0.27099

 Excited State   5:      Singlet-A      2.7704 eV  447.53 nm  f=0.0000  <S**2>=0.000
     312 -> 313        0.70710

 The electronic state is 1-A.
 Alpha  occ. eigenvalues --  -46.87804 -46.87583 -19.26268 -19.26261 -19.19075
 Alpha  occ. eigenvalues --  -19.19003 -19.18829 -19.18652 -19.18161 -19.17952
 Alpha  occ. eigenvalues --  -14.42458 -14.42422 -14.41457 -14.41282 -14.39411
 Alpha  occ. eigenvalues --  -14.39276 -14.38591 -14.38519 -10.39065 -10.39003
 Alpha  occ. eigenvalues --  -10.35464 -10.35331 -10.34381 -10.34129 -10.31674
 Alpha  occ. eigenvalues --  -10.31658 -10.31410 -10.31228 -10.30951 -10.30919
 Alpha  occ. eigenvalues --  -10.30574 -10.30512 -10.30317 -10.30279 -10.30217
 Alpha  occ. eigenvalues --  -10.30070 -10.29925 -10.29814 -10.29636 -10.29363
 Alpha  occ. eigenvalues --  -10.29322 -10.29263 -10.28761 -10.28647 -10.28601
 Alpha  occ. eigenvalues --  -10.28562 -10.28371 -10.28326 -10.28128 -10.28069
 Alpha  occ. eigenvalues --  -10.27919 -10.27797 -10.27736 -10.27595 -10.27593
 Alpha  occ. eigenvalues --  -10.27509 -10.27503 -10.27457 -10.27448 -10.27413
 Alpha  occ. eigenvalues --  -10.27409 -10.27404 -10.27391 -10.27305 -10.27152
 Alpha  occ. eigenvalues --  -10.26953 -10.26723 -10.26630 -10.26435 -10.26368
 Alpha  occ. eigenvalues --  -10.26244 -10.26193 -10.26074 -10.26026 -10.25949
 Alpha  occ. eigenvalues --  -10.25857 -10.25832 -10.25743 -10.25442 -10.25326
 Alpha  occ. eigenvalues --  -10.24835 -10.24794 -10.24788 -10.24700 -10.24671
 Alpha  occ. eigenvalues --  -10.24613  -3.16547  -3.16333  -1.91429  -1.91215
 Alpha  occ. eigenvalues --   -1.91015  -1.90857  -1.90804  -1.90641  -1.16616
 Alpha  occ. eigenvalues --   -1.16555  -1.08617  -1.08557  -1.07231  -1.06905
 Alpha  occ. eigenvalues --   -1.06858  -1.06626  -1.04589  -1.04418  -1.03768
 Alpha  occ. eigenvalues --   -1.03586  -1.03240  -1.02961  -1.02417  -1.02033
 Alpha  occ. eigenvalues --   -0.91974  -0.91903  -0.89527  -0.89420  -0.89199
 Alpha  occ. eigenvalues --   -0.89080  -0.88294  -0.88148  -0.87870  -0.87704
 Alpha  occ. eigenvalues --   -0.87682  -0.87609  -0.87287  -0.87054  -0.84993
 Alpha  occ. eigenvalues --   -0.84929  -0.83942  -0.83804  -0.82983  -0.82870
 Alpha  occ. eigenvalues --   -0.82657  -0.82583  -0.81582  -0.81514  -0.80600
 Alpha  occ. eigenvalues --   -0.80365  -0.78806  -0.78562  -0.77227  -0.77072
 Alpha  occ. eigenvalues --   -0.76940  -0.76824  -0.75927  -0.75761  -0.74903
 Alpha  occ. eigenvalues --   -0.74729  -0.72779  -0.72619  -0.71678  -0.71504
 Alpha  occ. eigenvalues --   -0.69916  -0.69689  -0.68883  -0.68756  -0.67647
 Alpha  occ. eigenvalues --   -0.67525  -0.67234  -0.67135  -0.65295  -0.65197
 Alpha  occ. eigenvalues --   -0.64857  -0.64693  -0.64625  -0.64578  -0.64276
 Alpha  occ. eigenvalues --   -0.64130  -0.62291  -0.62196  -0.60453  -0.60270
 Alpha  occ. eigenvalues --   -0.59813  -0.59722  -0.58992  -0.58915  -0.58507
 Alpha  occ. eigenvalues --   -0.58346  -0.57579  -0.57464  -0.57313  -0.57160
 Alpha  occ. eigenvalues --   -0.56315  -0.56126  -0.55973  -0.55808  -0.55528
 Alpha  occ. eigenvalues --   -0.55379  -0.55340  -0.55170  -0.54521  -0.54411
 Alpha  occ. eigenvalues --   -0.53906  -0.53842  -0.53306  -0.53231  -0.53153
 Alpha  occ. eigenvalues --   -0.53068  -0.52916  -0.52827  -0.52771  -0.52607
 Alpha  occ. eigenvalues --   -0.52446  -0.52333  -0.51910  -0.51787  -0.51627
 Alpha  occ. eigenvalues --   -0.51590  -0.51198  -0.51120  -0.50592  -0.50417
 Alpha  occ. eigenvalues --   -0.50041  -0.49931  -0.49911  -0.49797  -0.49524
 Alpha  occ. eigenvalues --   -0.49419  -0.49218  -0.49125  -0.49103  -0.49024
 Alpha  occ. eigenvalues --   -0.48593  -0.48478  -0.48470  -0.48449  -0.48300
 Alpha  occ. eigenvalues --   -0.48269  -0.47703  -0.47523  -0.47304  -0.47048
 Alpha  occ. eigenvalues --   -0.46804  -0.46635  -0.46566  -0.46485  -0.46364
 Alpha  occ. eigenvalues --   -0.46195  -0.46163  -0.46004  -0.45817  -0.45735
 Alpha  occ. eigenvalues --   -0.45208  -0.45135  -0.44576  -0.44520  -0.44435
 Alpha  occ. eigenvalues --   -0.44403  -0.44152  -0.44098  -0.44051  -0.44022
 Alpha  occ. eigenvalues --   -0.44007  -0.43865  -0.43491  -0.43473  -0.43395
 Alpha  occ. eigenvalues --   -0.43310  -0.43031  -0.42850  -0.42817  -0.42697
 Alpha  occ. eigenvalues --   -0.42652  -0.42484  -0.42016  -0.41893  -0.41707
 Alpha  occ. eigenvalues --   -0.41586  -0.41545  -0.41389  -0.41148  -0.40914
 Alpha  occ. eigenvalues --   -0.40881  -0.40839  -0.40659  -0.40632  -0.40579
 Alpha  occ. eigenvalues --   -0.40421  -0.40251  -0.40164  -0.39451  -0.39358
 Alpha  occ. eigenvalues --   -0.38478  -0.38280  -0.37762  -0.37587  -0.37328
 Alpha  occ. eigenvalues --   -0.37273  -0.37193  -0.37126  -0.36705  -0.36688
 Alpha  occ. eigenvalues --   -0.36192  -0.36141  -0.34292  -0.34175  -0.33777
 Alpha  occ. eigenvalues --   -0.33758  -0.33191  -0.33098  -0.31359  -0.31210
 Alpha  occ. eigenvalues --   -0.31042  -0.30896  -0.30020  -0.29856  -0.29457
 Alpha  occ. eigenvalues --   -0.29324  -0.29252  -0.29126  -0.24087  -0.23957
 Alpha  occ. eigenvalues --   -0.21134  -0.21040
 Alpha virt. eigenvalues --   -0.08781  -0.08714  -0.01758  -0.01609  -0.00068
 Alpha virt. eigenvalues --    0.00043   0.02201   0.02296   0.03111   0.03298
 Alpha virt. eigenvalues --    0.04708   0.04803   0.05111   0.05253   0.06163

 Mulliken charges:
               1
     1  Mg   0.838687
     2  C   -0.002933
     3  C   -0.094271
     4  C   -0.045897
     5  C   -0.063941
     6  N   -0.256763
     7  C   -0.052475
     8  C   -0.013984
     9  C   -0.086969
    10  C    0.046255
    11  C    0.104818
    12  C    0.053524
    13  C   -0.071693
    14  H    0.035995
    15  N   -0.433121
    16  C    0.168328
    17  C   -0.177312
    18  C   -0.004086
    19  C    0.148652
    20  C    0.110224
    21  C    0.012197
    22  O   -0.249637
    23  C    0.062538
    24  N   -0.341163
    25  C    0.041219
    26  C   -0.028179
    27  C   -0.023978
    28  C    0.074868
    29  C    0.076162
    30  C    0.035109
    31  C   -0.004485
    32  N   -0.310531
    33  C    0.080493
    34  C   -0.169519
    35  C    0.008502
    36  C    0.083042
    37  C    0.127249
    38  C    0.046332
    39  O   -0.187985
    40  C   -0.005416
    41  C    0.212960
    42  O   -0.256924
    43  O   -0.304868
    44  C    0.157563
    45  H   -0.017710
    46  H   -0.016874
    47  H   -0.041379
    48  H    0.001036
    49  H   -0.004223
    50  H    0.025546
    51  H    0.016465
    52  H    0.016589
    53  H    0.010928
    54  H    0.044242
    55  H    0.017989
    56  H    0.017682
    57  H    0.005766
    58  H    0.026799
    59  H    0.039195
    60  H    0.037339
    61  H    0.035606
    62  H    0.031237
    63  H    0.016490
    64  H    0.009529
    65  H    0.023192
    66  H    0.012552
    67  H    0.004789
    68  H    0.006347
    69  H    0.004838
    70  H    0.008688
    71  H    0.018079
    72  H    0.029012
    73  H    0.047952
    74  H    0.009143
    75  H    0.046065
    76  H    0.035172
    77  H    0.043155
    78  H    0.046135
    79  H    0.054039
    80  Mg   0.837921
    81  C   -0.016747
    82  C   -0.087863
    83  C   -0.045572
    84  C   -0.064759
    85  N   -0.254531
    86  C   -0.049693
    87  C   -0.015124
    88  C   -0.090541
    89  C    0.045762
    90  C    0.114379
    91  C    0.062574
    92  C   -0.077755
    93  H    0.034735
    94  N   -0.423458
    95  C    0.162819
    96  C   -0.174839
    97  C   -0.007946
    98  C    0.152052
    99  C    0.099481
   100  C    0.015434
   101  O   -0.253327
   102  C    0.061257
   103  N   -0.350027
   104  C    0.037492
   105  C   -0.019812
   106  C   -0.034859
   107  C    0.089012
   108  C    0.073670
   109  C    0.034741
   110  C   -0.007641
   111  N   -0.324218
   112  C    0.078585
   113  C   -0.162881
   114  C    0.002581
   115  C    0.096184
   116  C    0.131411
   117  C    0.042783
   118  O   -0.187247
   119  C    0.000762
   120  C    0.211241
   121  O   -0.251220
   122  O   -0.305446
   123  C    0.152082
   124  H   -0.020012
   125  H   -0.015714
   126  H   -0.040348
   127  H   -0.000404
   128  H   -0.004648
   129  H    0.023103
   130  H    0.014416
   131  H    0.015771
   132  H    0.013789
   133  H    0.037704
   134  H    0.020790
   135  H    0.019344
   136  H    0.008524
   137  H    0.025827
   138  H    0.039554
   139  H    0.038088
   140  H    0.036205
   141  H    0.033806
   142  H    0.014238
   143  H    0.012563
   144  H    0.024956
   145  H    0.011723
   146  H    0.005753
   147  H    0.006139
   148  H    0.003696
   149  H    0.010835
   150  H    0.017842
   151  H    0.030137
   152  H    0.046046
   153  H    0.008337
   154  H    0.047919
   155  H    0.035793
   156  H    0.044076
   157  H    0.049240
   158  H    0.053458
 Sum of Mulliken charges =  -0.00000

 Dipole moment (field-independent basis, Debye):
    X=             -2.9568    Y=             -2.4532    Z=             -7.9824  Tot=              8.8589
 Quadrupole moment (field-independent basis, Debye-Ang):
   XX=           -502.1035   YY=           -549.5542   ZZ=           -449.9199
   XY=              2.4481   XZ=             -4.0828   YZ=            -50.6743

 Normal termination of Gaussian 16 at Sun Sep 12 05:43:46 2021.
