 Gaussian 16, Revision A.03,
 Gaussian 16:  ES64L-G16RevA.03 25-Dec-2016

 -----------------------------------
 #p cam-b3lyp/Def2SVP td=(nstates=5)
 -----------------------------------

 --------------------------------
 TDDFT excited states in gaussian
 --------------------------------
 Symbolic Z-matrix:
 Charge =  0 Multiplicity = 1

                         Standard orientation:
 ---------------------------------------------------------------------
 Center     Atomic      Atomic             Coordinates (Angstroms)
 Number     Number       Type             X           Y           Z
 ---------------------------------------------------------------------
      1         12           0       15.689614    0.681595    0.193758
      2          6           0       15.978590   -2.738313   -0.822577
      3          6           0       16.629326    1.546150   -2.970503
      4          6           0       15.882630    3.686450    1.188850
      5          6           0       15.887996   -0.434879    3.489178
      6          7           0       16.209234   -0.532801   -1.582723
      7          6           0       16.222955   -1.833289   -1.857884
      8          6           0       16.447190   -2.142882   -3.368263
      9          6           0       17.187178   -0.796366   -3.794071
     10          6           0       16.615399    0.138020   -2.742447
     11          6           0       18.702220   -0.854904   -3.627569
     12          6           0       15.099492   -2.325932   -4.144106
     13          6           0       15.227163   -2.947534   -5.537901
     14          1           0       14.178634   -3.842120   -6.004432
     15          7           0       15.705120    2.371524   -0.829348
     16          6           0       16.103943    2.537212   -2.113394
     17          6           0       15.926218    3.974303   -2.413170
     18          6           0       15.571421    4.663866   -1.141669
     19          6           0       15.733278    3.592053   -0.192775
     20          6           0       16.045164    4.548119   -3.791697
     21          6           0       15.163072    6.068884   -0.829728
     22          8           0       15.125628    6.516471    0.367284
     23          6           0       14.889752    6.945043   -1.983281
     24          7           0       16.080972    1.538152    2.056762
     25          6           0       16.047698    2.864360    2.227198
     26          6           0       16.076247    3.228793    3.681953
     27          6           0       15.890289    1.860699    4.484132
     28          6           0       15.867847    0.883839    3.282670
     29          6           0       17.347461    3.937529    4.169518
     30          6           0       14.728803    1.797922    5.507571
     31          6           0       13.402618    1.851610    4.782693
     32          7           0       15.718543   -1.243131    1.196575
     33          6           0       15.828694   -1.473852    2.575454
     34          6           0       15.914176   -2.933758    2.763697
     35          6           0       15.864171   -3.453448    1.471696
     36          6           0       15.780852   -2.384628    0.534160
     37          6           0       16.080297   -3.605398    4.006974
     38          6           0       15.886568   -4.661985    0.663739
     39          8           0       15.852520   -5.868963    0.907743
     40          6           0       16.084351   -4.242634   -0.859696
     41          6           0       15.070748   -4.998893   -1.674552
     42          8           0       13.850538   -4.767340   -1.552743
     43          8           0       15.701301   -5.698665   -2.630200
     44          6           0       14.750472   -6.449038   -3.493344
     45          1           0       17.139659    1.932589   -3.854905
     46          1           0       15.842544    4.704044    1.582975
     47          1           0       15.866594   -0.860489    4.494091
     48          1           0       17.091147   -3.000044   -3.565788
     49          1           0       16.894274   -0.468938   -4.791428
     50          1           0       19.012342   -1.768817   -3.121103
     51          1           0       18.963345    0.018803   -3.030123
     52          1           0       19.202766   -0.722265   -4.587067
     53          1           0       14.703835   -1.346608   -4.413255
     54          1           0       14.390326   -2.907175   -3.553711
     55          1           0       16.208371   -3.400026   -5.684159
     56          1           0       15.186279   -2.145265   -6.274714
     57          1           0       16.476430    3.830391   -4.488419
     58          1           0       16.779768    5.351476   -3.739887
     59          1           0       15.095817    4.941008   -4.155990
     60          1           0       15.781183    7.006236   -2.607905
     61          1           0       14.525589    7.884087   -1.568030
     62          1           0       14.114973    6.487010   -2.598807
     63          1           0       15.258623    3.903558    3.932173
     64          1           0       16.774327    1.606257    5.069289
     65          1           0       17.158227    4.905319    4.634575
     66          1           0       18.024288    4.036869    3.321385
     67          1           0       17.955045    3.359183    4.865057
     68          1           0       14.764602    2.658295    6.174971
     69          1           0       14.746466    0.899058    6.123997
     70          1           0       13.250500    2.919813    4.632247
     71          1           0       12.612335    1.428349    5.403591
     72          1           0       13.468558    1.389901    3.797319
     73          1           0       15.397053   -4.454404    3.988697
     74          1           0       15.867325   -2.943540    4.846134
     75          1           0       17.133326   -3.880361    3.948822
     76          1           0       17.106255   -4.508840   -1.127964
     77          1           0       15.048696   -7.497096   -3.463832
     78          1           0       14.751484   -5.949783   -4.462441
     79          1           0       13.723320   -6.517136   -3.133261
     80         12           0      -16.036271    0.121328   -0.603021
     81          6           0      -14.954367   -0.901948    2.662179
     82          6           0      -15.658495    3.345029    0.445634
     83          6           0      -17.409365    1.056869   -3.306123
     84          6           0      -17.395160   -3.063400   -0.998732
     85          7           0      -15.383512    0.982654    1.326828
     86          6           0      -14.938207    0.496012    2.475398
     87          6           0      -14.372841    1.563549    3.450223
     88          6           0      -15.169025    2.842560    2.894240
     89          6           0      -15.391444    2.384992    1.454154
     90          6           0      -16.526673    3.037478    3.548562
     91          6           0      -12.821136    1.744629    3.303780
     92          6           0      -12.157505    2.540813    4.429580
     93          1           0      -10.814625    2.156715    4.855723
     94          7           0      -16.019613    1.887682   -1.507618
     95          6           0      -15.829146    3.094110   -0.933590
     96          6           0      -15.929538    4.078128   -2.022534
     97          6           0      -16.358271    3.368211   -3.258217
     98          6           0      -16.638621    2.051448   -2.721917
     99          6           0      -15.554760    5.521685   -1.851906
    100          6           0      -16.505416    3.805904   -4.684048
    101          8           0      -17.120614    3.087310   -5.548912
    102          6           0      -15.989935    5.142117   -5.016169
    103          7           0      -17.410727   -0.784093   -1.873217
    104          6           0      -17.802784   -0.181960   -3.009730
    105          6           0      -18.575528   -1.132897   -3.892326
    106          6           0      -18.412488   -2.573721   -3.217752
    107          6           0      -17.613071   -2.174374   -1.958057
    108          6           0      -20.061048   -0.818804   -4.068312
    109          6           0      -17.856367   -3.712449   -4.115920
    110          6           0      -16.412942   -3.433612   -4.468258
    111          7           0      -16.010203   -1.730171    0.510240
    112          6           0      -16.667107   -2.935023    0.177208
    113          6           0      -16.447770   -3.874183    1.296273
    114          6           0      -15.691901   -3.137058    2.220289
    115          6           0      -15.473915   -1.824230    1.721848
    116          6           0      -16.962787   -5.198245    1.384188
    117          6           0      -15.037883   -3.167657    3.508706
    118          8           0      -14.814494   -4.038079    4.349063
    119          6           0      -14.638842   -1.681883    3.908272
    120          6           0      -13.211770   -1.696047    4.383434
    121          8           0      -12.287417   -1.975439    3.599770
    122          8           0      -13.153839   -1.168898    5.620018
    123          6           0      -11.756951   -1.151065    6.130124
    124          1           0      -15.792149    4.385698    0.742307
    125          1           0      -17.813955    1.292513   -4.293169
    126          1           0      -17.703272   -4.107221   -1.089225
    127          1           0      -14.614797    1.399583    4.493468
    128          1           0      -14.549331    3.735153    2.919315
    129          1           0      -16.783296    2.213234    4.197331
    130          1           0      -17.236728    3.114312    2.735568
    131          1           0      -16.559618    3.998742    4.069335
    132          1           0      -12.616873    2.411569    2.456311
    133          1           0      -12.334954    0.794319    3.198083
    134          1           0      -12.817908    2.656074    5.297643
    135          1           0      -11.992312    3.563136    4.080885
    136          1           0      -15.434572    5.783668   -0.793452
    137          1           0      -16.413088    6.116184   -2.183103
    138          1           0      -14.680831    5.802732   -2.443462
    139          1           0      -16.490411    5.885594   -4.400361
    140          1           0      -16.104836    5.239205   -6.097483
    141          1           0      -14.926455    5.181627   -4.755275
    142          1           0      -18.155264   -1.162448   -4.890125
    143          1           0      -19.376196   -2.970236   -2.865774
    144          1           0      -20.358040   -0.692336   -5.126553
    145          1           0      -20.291188    0.072391   -3.499673
    146          1           0      -20.742041   -1.550432   -3.636852
    147          1           0      -18.404433   -3.751654   -5.060502
    148          1           0      -17.927502   -4.694924   -3.661309
    149          1           0      -16.494128   -2.751619   -5.319954
    150          1           0      -15.901956   -4.353193   -4.746288
    151          1           0      -15.907896   -2.892528   -3.659674
    152          1           0      -16.159002   -5.821058    1.753692
    153          1           0      -17.326928   -5.548023    0.420432
    154          1           0      -17.775697   -5.044266    2.098857
    155          1           0      -15.327159   -1.356592    4.689275
    156          1           0      -11.759049   -1.683957    7.086006
    157          1           0      -11.458984   -0.085868    6.147902
    158          1           0      -11.013950   -1.712987    5.576354
 ---------------------------------------------------------------------

 SCF Done:  E(RCAM-B3LYP) =  -4069.81175162     A.U. after   19 cycles

 Excitation energies and oscillator strengths:

 Excited State   1:      Singlet-A      1.6753 eV  740.06 nm  f=0.2113  <S**2>=0.000
     310 -> 316        0.16845
     311 -> 313        0.66605
     312 -> 314       -0.16445
     310 <- 316        0.10155
 This state for optimization and/or second-order correction.
 Total Energy, E(TD-HF/TD-DFT) =  -4069.75018460
 Copying the excited state density for this state as the 1-particle RhoCI density.

 Excited State   2:      Singlet-A      1.6801 eV  737.95 nm  f=0.5661  <S**2>=0.000
     309 -> 315        0.17046
     311 -> 313        0.16440
     312 -> 314        0.66568
     309 <- 315        0.10205

 Excited State   3:      Singlet-A      2.1861 eV  567.16 nm  f=0.0970  <S**2>=0.000
     310 -> 313        0.64217
     311 -> 316       -0.27296

 Excited State   4:      Singlet-A      2.1925 eV  565.50 nm  f=0.1034  <S**2>=0.000
     309 -> 314        0.64040
     312 -> 315       -0.27813

 Excited State   5:      Singlet-A      3.0616 eV  404.96 nm  f=0.0000  <S**2>=0.000
     312 -> 313        0.70711

 The electronic state is 1-A.
 Alpha  occ. eigenvalues --  -46.87768 -46.87660 -19.26339 -19.26247 -19.19151
 Alpha  occ. eigenvalues --  -19.18983 -19.18790 -19.18716 -19.18138 -19.18048
 Alpha  occ. eigenvalues --  -14.42497 -14.42421 -14.41421 -14.41360 -14.39374
 Alpha  occ. eigenvalues --  -14.39352 -14.38599 -14.38557 -10.39082 -10.39043
 Alpha  occ. eigenvalues --  -10.35424 -10.35393 -10.34358 -10.34225 -10.31742
 Alpha  occ. eigenvalues --  -10.31639 -10.31375 -10.31307 -10.31022 -10.30879
 Alpha  occ. eigenvalues --  -10.30540 -10.30479 -10.30397 -10.30360 -10.30180
 Alpha  occ. eigenvalues --  -10.30142 -10.29895 -10.29893 -10.29602 -10.29437
 Alpha  occ. eigenvalues --  -10.29400 -10.29226 -10.28717 -10.28715 -10.28644
 Alpha  occ. eigenvalues --  -10.28502 -10.28404 -10.28336 -10.28138 -10.28086
 Alpha  occ. eigenvalues --  -10.28000 -10.27764 -10.27698 -10.27669 -10.27556
 Alpha  occ. eigenvalues --  -10.27520 -10.27482 -10.27476 -10.27468 -10.27465
 Alpha  occ. eigenvalues --  -10.27455 -10.27425 -10.27378 -10.27374 -10.27126
 Alpha  occ. eigenvalues --  -10.27046 -10.26685 -10.26670 -10.26418 -10.26387
 Alpha  occ. eigenvalues --  -10.26205 -10.26159 -10.26139 -10.26024 -10.25991
 Alpha  occ. eigenvalues --  -10.25935 -10.25850 -10.25813 -10.25413 -10.25402
 Alpha  occ. eigenvalues --  -10.24872 -10.24803 -10.24760 -10.24731 -10.24690
 Alpha  occ. eigenvalues --  -10.24661  -3.16510  -3.16410  -1.91392  -1.91292
 Alpha  occ. eigenvalues --   -1.90979  -1.90881  -1.90821  -1.90718  -1.16633
 Alpha  occ. eigenvalues --   -1.16596  -1.08654  -1.08595  -1.07191  -1.06968
 Alpha  occ. eigenvalues --   -1.06936  -1.06606  -1.04552  -1.04494  -1.03732
 Alpha  occ. eigenvalues --   -1.03663  -1.03205  -1.03039  -1.02382  -1.02111
 Alpha  occ. eigenvalues --   -0.91985  -0.91942  -0.89495  -0.89492  -0.89157
 Alpha  occ. eigenvalues --   -0.89148  -0.88260  -0.88221  -0.87841  -0.87793
 Alpha  occ. eigenvalues --   -0.87683  -0.87644  -0.87247  -0.87121  -0.84997
 Alpha  occ. eigenvalues --   -0.84951  -0.83909  -0.83877  -0.82942  -0.82933
 Alpha  occ. eigenvalues --   -0.82651  -0.82619  -0.81591  -0.81553  -0.80566
 Alpha  occ. eigenvalues --   -0.80440  -0.78769  -0.78636  -0.77189  -0.77143
 Alpha  occ. eigenvalues --   -0.76903  -0.76895  -0.75892  -0.75835  -0.74871
 Alpha  occ. eigenvalues --   -0.74803  -0.72745  -0.72699  -0.71643  -0.71580
 Alpha  occ. eigenvalues --   -0.69881  -0.69759  -0.68843  -0.68825  -0.67612
 Alpha  occ. eigenvalues --   -0.67600  -0.67197  -0.67189  -0.65268  -0.65255
 Alpha  occ. eigenvalues --   -0.64823  -0.64769  -0.64651  -0.64590  -0.64242
 Alpha  occ. eigenvalues --   -0.64204  -0.62273  -0.62264  -0.60415  -0.60340
 Alpha  occ. eigenvalues --   -0.59794  -0.59774  -0.58992  -0.58958  -0.58474
 Alpha  occ. eigenvalues --   -0.58424  -0.57552  -0.57550  -0.57280  -0.57236
 Alpha  occ. eigenvalues --   -0.56281  -0.56203  -0.55944  -0.55880  -0.55492
 Alpha  occ. eigenvalues --   -0.55450  -0.55310  -0.55246  -0.54493  -0.54485
 Alpha  occ. eigenvalues --   -0.53909  -0.53864  -0.53270  -0.53227  -0.53192
 Alpha  occ. eigenvalues --   -0.53139  -0.52899  -0.52884  -0.52728  -0.52668
 Alpha  occ. eigenvalues --   -0.52411  -0.52402  -0.51885  -0.51884  -0.51656
 Alpha  occ. eigenvalues --   -0.51586  -0.51199  -0.51166  -0.50547  -0.50476
 Alpha  occ. eigenvalues --   -0.50005  -0.49979  -0.49891  -0.49868  -0.49487
 Alpha  occ. eigenvalues --   -0.49485  -0.49200  -0.49185  -0.49102  -0.49065
 Alpha  occ. eigenvalues --   -0.48562  -0.48555  -0.48435  -0.48417  -0.48376
 Alpha  occ. eigenvalues --   -0.48338  -0.47666  -0.47593  -0.47269  -0.47118
 Alpha  occ. eigenvalues --   -0.46768  -0.46708  -0.46551  -0.46524  -0.46330
 Alpha  occ. eigenvalues --   -0.46270  -0.46133  -0.46084  -0.45819  -0.45790
 Alpha  occ. eigenvalues --   -0.45210  -0.45175  -0.44547  -0.44511  -0.44479
 Alpha  occ. eigenvalues --   -0.44474  -0.44126  -0.44116  -0.44077  -0.44058
 Alpha  occ. eigenvalues --   -0.43989  -0.43938  -0.43548  -0.43463  -0.43384
 Alpha  occ. eigenvalues --   -0.43356  -0.42998  -0.42925  -0.42898  -0.42667
 Alpha  occ. eigenvalues --   -0.42624  -0.42554  -0.41980  -0.41963  -0.41674
 Alpha  occ. eigenvalues --   -0.41668  -0.41503  -0.41456  -0.41112  -0.40989
 Alpha  occ. eigenvalues --   -0.40840  -0.40796  -0.40721  -0.40697  -0.40544
 Alpha  occ. eigenvalues --   -0.40494  -0.40222  -0.40202  -0.39427  -0.39415
 Alpha  occ. eigenvalues --   -0.38442  -0.38351  -0.37716  -0.37649  -0.37293
 Alpha  occ. eigenvalues --   -0.37266  -0.37232  -0.37197  -0.36764  -0.36680
 Alpha  occ. eigenvalues --   -0.36215  -0.36161  -0.34257  -0.34253  -0.33854
 Alpha  occ. eigenvalues --   -0.33735  -0.33175  -0.33157  -0.31320  -0.31275
 Alpha  occ. eigenvalues --   -0.31007  -0.30972  -0.29997  -0.29952  -0.29421
 Alpha  occ. eigenvalues --   -0.29327  -0.29292  -0.29211  -0.24051  -0.24036
 Alpha  occ. eigenvalues --   -0.21117  -0.21099
 Alpha virt. eigenvalues --   -0.08792  -0.08746  -0.01721  -0.01684  -0.00030
 Alpha virt. eigenvalues --   -0.00029   0.02208   0.02230   0.03155   0.03229
 Alpha virt. eigenvalues --    0.04732   0.04749   0.05134   0.05173   0.06189

 Mulliken charges:
               1
     1  Mg   0.838820
     2  C   -0.002921
     3  C   -0.094088
     4  C   -0.045885
     5  C   -0.063967
     6  N   -0.256775
     7  C   -0.052459
     8  C   -0.014025
     9  C   -0.086999
    10  C    0.046320
    11  C    0.104816
    12  C    0.053467
    13  C   -0.071841
    14  H    0.036245
    15  N   -0.433132
    16  C    0.168392
    17  C   -0.177155
    18  C   -0.004046
    19  C    0.148721
    20  C    0.110182
    21  C    0.012273
    22  O   -0.249690
    23  C    0.062481
    24  N   -0.341152
    25  C    0.041230
    26  C   -0.028157
    27  C   -0.023988
    28  C    0.074843
    29  C    0.076193
    30  C    0.035138
    31  C   -0.004494
    32  N   -0.310491
    33  C    0.080445
    34  C   -0.169689
    35  C    0.008390
    36  C    0.082982
    37  C    0.127301
    38  C    0.046134
    39  O   -0.188377
    40  C   -0.005331
    41  C    0.212879
    42  O   -0.257039
    43  O   -0.304825
    44  C    0.157671
    45  H   -0.017622
    46  H   -0.016894
    47  H   -0.041500
    48  H    0.000944
    49  H   -0.004018
    50  H    0.025468
    51  H    0.016413
    52  H    0.016644
    53  H    0.011218
    54  H    0.044177
    55  H    0.017844
    56  H    0.017944
    57  H    0.005883
    58  H    0.026774
    59  H    0.039551
    60  H    0.037329
    61  H    0.035578
    62  H    0.031525
    63  H    0.016519
    64  H    0.009437
    65  H    0.023151
    66  H    0.012535
    67  H    0.004726
    68  H    0.006304
    69  H    0.004743
    70  H    0.008735
    71  H    0.018167
    72  H    0.029030
    73  H    0.047634
    74  H    0.009105
    75  H    0.045989
    76  H    0.035138
    77  H    0.042962
    78  H    0.046401
    79  H    0.053769
    80  Mg   0.837849
    81  C   -0.016807
    82  C   -0.087778
    83  C   -0.045517
    84  C   -0.064882
    85  N   -0.254565
    86  C   -0.049830
    87  C   -0.015102
    88  C   -0.090504
    89  C    0.045762
    90  C    0.114379
    91  C    0.062528
    92  C   -0.077959
    93  H    0.035060
    94  N   -0.423471
    95  C    0.162923
    96  C   -0.174638
    97  C   -0.007810
    98  C    0.152106
    99  C    0.099368
   100  C    0.015568
   101  O   -0.253208
   102  C    0.061203
   103  N   -0.350069
   104  C    0.037531
   105  C   -0.019841
   106  C   -0.034825
   107  C    0.088910
   108  C    0.073670
   109  C    0.034753
   110  C   -0.007684
   111  N   -0.324111
   112  C    0.078455
   113  C   -0.163110
   114  C    0.002254
   115  C    0.096230
   116  C    0.131476
   117  C    0.042406
   118  O   -0.187796
   119  C    0.000921
   120  C    0.211270
   121  O   -0.250947
   122  O   -0.305666
   123  C    0.151987
   124  H   -0.019663
   125  H   -0.015596
   126  H   -0.040453
   127  H   -0.000631
   128  H   -0.004293
   129  H    0.022452
   130  H    0.014390
   131  H    0.016284
   132  H    0.013926
   133  H    0.037727
   134  H    0.020768
   135  H    0.019592
   136  H    0.008777
   137  H    0.026116
   138  H    0.039810
   139  H    0.038242
   140  H    0.036372
   141  H    0.033917
   142  H    0.014400
   143  H    0.012400
   144  H    0.025122
   145  H    0.011621
   146  H    0.005651
   147  H    0.006239
   148  H    0.003660
   149  H    0.010918
   150  H    0.017970
   151  H    0.030134
   152  H    0.046073
   153  H    0.008514
   154  H    0.046921
   155  H    0.035011
   156  H    0.043954
   157  H    0.049502
   158  H    0.053681
 Sum of Mulliken charges =  -0.00000

 Dipole moment (field-independent basis, Debye):
    X=              1.1337    Y=              6.9404    Z=             -2.9102  Tot=              7.6107
 Quadrupole moment (field-independent basis, Debye-Ang):
   XX=           -418.5187   YY=           -525.4745   ZZ=           -477.6465
   XY=            -10.6022   XZ=            -55.8965   YZ=             29.8744

 Normal termination of Gaussian 16 at Sun Sep 12 14:00:33 2021.
