 Gaussian 16, Revision A.03,
 Gaussian 16:  ES64L-G16RevA.03 25-Dec-2016

 -----------------------------------
 #p cam-b3lyp/Def2SVP td=(nstates=5)
 -----------------------------------

 --------------------------------
 TDDFT excited states in gaussian
 --------------------------------
 Symbolic Z-matrix:
 Charge =  0 Multiplicity = 1

                         Standard orientation:
 ---------------------------------------------------------------------
 Center     Atomic      Atomic             Coordinates (Angstroms)
 Number     Number       Type             X           Y           Z
 ---------------------------------------------------------------------
      1         12           0        5.064796    1.204480    0.304865
      2          6           0        6.092563   -2.116413   -0.548117
      3          6           0        5.798549    2.096427   -2.905914
      4          6           0        4.597822    4.224515    1.152184
      5          6           0        5.496488    0.320829    3.648286
      6          7           0        5.838866    0.046491   -1.415752
      7          6           0        6.135666   -1.231794   -1.628042
      8          6           0        6.424139   -1.558915   -3.123752
      9          6           0        6.854010   -0.106264   -3.620758
     10          6           0        6.091040    0.731874   -2.610151
     11          6           0        8.345234    0.174236   -3.465611
     12          6           0        5.149724   -2.068423   -3.877409
     13          6           0        5.411672   -2.714982   -5.240750
     14          1           0        4.583634   -3.837914   -5.653939
     15          7           0        4.713703    2.805100   -0.798585
     16          6           0        5.068819    2.990363   -2.092747
     17          6           0        4.583073    4.337963   -2.459772
     18          6           0        4.084836    4.995394   -1.219756
     19          6           0        4.474642    4.032266   -0.221852
     20          6           0        4.576347    4.855604   -3.865386
     21          6           0        3.380063    6.291584   -0.972128
     22          8           0        3.244341    6.778472    0.202220
     23          6           0        2.924344    7.029709   -2.163990
     24          7           0        5.257614    2.215941    2.120740
     25          6           0        4.936288    3.509913    2.227373
     26          6           0        4.882689    3.942726    3.662552
     27          6           0        4.997708    2.607953    4.531403
     28          6           0        5.190162    1.591867    3.378667
     29          6           0        5.968486    4.933931    4.103651
     30          6           0        3.876199    2.344414    5.567349
     31          6           0        2.571189    2.072865    4.852990
     32          7           0        5.510383   -0.616362    1.398953
     33          6           0        5.666055   -0.749711    2.786274
     34          6           0        6.066899   -2.145078    3.043850
     35          6           0        6.133100   -2.725926    1.778908
     36          6           0        5.820584   -1.748083    0.791767
     37          6           0        6.373349   -2.702735    4.316461
     38          6           0        6.419150   -3.938815    1.029953
     39          8           0        6.648206   -5.110869    1.332138
     40          6           0        6.523199   -3.561719   -0.513679
     41          6           0        5.699667   -4.559292   -1.281762
     42          8           0        4.458131   -4.592887   -1.160002
     43          8           0        6.468805   -5.151231   -2.208355
     44          6           0        5.705333   -6.131786   -3.025532
     45          1           0        6.213871    2.540731   -3.812580
     46          1           0        4.336672    5.227123    1.497169
     47          1           0        5.566724   -0.049449    4.672695
     48          1           0        7.239484   -2.264193   -3.285675
     49          1           0        6.498354    0.100336   -4.629989
     50          1           0        8.846049   -0.624425   -2.918577
     51          1           0        8.409087    1.112038   -2.913394
     52          1           0        8.806346    0.365314   -4.434962
     53          1           0        4.550839   -1.212956   -4.189775
     54          1           0        4.583162   -2.760280   -3.253175
     55          1           0        6.468049   -2.949930   -5.374078
     56          1           0        5.198279   -1.977916   -6.014957
     57          1           0        5.154496    4.215529   -4.530662
     58          1           0        5.118450    5.801011   -3.859126
     59          1           0        3.564795    5.014339   -4.239415
     60          1           0        3.782023    7.252546   -2.799033
     61          1           0        2.363947    7.886319   -1.791130
     62          1           0        2.268720    6.384560   -2.749556
     63          1           0        3.937452    4.435020    3.887497
     64          1           0        5.915060    2.580814    5.119962
     65          1           0        5.572495    5.859039    4.523259
     66          1           0        6.608734    5.136336    3.245510
     67          1           0        6.686330    4.536343    4.820617
     68          1           0        3.722924    3.223657    6.192157
     69          1           0        4.088126    1.502229    6.226184
     70          1           0        2.190489    3.073747    4.652655
     71          1           0        1.891030    1.518877    5.500826
     72          1           0        2.737485    1.588785    3.890443
     73          1           0        5.891259   -3.679832    4.345419
     74          1           0        6.020208   -2.062678    5.124682
     75          1           0        7.461063   -2.744685    4.261915
     76          1           0        7.578941   -3.612202   -0.778222
     77          1           0        6.224435   -7.087193   -2.948303
     78          1           0        5.599116   -5.692394   -4.017529
     79          1           0        4.717081   -6.403836   -2.653126
     80         12           0       -5.227129   -1.289015    0.152029
     81          6           0       -5.799263    2.021883   -1.108819
     82          6           0       -4.715291    0.126384    3.212955
     83          6           0       -4.278487   -4.130697    1.197175
     84          6           0       -4.657596   -2.292896   -3.136370
     85          7           0       -5.278962    0.813329    0.837400
     86          6           0       -5.568012    1.980495    0.281958
     87          6           0       -5.690731    3.157865    1.286099
     88          6           0       -4.782255    2.561294    2.468329
     89          6           0       -4.959125    1.071092    2.184276
     90          6           0       -3.308422    2.903078    2.325721
     91          6           0       -7.169062    3.388961    1.758486
     92          6           0       -7.410088    4.708701    2.494645
     93          1           0       -8.685989    5.391653    2.299409
     94          7           0       -5.068960   -1.989755    2.002034
     95          6           0       -4.887021   -1.272935    3.130906
     96          6           0       -4.814357   -2.255040    4.223774
     97          6           0       -4.803162   -3.619034    3.628706
     98          6           0       -4.693044   -3.291720    2.221295
     99          6           0       -4.843485   -1.863697    5.672715
    100          6           0       -4.866528   -4.991206    4.228137
    101          8           0       -4.602319   -6.039588    3.539713
    102          6           0       -5.155692   -5.065027    5.667728
    103          7           0       -4.357763   -2.922010   -0.796590
    104          6           0       -4.093644   -4.054073   -0.120880
    105          6           0       -3.729682   -5.178271   -1.061153
    106          6           0       -4.040779   -4.627558   -2.529997
    107          6           0       -4.465153   -3.185592   -2.175004
    108          6           0       -2.280064   -5.658407   -0.994366
    109          6           0       -4.990179   -5.480772   -3.415068
    110          6           0       -6.387328   -5.464395   -2.837906
    111          7           0       -5.400595   -0.384667   -1.802488
    112          6           0       -5.086187   -0.974717   -3.046310
    113          6           0       -5.257352    0.068147   -4.078562
    114          6           0       -5.640234    1.207832   -3.355371
    115          6           0       -5.683682    0.902535   -1.968145
    116          6           0       -5.016409   -0.093271   -5.472127
    117          6           0       -6.007239    2.602550   -3.449033
    118          8           0       -6.225615    3.383074   -4.374675
    119          6           0       -6.003858    3.225281   -1.986638
    120          6           0       -7.274784    4.010943   -1.813411
    121          8           0       -8.377761    3.436443   -1.811976
    122          8           0       -6.968181    5.273132   -1.462367
    123          6           0       -8.196502    6.088825   -1.268205
    124          1           0       -4.314027    0.484231    4.161544
    125          1           0       -4.046359   -5.156478    1.492779
    126          1           0       -4.594253   -2.552506   -4.195265
    127          1           0       -5.277870    4.096970    0.937671
    128          1           0       -5.188124    2.814214    3.444374
    129          1           0       -3.097402    3.392606    1.386583
    130          1           0       -2.780495    1.960497    2.388066
    131          1           0       -2.973619    3.493328    3.183530
    132          1           0       -7.402950    2.679699    2.562839
    133          1           0       -7.849981    3.305594    0.933850
    134          1           0       -6.575839    5.409437    2.368394
    135          1           0       -7.431431    4.508122    3.568587
    136          1           0       -4.687209   -0.785541    5.801404
    137          1           0       -3.968884   -2.323288    6.145710
    138          1           0       -5.744341   -2.209220    6.184315
    139          1           0       -4.398285   -4.510955    6.217085
    140          1           0       -5.248484   -6.129227    5.892967
    141          1           0       -6.111790   -4.564959    5.858606
    142          1           0       -4.343317   -6.051339   -0.875915
    143          1           0       -3.126854   -4.545853   -3.136548
    144          1           0       -2.187827   -6.739096   -0.776078
    145          1           0       -1.760963   -5.073755   -0.246527
    146          1           0       -1.688712   -5.467537   -1.888281
    147          1           0       -4.668050   -6.524986   -3.418613
    148          1           0       -5.028932   -5.152193   -4.448282
    149          1           0       -6.345804   -6.241653   -2.068982
    150          1           0       -7.121178   -5.706011   -3.604136
    151          1           0       -6.593899   -4.512998   -2.334094
    152          1           0       -5.836694    0.388175   -5.987731
    153          1           0       -4.937611   -1.144112   -5.742875
    154          1           0       -4.059866    0.427722   -5.566311
    155          1           0       -5.117956    3.855717   -1.901090
    156          1           0       -8.106443    6.962399   -1.921227
    157          1           0       -8.260741    6.277771   -0.180121
    158          1           0       -9.136215    5.668022   -1.606299
 ---------------------------------------------------------------------

 SCF Done:  E(RCAM-B3LYP) =  -4069.81185801     A.U. after   19 cycles

 Excitation energies and oscillator strengths:

 Excited State   1:      Singlet-A      1.6600 eV  746.87 nm  f=0.0607  <S**2>=0.000
     309 -> 315       -0.10924
     310 -> 316       -0.13052
     311 -> 313       -0.44089
     312 -> 314        0.52682
 This state for optimization and/or second-order correction.
 Total Energy, E(TD-HF/TD-DFT) =  -4069.75085242
 Copying the excited state density for this state as the 1-particle RhoCI density.

 Excited State   2:      Singlet-A      1.6930 eV  732.35 nm  f=0.6547  <S**2>=0.000
     309 -> 315        0.13712
     310 -> 316       -0.11431
     311 -> 313        0.52514
     312 -> 314        0.43952

 Excited State   3:      Singlet-A      2.1834 eV  567.86 nm  f=0.0404  <S**2>=0.000
     309 -> 313        0.25056
     310 -> 314        0.59325
     311 -> 315       -0.10474
     312 -> 316        0.24907

 Excited State   4:      Singlet-A      2.1950 eV  564.86 nm  f=0.1451  <S**2>=0.000
     309 -> 313        0.58949
     310 -> 314       -0.24789
     311 -> 315       -0.25821
     312 -> 316       -0.10958

 Excited State   5:      Singlet-A      2.4864 eV  498.65 nm  f=0.0000  <S**2>=0.000
     312 -> 313        0.70709

 The electronic state is 1-A.
 Alpha  occ. eigenvalues --  -46.87883 -46.87493 -19.26357 -19.26262 -19.19096
 Alpha  occ. eigenvalues --  -19.19066 -19.18885 -19.18539 -19.18235 -19.17941
 Alpha  occ. eigenvalues --  -14.42532 -14.42332 -14.41545 -14.41178 -14.39485
 Alpha  occ. eigenvalues --  -14.39186 -14.38670 -14.38444 -10.39155 -10.38993
 Alpha  occ. eigenvalues --  -10.35514 -10.35216 -10.34456 -10.34119 -10.31754
 Alpha  occ. eigenvalues --  -10.31683 -10.31483 -10.31162 -10.30983 -10.30858
 Alpha  occ. eigenvalues --  -10.30649 -10.30596 -10.30307 -10.30237 -10.30219
 Alpha  occ. eigenvalues --  -10.30025 -10.29948 -10.29708 -10.29706 -10.29334
 Alpha  occ. eigenvalues --  -10.29266 -10.29256 -10.28818 -10.28609 -10.28571
 Alpha  occ. eigenvalues --  -10.28541 -10.28440 -10.28248 -10.28181 -10.27984
 Alpha  occ. eigenvalues --  -10.27866 -10.27853 -10.27804 -10.27657 -10.27650
 Alpha  occ. eigenvalues --  -10.27593 -10.27510 -10.27508 -10.27485 -10.27333
 Alpha  occ. eigenvalues --  -10.27324 -10.27315 -10.27291 -10.27230 -10.27103
 Alpha  occ. eigenvalues --  -10.26935 -10.26777 -10.26566 -10.26433 -10.26395
 Alpha  occ. eigenvalues --  -10.26291 -10.26252 -10.26117 -10.25960 -10.25921
 Alpha  occ. eigenvalues --  -10.25840 -10.25777 -10.25766 -10.25564 -10.24972
 Alpha  occ. eigenvalues --  -10.24956 -10.24906 -10.24882 -10.24731 -10.24572
 Alpha  occ. eigenvalues --  -10.24502  -3.16626  -3.16243  -1.91507  -1.91125
 Alpha  occ. eigenvalues --   -1.91094  -1.90936  -1.90713  -1.90551  -1.16706
 Alpha  occ. eigenvalues --   -1.16554  -1.08692  -1.08555  -1.07287  -1.06851
 Alpha  occ. eigenvalues --   -1.06788  -1.06717  -1.04661  -1.04334  -1.03852
 Alpha  occ. eigenvalues --   -1.03495  -1.03319  -1.02866  -1.02498  -1.01943
 Alpha  occ. eigenvalues --   -0.92051  -0.91841  -0.89650  -0.89316  -0.89259
 Alpha  occ. eigenvalues --   -0.88997  -0.88415  -0.88007  -0.87947  -0.87755
 Alpha  occ. eigenvalues --   -0.87667  -0.87518  -0.87333  -0.86967  -0.85058
 Alpha  occ. eigenvalues --   -0.84845  -0.84082  -0.83664  -0.83041  -0.82756
 Alpha  occ. eigenvalues --   -0.82723  -0.82497  -0.81667  -0.81472  -0.80676
 Alpha  occ. eigenvalues --   -0.80300  -0.78863  -0.78489  -0.77316  -0.77023
 Alpha  occ. eigenvalues --   -0.76990  -0.76736  -0.75999  -0.75696  -0.75012
 Alpha  occ. eigenvalues --   -0.74566  -0.72861  -0.72544  -0.71760  -0.71389
 Alpha  occ. eigenvalues --   -0.70073  -0.69555  -0.68949  -0.68676  -0.67721
 Alpha  occ. eigenvalues --   -0.67442  -0.67288  -0.67056  -0.65366  -0.65126
 Alpha  occ. eigenvalues --   -0.64944  -0.64717  -0.64616  -0.64503  -0.64389
 Alpha  occ. eigenvalues --   -0.64013  -0.62384  -0.62149  -0.60520  -0.60168
 Alpha  occ. eigenvalues --   -0.59877  -0.59645  -0.59078  -0.58826  -0.58591
 Alpha  occ. eigenvalues --   -0.58268  -0.57661  -0.57437  -0.57406  -0.57063
 Alpha  occ. eigenvalues --   -0.56384  -0.56066  -0.56055  -0.55763  -0.55593
 Alpha  occ. eigenvalues --   -0.55459  -0.55313  -0.55069  -0.54635  -0.54316
 Alpha  occ. eigenvalues --   -0.53967  -0.53761  -0.53385  -0.53289  -0.53071
 Alpha  occ. eigenvalues --   -0.53006  -0.52996  -0.52817  -0.52760  -0.52607
 Alpha  occ. eigenvalues --   -0.52513  -0.52226  -0.51993  -0.51782  -0.51682
 Alpha  occ. eigenvalues --   -0.51517  -0.51290  -0.51061  -0.50624  -0.50314
 Alpha  occ. eigenvalues --   -0.50160  -0.49984  -0.49816  -0.49645  -0.49583
 Alpha  occ. eigenvalues --   -0.49334  -0.49286  -0.49167  -0.49064  -0.48958
 Alpha  occ. eigenvalues --   -0.48675  -0.48565  -0.48512  -0.48421  -0.48193
 Alpha  occ. eigenvalues --   -0.48147  -0.47778  -0.47435  -0.47375  -0.46940
 Alpha  occ. eigenvalues --   -0.46898  -0.46627  -0.46545  -0.46450  -0.46397
 Alpha  occ. eigenvalues --   -0.46258  -0.46111  -0.45909  -0.45902  -0.45690
 Alpha  occ. eigenvalues --   -0.45321  -0.44958  -0.44661  -0.44589  -0.44373
 Alpha  occ. eigenvalues --   -0.44321  -0.44254  -0.44163  -0.44087  -0.43979
 Alpha  occ. eigenvalues --   -0.43908  -0.43796  -0.43579  -0.43475  -0.43423
 Alpha  occ. eigenvalues --   -0.43217  -0.43117  -0.42827  -0.42814  -0.42760
 Alpha  occ. eigenvalues --   -0.42740  -0.42362  -0.42133  -0.41800  -0.41789
 Alpha  occ. eigenvalues --   -0.41615  -0.41516  -0.41300  -0.41226  -0.40971
 Alpha  occ. eigenvalues --   -0.40893  -0.40808  -0.40691  -0.40562  -0.40536
 Alpha  occ. eigenvalues --   -0.40305  -0.40289  -0.40083  -0.39624  -0.39231
 Alpha  occ. eigenvalues --   -0.38594  -0.38133  -0.37827  -0.37510  -0.37435
 Alpha  occ. eigenvalues --   -0.37338  -0.37086  -0.37045  -0.36805  -0.36648
 Alpha  occ. eigenvalues --   -0.36291  -0.36036  -0.34372  -0.34091  -0.33848
 Alpha  occ. eigenvalues --   -0.33753  -0.33272  -0.33013  -0.31417  -0.31121
 Alpha  occ. eigenvalues --   -0.31095  -0.30805  -0.30095  -0.29848  -0.29522
 Alpha  occ. eigenvalues --   -0.29397  -0.29174  -0.29070  -0.24167  -0.23871
 Alpha  occ. eigenvalues --   -0.21212  -0.20952
 Alpha virt. eigenvalues --   -0.08853  -0.08634  -0.01839  -0.01507  -0.00127
 Alpha virt. eigenvalues --    0.00129   0.02121   0.02345   0.03013   0.03385
 Alpha virt. eigenvalues --    0.04634   0.04893   0.05024   0.05267   0.06098

 Mulliken charges:
               1
     1  Mg   0.838639
     2  C   -0.002886
     3  C   -0.093645
     4  C   -0.046288
     5  C   -0.064187
     6  N   -0.256718
     7  C   -0.052489
     8  C   -0.014016
     9  C   -0.087068
    10  C    0.046255
    11  C    0.104736
    12  C    0.053409
    13  C   -0.071722
    14  H    0.035523
    15  N   -0.433196
    16  C    0.168432
    17  C   -0.176640
    18  C   -0.003893
    19  C    0.148637
    20  C    0.109966
    21  C    0.012067
    22  O   -0.250332
    23  C    0.062367
    24  N   -0.341019
    25  C    0.041202
    26  C   -0.028142
    27  C   -0.023775
    28  C    0.074425
    29  C    0.076151
    30  C    0.035334
    31  C   -0.004324
    32  N   -0.310466
    33  C    0.080223
    34  C   -0.169727
    35  C    0.008555
    36  C    0.082919
    37  C    0.127310
    38  C    0.046250
    39  O   -0.188123
    40  C   -0.005405
    41  C    0.213039
    42  O   -0.257325
    43  O   -0.304669
    44  C    0.157733
    45  H   -0.017161
    46  H   -0.017190
    47  H   -0.041871
    48  H    0.001071
    49  H   -0.003708
    50  H    0.025525
    51  H    0.016475
    52  H    0.016968
    53  H    0.011411
    54  H    0.043750
    55  H    0.018113
    56  H    0.018312
    57  H    0.006121
    58  H    0.027058
    59  H    0.040728
    60  H    0.037648
    61  H    0.035755
    62  H    0.032537
    63  H    0.015608
    64  H    0.009678
    65  H    0.022957
    66  H    0.013030
    67  H    0.004866
    68  H    0.005883
    69  H    0.004818
    70  H    0.007636
    71  H    0.016073
    72  H    0.029936
    73  H    0.047856
    74  H    0.008634
    75  H    0.046120
    76  H    0.035333
    77  H    0.043228
    78  H    0.046357
    79  H    0.053329
    80  Mg   0.838034
    81  C   -0.017157
    82  C   -0.087947
    83  C   -0.044566
    84  C   -0.064624
    85  N   -0.254685
    86  C   -0.049975
    87  C   -0.015108
    88  C   -0.090554
    89  C    0.046064
    90  C    0.114454
    91  C    0.062551
    92  C   -0.077734
    93  H    0.034268
    94  N   -0.423717
    95  C    0.163437
    96  C   -0.174424
    97  C   -0.007124
    98  C    0.152273
    99  C    0.099322
   100  C    0.015890
   101  O   -0.252228
   102  C    0.061207
   103  N   -0.350008
   104  C    0.038465
   105  C   -0.020516
   106  C   -0.034244
   107  C    0.088930
   108  C    0.072588
   109  C    0.034706
   110  C   -0.007533
   111  N   -0.323885
   112  C    0.078245
   113  C   -0.163741
   114  C    0.001691
   115  C    0.096126
   116  C    0.131657
   117  C    0.041630
   118  O   -0.189272
   119  C    0.001171
   120  C    0.211113
   121  O   -0.251142
   122  O   -0.305634
   123  C    0.152191
   124  H   -0.019944
   125  H   -0.014429
   126  H   -0.041146
   127  H   -0.000625
   128  H   -0.004731
   129  H    0.022880
   130  H    0.014720
   131  H    0.016531
   132  H    0.013760
   133  H    0.037419
   134  H    0.021060
   135  H    0.019433
   136  H    0.008375
   137  H    0.026294
   138  H    0.039550
   139  H    0.038312
   140  H    0.036501
   141  H    0.033390
   142  H    0.013859
   143  H    0.012634
   144  H    0.025292
   145  H    0.015713
   146  H    0.007605
   147  H    0.006319
   148  H    0.002723
   149  H    0.011056
   150  H    0.017190
   151  H    0.029908
   152  H    0.045420
   153  H    0.008291
   154  H    0.045565
   155  H    0.034445
   156  H    0.043423
   157  H    0.049663
   158  H    0.053349
 Sum of Mulliken charges =  -0.00000

 Dipole moment (field-independent basis, Debye):
    X=              3.5188    Y=              3.0993    Z=              0.7090  Tot=              4.7424
 Quadrupole moment (field-independent basis, Debye-Ang):
   XX=           -524.1315   YY=           -538.4866   ZZ=           -457.2355
   XY=             17.9597   XZ=            -52.8565   YZ=             33.8791

 Normal termination of Gaussian 16 at Fri Sep 10 15:19:21 2021.
