 Gaussian 16, Revision A.03,
 Gaussian 16:  ES64L-G16RevA.03 25-Dec-2016

 -----------------------------------
 #p cam-b3lyp/Def2SVP td=(nstates=5)
 -----------------------------------

 --------------------------------
 TDDFT excited states in gaussian
 --------------------------------
 Symbolic Z-matrix:
 Charge =  0 Multiplicity = 1

                         Standard orientation:
 ---------------------------------------------------------------------
 Center     Atomic      Atomic             Coordinates (Angstroms)
 Number     Number       Type             X           Y           Z
 ---------------------------------------------------------------------
      1         12           0        4.158734    0.293878    0.945631
      2          6           0        4.574374   -2.753108   -0.886125
      3          6           0        5.640587    1.897981   -1.676206
      4          6           0        4.216150    2.918390    2.724749
      5          6           0        3.772022   -1.653498    3.809866
      6          7           0        4.960934   -0.442965   -0.981591
      7          6           0        5.005089   -1.625091   -1.588056
      8          6           0        5.482163   -1.542313   -3.068907
      9          6           0        6.301738   -0.176813   -2.993384
     10          6           0        5.569430    0.482420   -1.837935
     11          6           0        7.764561   -0.364929   -2.604460
     12          6           0        4.286028   -1.437718   -4.073920
     13          6           0        4.643885   -1.680388   -5.543071
     14          1           0        3.679961   -2.359569   -6.395663
     15          7           0        4.372047    2.188369    0.427701
     16          6           0        4.988219    2.659885   -0.682835
     17          6           0        4.883334    4.133234   -0.612665
     18          6           0        4.323712    4.486536    0.721537
     19          6           0        4.305847    3.196691    1.362909
     20          6           0        5.245375    5.038978   -1.749460
     21          6           0        3.885873    5.782777    1.326673
     22          8           0        3.648545    5.903866    2.577107
     23          6           0        3.826685    6.943996    0.420522
     24          7           0        4.234299    0.610264    3.007626
     25          6           0        4.189258    1.845643    3.518308
     26          6           0        3.971456    1.815499    5.002084
     27          6           0        3.632463    0.298709    5.368399
     28          6           0        3.804750   -0.327731    3.962640
     29          6           0        5.148696    2.297135    5.861236
     30          6           0        2.311318    0.038796    6.134845
     31          6           0        1.130643    0.356955    5.244968
     32          7           0        3.989658   -1.824152    1.388807
     33          6           0        3.857632   -2.412733    2.654831
     34          6           0        3.890580   -3.873586    2.457625
     35          6           0        4.057209   -4.034270    1.083485
     36          6           0        4.150435   -2.754847    0.464875
     37          6           0        3.831360   -4.854903    3.486189
     38          6           0        4.202883   -4.989255   -0.003087
     39          8           0        4.111753   -6.213979   -0.099217
     40          6           0        4.665548   -4.199128   -1.305956
     41          6           0        3.797817   -4.656152   -2.446781
     42          8           0        2.577954   -4.393735   -2.467691
     43          8           0        4.574506   -5.117784   -3.438846
     44          6           0        3.776999   -5.560190   -4.613757
     45          1           0        6.300589    2.471421   -2.330046
     46          1           0        4.121885    3.798412    3.364368
     47          1           0        3.572333   -2.324614    4.647231
     48          1           0        6.139418   -2.354231   -3.380725
     49          1           0        6.189279    0.416035   -3.900912
     50          1           0        7.970988   -1.395802   -2.317043
     51          1           0        7.930096    0.305839   -1.761156
     52          1           0        8.424590   -0.015881   -3.399007
     53          1           0        3.955311   -0.400765   -4.132363
     54          1           0        3.478322   -2.110559   -3.783710
     55          1           0        5.629704   -2.135396   -5.643262
     56          1           0        4.740891   -0.712666   -6.035313
     57          1           0        5.780934    4.504083   -2.532792
     58          1           0        5.970363    5.756769   -1.366212
     59          1           0        4.378125    5.567934   -2.144952
     60          1           0        4.813109    7.114037   -0.011453
     61          1           0        3.408564    7.761694    1.006520
     62          1           0        3.163691    6.708408   -0.412477
     63          1           0        3.131716    2.448025    5.286994
     64          1           0        4.399121   -0.150675    6.000035
     65          1           0        4.894664    3.119345    6.530671
     66          1           0        5.962740    2.574765    5.192247
     67          1           0        5.619866    1.522940    6.466247
     68          1           0        2.242692    0.691586    7.004386
     69          1           0        2.210934   -0.989236    6.483162
     70          1           0        1.020500    1.434386    5.362622
     71          1           0        0.239821   -0.166890    5.593154
     72          1           0        1.359397    0.165368    4.196421
     73          1           0        3.150594   -5.628423    3.130953
     74          1           0        3.485554   -4.423731    4.425397
     75          1           0        4.875030   -5.166023    3.528779
     76          1           0        5.714872   -4.445163   -1.465667
     77          1           0        4.052146   -6.595161   -4.817137
     78          1           0        3.951383   -4.826270   -5.400749
     79          1           0        2.702379   -5.659942   -4.456974
     80         12           0       -3.628618    0.677957   -0.564669
     81          6           0       -6.421814   -1.458055    0.152695
     82          6           0       -5.877279    3.009717   -1.632844
     83          6           0       -1.185871    2.403519   -1.624306
     84          6           0       -1.619721   -2.169644   -0.529375
     85          7           0       -5.837596    0.661185   -0.675903
     86          6           0       -6.794519   -0.181593   -0.317596
     87          6           0       -8.229954    0.403962   -0.396278
     88          6           0       -7.961547    1.553042   -1.485517
     89          6           0       -6.473861    1.787711   -1.231726
     90          6           0       -8.132230    1.075920   -2.918191
     91          6           0       -8.704624    1.008699    0.971574
     92          6           0      -10.201175    1.317529    1.053402
     93          1           0      -10.883317    1.122600    2.329791
     94          7           0       -3.523172    2.604294   -1.030162
     95          6           0       -4.537730    3.403640   -1.421305
     96          6           0       -3.938203    4.724859   -1.664425
     97          6           0       -2.460282    4.598706   -1.543834
     98          6           0       -2.328240    3.161557   -1.412400
     99          6           0       -4.758540    5.960270   -1.897294
    100          6           0       -1.348685    5.603863   -1.558816
    101          8           0       -0.122472    5.250027   -1.677280
    102          6           0       -1.744341    7.019410   -1.524730
    103          7           0       -1.722801    0.169285   -1.221510
    104          6           0       -0.838129    1.117374   -1.577036
    105          6           0        0.545102    0.536150   -1.748074
    106          6           0        0.452959   -0.961866   -1.195767
    107          6           0       -1.055510   -1.018829   -0.869177
    108          6           0        1.087430    0.518968   -3.177049
    109          6           0        1.464660   -1.367398   -0.089113
    110          6           0        1.167325   -0.609671    1.184785
    111          7           0       -3.896036   -1.408130   -0.069903
    112          6           0       -2.929370   -2.434417   -0.149762
    113          6           0       -3.612536   -3.702475    0.178471
    114          6           0       -4.944872   -3.326088    0.405845
    115          6           0       -5.086602   -1.925451    0.211869
    116          6           0       -3.011595   -4.992788    0.188529
    117          6           0       -6.265844   -3.796723    0.755456
    118          8           0       -6.736633   -4.874470    1.116783
    119          6           0       -7.307354   -2.627223    0.483575
    120          6           0       -8.200207   -2.510966    1.688491
    121          8           0       -7.737746   -2.151383    2.785499
    122          8           0       -9.482703   -2.631508    1.299848
    123          6           0      -10.407331   -2.512006    2.458553
    124          1           0       -6.479524    3.719146   -2.201092
    125          1           0       -0.287089    2.967676   -1.883933
    126          1           0       -1.042104   -3.087560   -0.401119
    127          1           0       -8.982355   -0.285212   -0.760551
    128          1           0       -8.532676    2.450371   -1.261970
    129          1           0       -8.291017    0.009095   -2.971333
    130          1           0       -7.218412    1.348354   -3.429822
    131          1           0       -8.931790    1.637483   -3.409801
    132          1           0       -8.297575    2.022759    1.075233
    133          1           0       -8.421688    0.372934    1.787885
    134          1           0      -10.764802    0.844216    0.240227
    135          1           0      -10.343905    2.388548    0.890429
    136          1           0       -5.809066    5.714145   -2.095329
    137          1           0       -4.403706    6.408272   -2.831776
    138          1           0       -4.655617    6.691999   -1.093160
    139          1           0       -2.383036    7.236514   -2.377604
    140          1           0       -0.811533    7.581883   -1.451435
    141          1           0       -2.348433    7.192306   -0.627073
    142          1           0        1.270320    1.083928   -1.158926
    143          1           0        0.630485   -1.700908   -1.990834
    144          1           0        2.051767    1.050598   -3.284327
    145          1           0        0.340805    0.950037   -3.830713
    146          1           0        1.226153   -0.471767   -3.606479
    147          1           0        2.479901   -1.091488   -0.384576
    148          1           0        1.468989   -2.431292    0.123315
    149          1           0        1.670227    0.348773    1.024932
    150          1           0        1.578376   -1.132259    2.046176
    151          1           0        0.094318   -0.406934    1.280795
    152          1           0       -3.369964   -5.496230    1.076562
    153          1           0       -1.925687   -4.925703    0.179494
    154          1           0       -3.405580   -5.398731   -0.747021
    155          1           0       -7.865819   -2.888481   -0.416108
    156          1           0      -11.027578   -3.413623    2.466661
    157          1           0      -10.927014   -1.544274    2.327489
    158          1           0       -9.973742   -2.544644    3.451210
 ---------------------------------------------------------------------

 SCF Done:  E(RCAM-B3LYP) =  -4069.81090918     A.U. after   19 cycles

 Excitation energies and oscillator strengths:

 Excited State   1:      Singlet-A      1.6245 eV  763.22 nm  f=0.0017  <S**2>=0.000
     309 -> 315       -0.11118
     310 -> 316        0.11224
     311 -> 313       -0.48114
     312 -> 314        0.49160
 This state for optimization and/or second-order correction.
 Total Energy, E(TD-HF/TD-DFT) =  -4069.75121039
 Copying the excited state density for this state as the 1-particle RhoCI density.

 Excited State   2:      Singlet-A      1.7097 eV  725.19 nm  f=0.6635  <S**2>=0.000
     309 -> 315        0.13163
     310 -> 316        0.12666
     311 -> 313        0.48829
     312 -> 314        0.47793

 Excited State   3:      Singlet-A      2.1784 eV  569.16 nm  f=0.0999  <S**2>=0.000
     309 -> 313        0.20696
     310 -> 314        0.60654
     312 -> 316       -0.24885

 Excited State   4:      Singlet-A      2.1866 eV  567.02 nm  f=0.0921  <S**2>=0.000
     309 -> 313        0.56853
     310 -> 314       -0.21060
     311 -> 315       -0.24898
     312 -> 313        0.21731

 Excited State   5:      Singlet-A      2.2505 eV  550.91 nm  f=0.0083  <S**2>=0.000
     309 -> 313       -0.20362
     312 -> 313        0.66791

 The electronic state is 1-A.
 Alpha  occ. eigenvalues --  -46.87755 -46.87377 -19.26664 -19.26176 -19.19593
 Alpha  occ. eigenvalues --  -19.18977 -19.18707 -19.18566 -19.18239 -19.17813
 Alpha  occ. eigenvalues --  -14.42504 -14.42224 -14.41350 -14.41037 -14.39356
 Alpha  occ. eigenvalues --  -14.39089 -14.38308 -14.38289 -10.39534 -10.38900
 Alpha  occ. eigenvalues --  -10.35357 -10.35182 -10.34485 -10.33988 -10.31971
 Alpha  occ. eigenvalues --  -10.31607 -10.31551 -10.31018 -10.30949 -10.30806
 Alpha  occ. eigenvalues --  -10.30656 -10.30508 -10.30103 -10.30095 -10.30050
 Alpha  occ. eigenvalues --  -10.29927 -10.29763 -10.29607 -10.29553 -10.29154
 Alpha  occ. eigenvalues --  -10.29140 -10.29126 -10.28872 -10.28707 -10.28520
 Alpha  occ. eigenvalues --  -10.28508 -10.28264 -10.28219 -10.28165 -10.27925
 Alpha  occ. eigenvalues --  -10.27765 -10.27754 -10.27726 -10.27518 -10.27425
 Alpha  occ. eigenvalues --  -10.27394 -10.27374 -10.27352 -10.27326 -10.27293
 Alpha  occ. eigenvalues --  -10.27221 -10.27216 -10.27188 -10.27022 -10.26907
 Alpha  occ. eigenvalues --  -10.26824 -10.26762 -10.26519 -10.26418 -10.26301
 Alpha  occ. eigenvalues --  -10.26009 -10.26003 -10.25876 -10.25838 -10.25830
 Alpha  occ. eigenvalues --  -10.25487 -10.25433 -10.25352 -10.25330 -10.25126
 Alpha  occ. eigenvalues --  -10.25029 -10.24837 -10.24782 -10.24601 -10.24441
 Alpha  occ. eigenvalues --  -10.24410  -3.16452  -3.16128  -1.91337  -1.91011
 Alpha  occ. eigenvalues --   -1.90925  -1.90764  -1.90599  -1.90436  -1.17026
 Alpha  occ. eigenvalues --   -1.16467  -1.08739  -1.08422  -1.07125  -1.06955
 Alpha  occ. eigenvalues --   -1.06944  -1.06760  -1.04652  -1.04232  -1.03738
 Alpha  occ. eigenvalues --   -1.03377  -1.03211  -1.02728  -1.02385  -1.01817
 Alpha  occ. eigenvalues --   -0.92045  -0.91718  -0.89467  -0.89309  -0.89159
 Alpha  occ. eigenvalues --   -0.88928  -0.88216  -0.88032  -0.87763  -0.87707
 Alpha  occ. eigenvalues --   -0.87455  -0.87380  -0.87086  -0.86933  -0.85045
 Alpha  occ. eigenvalues --   -0.84773  -0.83876  -0.83702  -0.82819  -0.82814
 Alpha  occ. eigenvalues --   -0.82540  -0.82465  -0.81705  -0.81363  -0.80614
 Alpha  occ. eigenvalues --   -0.80213  -0.78698  -0.78387  -0.77218  -0.77023
 Alpha  occ. eigenvalues --   -0.76900  -0.76689  -0.75990  -0.75609  -0.74860
 Alpha  occ. eigenvalues --   -0.74556  -0.72767  -0.72397  -0.71696  -0.71303
 Alpha  occ. eigenvalues --   -0.69802  -0.69558  -0.68899  -0.68613  -0.67633
 Alpha  occ. eigenvalues --   -0.67348  -0.67202  -0.67026  -0.65392  -0.65070
 Alpha  occ. eigenvalues --   -0.64942  -0.64654  -0.64482  -0.64401  -0.64209
 Alpha  occ. eigenvalues --   -0.63926  -0.62451  -0.62036  -0.60312  -0.60113
 Alpha  occ. eigenvalues --   -0.59925  -0.59558  -0.59008  -0.58702  -0.58537
 Alpha  occ. eigenvalues --   -0.58165  -0.57779  -0.57314  -0.57267  -0.56977
 Alpha  occ. eigenvalues --   -0.56379  -0.56146  -0.55930  -0.55680  -0.55487
 Alpha  occ. eigenvalues --   -0.55374  -0.55259  -0.55099  -0.54648  -0.54326
 Alpha  occ. eigenvalues --   -0.54013  -0.53697  -0.53308  -0.53191  -0.53049
 Alpha  occ. eigenvalues --   -0.52985  -0.52928  -0.52756  -0.52624  -0.52522
 Alpha  occ. eigenvalues --   -0.52510  -0.52297  -0.51957  -0.51616  -0.51514
 Alpha  occ. eigenvalues --   -0.51447  -0.51228  -0.51007  -0.50367  -0.50269
 Alpha  occ. eigenvalues --   -0.50051  -0.49896  -0.49767  -0.49660  -0.49450
 Alpha  occ. eigenvalues --   -0.49329  -0.49212  -0.49114  -0.48979  -0.48878
 Alpha  occ. eigenvalues --   -0.48608  -0.48429  -0.48335  -0.48317  -0.48212
 Alpha  occ. eigenvalues --   -0.48064  -0.47661  -0.47373  -0.47264  -0.46861
 Alpha  occ. eigenvalues --   -0.46773  -0.46656  -0.46432  -0.46352  -0.46274
 Alpha  occ. eigenvalues --   -0.46146  -0.46013  -0.45793  -0.45762  -0.45504
 Alpha  occ. eigenvalues --   -0.45176  -0.44979  -0.44564  -0.44514  -0.44324
 Alpha  occ. eigenvalues --   -0.44235  -0.44168  -0.44073  -0.44007  -0.43929
 Alpha  occ. eigenvalues --   -0.43875  -0.43735  -0.43579  -0.43445  -0.43316
 Alpha  occ. eigenvalues --   -0.43138  -0.43029  -0.42930  -0.42727  -0.42616
 Alpha  occ. eigenvalues --   -0.42556  -0.42334  -0.41991  -0.41846  -0.41698
 Alpha  occ. eigenvalues --   -0.41551  -0.41415  -0.41244  -0.41135  -0.40861
 Alpha  occ. eigenvalues --   -0.40849  -0.40626  -0.40593  -0.40531  -0.40444
 Alpha  occ. eigenvalues --   -0.40228  -0.40074  -0.39974  -0.39402  -0.39176
 Alpha  occ. eigenvalues --   -0.38377  -0.38081  -0.37813  -0.37449  -0.37318
 Alpha  occ. eigenvalues --   -0.37194  -0.37009  -0.36965  -0.36791  -0.36535
 Alpha  occ. eigenvalues --   -0.36207  -0.35875  -0.34290  -0.34177  -0.33939
 Alpha  occ. eigenvalues --   -0.33659  -0.33124  -0.32878  -0.31246  -0.31149
 Alpha  occ. eigenvalues --   -0.30991  -0.30696  -0.30110  -0.29714  -0.29315
 Alpha  occ. eigenvalues --   -0.29246  -0.29101  -0.28928  -0.24122  -0.23736
 Alpha  occ. eigenvalues --   -0.21134  -0.20823
 Alpha virt. eigenvalues --   -0.08755  -0.08526  -0.01784  -0.01410   0.00037
 Alpha virt. eigenvalues --    0.00140   0.02184   0.02482   0.03344   0.04584
 Alpha virt. eigenvalues --    0.04604   0.04988   0.05120   0.05376   0.06140

 Mulliken charges:
               1
     1  Mg   0.658721
     2  C    0.007907
     3  C   -0.091556
     4  C   -0.042630
     5  C   -0.059412
     6  N   -0.247820
     7  C   -0.061903
     8  C   -0.008544
     9  C   -0.085965
    10  C    0.047089
    11  C    0.105540
    12  C    0.036964
    13  C   -0.070101
    14  H    0.035660
    15  N   -0.424496
    16  C    0.168477
    17  C   -0.170918
    18  C    0.001207
    19  C    0.150251
    20  C    0.108810
    21  C    0.019186
    22  O   -0.250325
    23  C    0.055727
    24  N   -0.322001
    25  C    0.042550
    26  C   -0.027877
    27  C   -0.021846
    28  C    0.070608
    29  C    0.076697
    30  C    0.034986
    31  C   -0.005218
    32  N   -0.306986
    33  C    0.069881
    34  C   -0.177411
    35  C    0.019168
    36  C    0.047962
    37  C    0.128646
    38  C    0.040766
    39  O   -0.188813
    40  C   -0.004885
    41  C    0.216509
    42  O   -0.263207
    43  O   -0.302963
    44  C    0.156617
    45  H   -0.018040
    46  H   -0.017088
    47  H   -0.043280
    48  H   -0.000743
    49  H   -0.003654
    50  H    0.026000
    51  H    0.017843
    52  H    0.016778
    53  H    0.014274
    54  H    0.047537
    55  H    0.018010
    56  H    0.018572
    57  H    0.004321
    58  H    0.025855
    59  H    0.050043
    60  H    0.034144
    61  H    0.033086
    62  H    0.046857
    63  H    0.017296
    64  H    0.008954
    65  H    0.023378
    66  H    0.012407
    67  H    0.004905
    68  H    0.006342
    69  H    0.004491
    70  H    0.008023
    71  H    0.019380
    72  H    0.029801
    73  H    0.045483
    74  H    0.009601
    75  H    0.045960
    76  H    0.035055
    77  H    0.044658
    78  H    0.047569
    79  H    0.053100
    80  Mg   0.837273
    81  C   -0.017812
    82  C   -0.088461
    83  C   -0.045074
    84  C   -0.069918
    85  N   -0.254693
    86  C   -0.049532
    87  C   -0.015128
    88  C   -0.090359
    89  C    0.045373
    90  C    0.114629
    91  C    0.062623
    92  C   -0.077531
    93  H    0.034231
    94  N   -0.423123
    95  C    0.162292
    96  C   -0.175441
    97  C   -0.009637
    98  C    0.152324
    99  C    0.099567
   100  C    0.017110
   101  O   -0.259185
   102  C    0.061722
   103  N   -0.349497
   104  C    0.033349
   105  C   -0.029891
   106  C   -0.019238
   107  C    0.086379
   108  C    0.070871
   109  C    0.005698
   110  C    0.001049
   111  N   -0.324106
   112  C    0.077963
   113  C   -0.161521
   114  C    0.001765
   115  C    0.096754
   116  C    0.130565
   117  C    0.042593
   118  O   -0.187925
   119  C    0.000970
   120  C    0.211191
   121  O   -0.251421
   122  O   -0.305621
   123  C    0.152213
   124  H   -0.020896
   125  H   -0.017319
   126  H   -0.025752
   127  H   -0.001004
   128  H   -0.004982
   129  H    0.022208
   130  H    0.014266
   131  H    0.015414
   132  H    0.013927
   133  H    0.037498
   134  H    0.020589
   135  H    0.019311
   136  H    0.008431
   137  H    0.024464
   138  H    0.038985
   139  H    0.038164
   140  H    0.032174
   141  H    0.035830
   142  H    0.022679
   143  H    0.028818
   144  H    0.030907
   145  H    0.005719
   146  H    0.010766
   147  H    0.070793
   148  H    0.022447
   149  H    0.027587
   150  H    0.069078
   151  H    0.024985
   152  H    0.044704
   153  H    0.016719
   154  H    0.047374
   155  H    0.034630
   156  H    0.043619
   157  H    0.049238
   158  H    0.053268
 Sum of Mulliken charges =  -0.00000

 Dipole moment (field-independent basis, Debye):
    X=              1.1330    Y=              6.4562    Z=             -4.5357  Tot=              7.9711
 Quadrupole moment (field-independent basis, Debye-Ang):
   XX=           -458.9469   YY=           -539.9822   ZZ=           -482.1824
   XY=            -29.5385   XZ=             -1.2821   YZ=             -7.9534

 Normal termination of Gaussian 16 at Wed Sep  8 14:11:50 2021.
