 Gaussian 16, Revision A.03,
 Gaussian 16:  ES64L-G16RevA.03 25-Dec-2016

 -----------------------------------
 #p cam-b3lyp/Def2SVP td=(nstates=5)
 -----------------------------------

 --------------------------------
 TDDFT excited states in gaussian
 --------------------------------
 Symbolic Z-matrix:
 Charge =  0 Multiplicity = 1

                         Standard orientation:
 ---------------------------------------------------------------------
 Center     Atomic      Atomic             Coordinates (Angstroms)
 Number     Number       Type             X           Y           Z
 ---------------------------------------------------------------------
      1         12           0        4.685486   -0.165872   -0.122873
      2          6           0        4.415717    3.090803   -1.583524
      3          6           0        5.536842    1.377941    2.798582
      4          6           0        5.370382   -3.026311    1.062635
      5          6           0        4.930311   -1.435503   -3.359192
      6          7           0        4.911719    1.969688    0.414572
      7          6           0        4.721219    3.121590   -0.221039
      8          6           0        4.802427    4.364470    0.714926
      9          6           0        5.699431    3.745181    1.878482
     10          6           0        5.335520    2.280312    1.712198
     11          6           0        7.197878    3.908589    1.645124
     12          6           0        3.395927    4.801213    1.246663
     13          6           0        3.344397    6.187236    1.895998
     14          1           0        2.150897    7.000273    1.717459
     15          7           0        4.878355   -0.763806    1.750126
     16          6           0        5.214542    0.003630    2.814695
     17          6           0        5.226190   -0.902720    3.983059
     18          6           0        5.055398   -2.294445    3.481036
     19          6           0        5.121673   -2.083673    2.057463
     20          6           0        5.338529   -0.421076    5.396972
     21          6           0        4.873487   -3.607513    4.174501
     22          8           0        4.976674   -4.722563    3.557582
     23          6           0        4.656071   -3.556326    5.631605
     24          7           0        5.313100   -1.953309   -0.999689
     25          6           0        5.481335   -3.059561   -0.266963
     26          6           0        5.654120   -4.269448   -1.136594
     27          6           0        5.325069   -3.794534   -2.625195
     28          6           0        5.086516   -2.290135   -2.345648
     29          6           0        7.042217   -4.923807   -1.104767
     30          6           0        4.233893   -4.584641   -3.390365
     31          6           0        2.885840   -4.354549   -2.744680
     32          7           0        4.501527    0.627302   -2.134857
     33          6           0        4.664699   -0.076524   -3.336804
     34          6           0        4.551600    0.905235   -4.431074
     35          6           0        4.345675    2.122530   -3.784828
     36          6           0        4.357256    1.918433   -2.375395
     37          6           0        4.698182    0.627051   -5.818720
     38          6           0        4.143132    3.551990   -3.956522
     39          8           0        3.951812    4.290719   -4.923563
     40          6           0        4.301975    4.254703   -2.536385
     41          6           0        3.140714    5.195153   -2.362205
     42          8           0        1.976566    4.760073   -2.248940
     43          8           0        3.602424    6.431409   -2.119230
     44          6           0        2.500941    7.408150   -1.907412
     45          1           0        6.040187    1.738431    3.697821
     46          1           0        5.501801   -4.047824    1.425509
     47          1           0        4.911867   -1.771341   -4.397617
     48          1           0        5.302893    5.229490    0.279384
     49          1           0        5.393853    4.102296    2.861749
     50          1           0        7.405168    4.310092    0.653284
     51          1           0        7.619035    2.908168    1.746507
     52          1           0        7.650379    4.505863    2.437136
     53          1           0        3.128605    4.184343    2.104609
     54          1           0        2.649606    4.746776    0.453336
     55          1           0        4.239253    6.767340    1.668794
     56          1           0        3.372378    6.058712    2.978079
     57          1           0        5.617270    0.631033    5.440713
     58          1           0        6.182588   -0.944573    5.845553
     59          1           0        4.434194   -0.621308    5.971791
     60          1           0        5.505612   -3.063795    6.105146
     61          1           0        4.457497   -4.581484    5.942202
     62          1           0        3.786114   -2.931901    5.837074
     63          1           0        4.959310   -5.058378   -0.851540
     64          1           0        6.198781   -3.850550   -3.274936
     65          1           0        7.023690   -5.976426   -0.821298
     66          1           0        7.671104   -4.347289   -0.426961
     67          1           0        7.603428   -4.850785   -2.035963
     68          1           0        4.435040   -5.654221   -3.340514
     69          1           0        4.161481   -4.309485   -4.442647
     70          1           0        2.879325   -5.078116   -1.930284
     71          1           0        2.084009   -4.558955   -3.454959
     72          1           0        2.822199   -3.361693   -2.298953
     73          1           0        3.900424    1.170656   -6.324728
     74          1           0        4.636052   -0.442761   -6.016825
     75          1           0        5.695031    1.028250   -6.000895
     76          1           0        5.256009    4.780725   -2.551887
     77          1           0        2.646972    8.216899   -2.623536
     78          1           0        2.512086    7.662712   -0.847469
     79          1           0        1.499584    7.071677   -2.178351
     80         12           0       -4.232331   -1.246459    0.363789
     81          6           0       -6.669050    1.372783    0.079082
     82          6           0       -1.996132    1.142468    1.326645
     83          6           0       -1.955343   -3.449365    0.190701
     84          6           0       -6.285731   -3.188797   -1.674979
     85          7           0       -4.426923    0.940504    0.631375
     86          6           0       -5.417135    1.816721    0.553495
     87          6           0       -5.066845    3.232161    1.085830
     88          6           0       -3.473235    3.172544    0.896889
     89          6           0       -3.272233    1.661487    0.991517
     90          6           0       -3.012530    3.630554   -0.476905
     91          6           0       -5.459981    3.417954    2.593459
     92          6           0       -5.432107    4.864560    3.091759
     93          1           0       -6.427754    5.281205    4.075405
     94          7           0       -2.414375   -1.279608    1.159078
     95          6           0       -1.660179   -0.216897    1.509969
     96          6           0       -0.399735   -0.771414    2.027601
     97          6           0       -0.406121   -2.242185    1.800688
     98          6           0       -1.609470   -2.380958    1.005205
     99          6           0        0.627182    0.064384    2.734922
    100          6           0        0.524560   -3.340198    2.218292
    101          8           0        0.452603   -4.514080    1.708725
    102          6           0        1.582061   -2.975804    3.172446
    103          7           0       -4.028292   -2.977320   -0.769711
    104          6           0       -2.964351   -3.784524   -0.613597
    105          6           0       -3.167482   -5.099134   -1.328388
    106          6           0       -4.696358   -5.101303   -1.797555
    107          6           0       -5.106448   -3.687467   -1.330334
    108          6           0       -2.264295   -5.345921   -2.536576
    109          6           0       -5.567221   -6.308235   -1.353047
    110          6           0       -5.762873   -6.279299    0.145703
    111          7           0       -6.212656   -1.058545   -0.479440
    112          6           0       -6.870030   -1.977923   -1.326023
    113          6           0       -8.148695   -1.359016   -1.731467
    114          6           0       -8.135998   -0.103089   -1.106190
    115          6           0       -6.925215    0.058059   -0.379862
    116          6           0       -9.110300   -1.934826   -2.608894
    117          6           0       -8.866814    1.127265   -0.904062
    118          8           0       -9.990575    1.529255   -1.202888
    119          6           0       -7.893607    2.188320   -0.230706
    120          6           0       -8.623377    2.822042    0.921841
    121          8           0       -8.943476    2.146293    1.915582
    122          8           0       -8.630095    4.157549    0.758332
    123          6           0       -9.333170    4.831570    1.882255
    124          1           0       -1.160878    1.837441    1.417415
    125          1           0       -1.251670   -4.284999    0.184933
    126          1           0       -7.025511   -3.769623   -2.229990
    127          1           0       -5.479524    4.050007    0.507379
    128          1           0       -2.959786    3.677236    1.711157
    129          1           0       -3.844352    3.809194   -1.141960
    130          1           0       -2.387501    2.833758   -0.858350
    131          1           0       -2.362560    4.505370   -0.384271
    132          1           0       -4.672395    2.986610    3.224639
    133          1           0       -6.421259    2.985622    2.792603
    134          1           0       -5.383549    5.584256    2.265539
    135          1           0       -4.501347    5.024364    3.641451
    136          1           0        0.432754    1.136113    2.604505
    137          1           0        1.581949   -0.102526    2.224608
    138          1           0        0.737222   -0.205083    3.787514
    139          1           0        2.193366   -2.182699    2.748482
    140          1           0        2.088798   -3.911041    3.418271
    141          1           0        1.113654   -2.564548    4.073596
    142          1           0       -3.004682   -5.933454   -0.657194
    143          1           0       -4.786151   -5.108364   -2.893784
    144          1           0       -1.670304   -6.275740   -2.454800
    145          1           0       -1.614783   -4.489203   -2.657864
    146          1           0       -2.777010   -5.384818   -3.496169
    147          1           0       -5.057524   -7.247504   -1.581435
    148          1           0       -6.537477   -6.342348   -1.837225
    149          1           0       -4.850772   -6.751470    0.522807
    150          1           0       -6.647032   -6.847466    0.427647
    151          1           0       -5.780068   -5.249316    0.520542
    152          1           0      -10.081603   -1.754545   -2.167803
    153          1           0       -8.929830   -2.997908   -2.754006
    154          1           0       -8.915981   -1.357791   -3.516932
    155          1           0       -7.624539    2.917715   -0.995655
    156          1           0      -10.122495    5.448268    1.441418
    157          1           0       -8.545717    5.355601    2.455893
    158          1           0       -9.904980    4.209463    2.560834
 ---------------------------------------------------------------------

 SCF Done:  E(RCAM-B3LYP) =  -4069.81336707     A.U. after   19 cycles

 Excitation energies and oscillator strengths:

 Excited State   1:      Singlet-A      1.6388 eV  756.56 nm  f=0.2429  <S**2>=0.000
     309 -> 315        0.11890
     310 -> 316       -0.11453
     311 -> 313        0.49381
     312 -> 314       -0.47578
 This state for optimization and/or second-order correction.
 Total Energy, E(TD-HF/TD-DFT) =  -4069.75314255
 Copying the excited state density for this state as the 1-particle RhoCI density.

 Excited State   2:      Singlet-A      1.6967 eV  730.72 nm  f=0.5223  <S**2>=0.000
     309 -> 315        0.12684
     310 -> 316        0.12839
     311 -> 313        0.47487
     312 -> 314        0.49205

 Excited State   3:      Singlet-A      2.1790 eV  568.99 nm  f=0.0059  <S**2>=0.000
     309 -> 313        0.37488
     310 -> 314        0.52328
     311 -> 315       -0.15564
     312 -> 316       -0.21739

 Excited State   4:      Singlet-A      2.1948 eV  564.91 nm  f=0.1522  <S**2>=0.000
     309 -> 313        0.49216
     310 -> 314       -0.36109
     311 -> 315       -0.21986
     312 -> 313        0.20230
     312 -> 316        0.15918

 Excited State   5:      Singlet-A      2.2178 eV  559.05 nm  f=0.0130  <S**2>=0.000
     309 -> 313       -0.16398
     312 -> 313        0.67406

 The electronic state is 1-A.
 Alpha  occ. eigenvalues --  -46.88186 -46.87395 -19.26719 -19.26165 -19.19479
 Alpha  occ. eigenvalues --  -19.19154 -19.18967 -19.18528 -19.18347 -19.17814
 Alpha  occ. eigenvalues --  -14.42840 -14.42211 -14.41773 -14.41108 -14.39895
 Alpha  occ. eigenvalues --  -14.39083 -14.38944 -14.38341 -10.39526 -10.38892
 Alpha  occ. eigenvalues --  -10.35761 -10.35009 -10.34750 -10.33991 -10.32114
 Alpha  occ. eigenvalues --  -10.31789 -10.31603 -10.31325 -10.31008 -10.30972
 Alpha  occ. eigenvalues --  -10.30856 -10.30739 -10.30507 -10.30183 -10.30141
 Alpha  occ. eigenvalues --  -10.30099 -10.29997 -10.29891 -10.29661 -10.29621
 Alpha  occ. eigenvalues --  -10.29206 -10.29170 -10.29146 -10.29084 -10.28752
 Alpha  occ. eigenvalues --  -10.28526 -10.28493 -10.28410 -10.28161 -10.28138
 Alpha  occ. eigenvalues --  -10.28107 -10.27974 -10.27859 -10.27776 -10.27747
 Alpha  occ. eigenvalues --  -10.27742 -10.27609 -10.27542 -10.27519 -10.27355
 Alpha  occ. eigenvalues --  -10.27330 -10.27294 -10.27250 -10.27218 -10.27207
 Alpha  occ. eigenvalues --  -10.27200 -10.26810 -10.26709 -10.26581 -10.26473
 Alpha  occ. eigenvalues --  -10.26328 -10.26144 -10.26120 -10.25978 -10.25805
 Alpha  occ. eigenvalues --  -10.25689 -10.25635 -10.25515 -10.25386 -10.25274
 Alpha  occ. eigenvalues --  -10.25196 -10.25090 -10.24616 -10.24574 -10.24459
 Alpha  occ. eigenvalues --  -10.24441  -3.16935  -3.16145  -1.91817  -1.91401
 Alpha  occ. eigenvalues --   -1.91245  -1.91027  -1.90615  -1.90452  -1.17071
 Alpha  occ. eigenvalues --   -1.16456  -1.08986  -1.08427  -1.07534  -1.07093
 Alpha  occ. eigenvalues --   -1.06751  -1.06583  -1.04979  -1.04209  -1.04119
 Alpha  occ. eigenvalues --   -1.03604  -1.03396  -1.02785  -1.02760  -1.01853
 Alpha  occ. eigenvalues --   -0.92340  -0.91727  -0.89744  -0.89604  -0.89271
 Alpha  occ. eigenvalues --   -0.88812  -0.88462  -0.88205  -0.88041  -0.88014
 Alpha  occ. eigenvalues --   -0.87652  -0.87549  -0.87414  -0.86824  -0.85394
 Alpha  occ. eigenvalues --   -0.84700  -0.84086  -0.83684  -0.83241  -0.83000
 Alpha  occ. eigenvalues --   -0.82604  -0.82311  -0.81959  -0.81368  -0.80958
 Alpha  occ. eigenvalues --   -0.80182  -0.79157  -0.78359  -0.77554  -0.77255
 Alpha  occ. eigenvalues --   -0.76883  -0.76647  -0.76291  -0.75534  -0.75097
 Alpha  occ. eigenvalues --   -0.74594  -0.73101  -0.72441  -0.71990  -0.71303
 Alpha  occ. eigenvalues --   -0.69974  -0.69563  -0.69255  -0.68533  -0.67990
 Alpha  occ. eigenvalues --   -0.67663  -0.67343  -0.66926  -0.65695  -0.65202
 Alpha  occ. eigenvalues --   -0.64995  -0.64959  -0.64519  -0.64456  -0.64395
 Alpha  occ. eigenvalues --   -0.63982  -0.62658  -0.62062  -0.60764  -0.60209
 Alpha  occ. eigenvalues --   -0.60081  -0.59487  -0.59312  -0.58832  -0.58741
 Alpha  occ. eigenvalues --   -0.58179  -0.57966  -0.57575  -0.57323  -0.57002
 Alpha  occ. eigenvalues --   -0.56657  -0.56382  -0.55942  -0.55866  -0.55663
 Alpha  occ. eigenvalues --   -0.55578  -0.55171  -0.55040  -0.54768  -0.54328
 Alpha  occ. eigenvalues --   -0.54285  -0.53675  -0.53605  -0.53567  -0.53281
 Alpha  occ. eigenvalues --   -0.53182  -0.52947  -0.52857  -0.52640  -0.52476
 Alpha  occ. eigenvalues --   -0.52328  -0.52216  -0.52196  -0.52038  -0.51652
 Alpha  occ. eigenvalues --   -0.51504  -0.51354  -0.50967  -0.50956  -0.50428
 Alpha  occ. eigenvalues --   -0.50167  -0.50085  -0.49833  -0.49717  -0.49585
 Alpha  occ. eigenvalues --   -0.49547  -0.49455  -0.49148  -0.48958  -0.48910
 Alpha  occ. eigenvalues --   -0.48782  -0.48751  -0.48664  -0.48280  -0.48171
 Alpha  occ. eigenvalues --   -0.48045  -0.47953  -0.47597  -0.47309  -0.47103
 Alpha  occ. eigenvalues --   -0.46953  -0.46877  -0.46666  -0.46465  -0.46433
 Alpha  occ. eigenvalues --   -0.46248  -0.46169  -0.46008  -0.45861  -0.45587
 Alpha  occ. eigenvalues --   -0.45396  -0.45001  -0.44924  -0.44821  -0.44475
 Alpha  occ. eigenvalues --   -0.44400  -0.44312  -0.44284  -0.44148  -0.43853
 Alpha  occ. eigenvalues --   -0.43846  -0.43814  -0.43712  -0.43615  -0.43348
 Alpha  occ. eigenvalues --   -0.43334  -0.43117  -0.43088  -0.42801  -0.42719
 Alpha  occ. eigenvalues --   -0.42654  -0.42329  -0.42220  -0.42036  -0.41867
 Alpha  occ. eigenvalues --   -0.41742  -0.41476  -0.41417  -0.41232  -0.41202
 Alpha  occ. eigenvalues --   -0.41106  -0.40749  -0.40695  -0.40652  -0.40440
 Alpha  occ. eigenvalues --   -0.40329  -0.40247  -0.39930  -0.39469  -0.39235
 Alpha  occ. eigenvalues --   -0.38683  -0.38209  -0.38136  -0.37697  -0.37545
 Alpha  occ. eigenvalues --   -0.37412  -0.37089  -0.37030  -0.36919  -0.36577
 Alpha  occ. eigenvalues --   -0.36490  -0.35989  -0.34635  -0.34213  -0.33993
 Alpha  occ. eigenvalues --   -0.33655  -0.33537  -0.32912  -0.31641  -0.31380
 Alpha  occ. eigenvalues --   -0.30902  -0.30692  -0.30386  -0.29866  -0.29720
 Alpha  occ. eigenvalues --   -0.29686  -0.29069  -0.28958  -0.24441  -0.23769
 Alpha  occ. eigenvalues --   -0.21482  -0.20854
 Alpha virt. eigenvalues --   -0.09139  -0.08527  -0.02135  -0.01418  -0.00454
 Alpha virt. eigenvalues --    0.00275   0.01862   0.02420   0.02464   0.03475
 Alpha virt. eigenvalues --    0.04313   0.04653   0.05002   0.05371   0.05673

 Mulliken charges:
               1
     1  Mg   0.834364
     2  C   -0.003977
     3  C   -0.096449
     4  C   -0.038482
     5  C   -0.062349
     6  N   -0.256025
     7  C   -0.053863
     8  C   -0.013237
     9  C   -0.086371
    10  C    0.043355
    11  C    0.104561
    12  C    0.052777
    13  C   -0.071594
    14  H    0.034439
    15  N   -0.441020
    16  C    0.167546
    17  C   -0.181816
    18  C   -0.003542
    19  C    0.140826
    20  C    0.111228
    21  C    0.012352
    22  O   -0.247154
    23  C    0.067581
    24  N   -0.340053
    25  C    0.039880
    26  C   -0.028964
    27  C   -0.024567
    28  C    0.077557
    29  C    0.075709
    30  C    0.034402
    31  C   -0.006512
    32  N   -0.310915
    33  C    0.081516
    34  C   -0.168554
    35  C    0.008661
    36  C    0.083581
    37  C    0.127102
    38  C    0.046473
    39  O   -0.187359
    40  C   -0.005596
    41  C    0.213480
    42  O   -0.259277
    43  O   -0.304116
    44  C    0.157493
    45  H   -0.017361
    46  H   -0.014426
    47  H   -0.040045
    48  H    0.001905
    49  H   -0.004395
    50  H    0.025934
    51  H    0.017471
    52  H    0.017338
    53  H    0.008581
    54  H    0.041516
    55  H    0.019957
    56  H    0.018388
    57  H    0.005818
    58  H    0.028391
    59  H    0.037395
    60  H    0.038037
    61  H    0.038333
    62  H    0.025943
    63  H    0.022526
    64  H    0.009484
    65  H    0.024793
    66  H    0.011826
    67  H    0.004775
    68  H    0.007013
    69  H    0.003302
    70  H    0.017819
    71  H    0.017396
    72  H    0.029463
    73  H    0.048247
    74  H    0.010300
    75  H    0.046733
    76  H    0.035945
    77  H    0.044470
    78  H    0.046033
    79  H    0.052589
    80  Mg   0.838174
    81  C   -0.016926
    82  C   -0.087942
    83  C   -0.046033
    84  C   -0.065052
    85  N   -0.254727
    86  C   -0.049175
    87  C   -0.015212
    88  C   -0.090443
    89  C    0.045319
    90  C    0.113909
    91  C    0.062815
    92  C   -0.076987
    93  H    0.033276
    94  N   -0.423637
    95  C    0.164080
    96  C   -0.182032
    97  C   -0.007583
    98  C    0.152066
    99  C    0.104833
   100  C    0.017563
   101  O   -0.251666
   102  C    0.035470
   103  N   -0.349840
   104  C    0.037696
   105  C   -0.019899
   106  C   -0.034743
   107  C    0.088774
   108  C    0.073267
   109  C    0.034947
   110  C   -0.007583
   111  N   -0.323987
   112  C    0.078273
   113  C   -0.163531
   114  C    0.002167
   115  C    0.096081
   116  C    0.131530
   117  C    0.042085
   118  O   -0.188724
   119  C    0.001022
   120  C    0.211120
   121  O   -0.251528
   122  O   -0.305382
   123  C    0.152314
   124  H   -0.015504
   125  H   -0.015853
   126  H   -0.041179
   127  H   -0.000742
   128  H   -0.006194
   129  H    0.021070
   130  H    0.020967
   131  H    0.020078
   132  H    0.012995
   133  H    0.037047
   134  H    0.020954
   135  H    0.018500
   136  H    0.008076
   137  H    0.031169
   138  H    0.034715
   139  H    0.052636
   140  H    0.050250
   141  H    0.025611
   142  H    0.014170
   143  H    0.012000
   144  H    0.023829
   145  H    0.012433
   146  H    0.005066
   147  H    0.005514
   148  H    0.003362
   149  H    0.010808
   150  H    0.017399
   151  H    0.030437
   152  H    0.045376
   153  H    0.007945
   154  H    0.046916
   155  H    0.035560
   156  H    0.043516
   157  H    0.049223
   158  H    0.053114
 Sum of Mulliken charges =  -0.00000

 Dipole moment (field-independent basis, Debye):
    X=              6.7638    Y=              2.1573    Z=              3.8050  Tot=              8.0549
 Quadrupole moment (field-independent basis, Debye-Ang):
   XX=           -551.2145   YY=           -487.5426   ZZ=           -497.8140
   XY=             17.2172   XZ=             17.0347   YZ=             54.9261

 Normal termination of Gaussian 16 at Fri Sep 10 06:22:57 2021.
