 Gaussian 16, Revision A.03,
 Gaussian 16:  ES64L-G16RevA.03 25-Dec-2016

 -----------------------------------
 #p cam-b3lyp/Def2SVP td=(nstates=5)
 -----------------------------------

 --------------------------------
 TDDFT excited states in gaussian
 --------------------------------
 Symbolic Z-matrix:
 Charge =  0 Multiplicity = 1

                         Standard orientation:
 ---------------------------------------------------------------------
 Center     Atomic      Atomic             Coordinates (Angstroms)
 Number     Number       Type             X           Y           Z
 ---------------------------------------------------------------------
      1         12           0       -7.845303    0.600294   -0.527395
      2          6           0       -8.102889   -2.633108    0.986202
      3          6           0       -8.911459    1.909176    2.437939
      4          6           0       -8.061984    3.414907   -1.972257
      5          6           0       -7.906854   -1.005255   -3.619980
      6          7           0       -8.402813   -0.344465    1.395430
      7          6           0       -8.400791   -1.588472    1.864060
      8          6           0       -8.671492   -1.671982    3.396092
      9          6           0       -9.451965   -0.295189    3.589229
     10          6           0       -8.862164    0.483528    2.426621
     11          6           0      -10.958851   -0.415331    3.385851
     12          6           0       -7.348362   -1.702733    4.232819
     13          6           0       -7.512435   -2.109810    5.700035
     14          1           0       -6.463590   -2.897749    6.329657
     15          7           0       -7.929392    2.424379    0.226592
     16          6           0       -8.375905    2.772121    1.457440
     17          6           0       -8.236765    4.241915    1.541262
     18          6           0       -7.851338    4.740181    0.191718
     19          6           0       -7.959097    3.533796   -0.588283
     20          6           0       -8.414869    5.014110    2.812381
     21          6           0       -7.459799    6.091618   -0.316659
     22          8           0       -7.389357    6.354210   -1.565922
     23          6           0       -7.243992    7.138271    0.698716
     24          7           0       -8.188059    1.156020   -2.510151
     25          6           0       -8.174697    2.441729   -2.878605
     26          6           0       -8.159585    2.581629   -4.371970
     27          6           0       -7.919154    1.113119   -4.951129
     28          6           0       -7.919606    0.329618   -3.615316
     29          6           0       -9.426584    3.177266   -5.001208
     30          6           0       -6.721680    0.925116   -5.916079
     31          6           0       -5.422879    1.120101   -5.166282
     32          7           0       -7.801750   -1.453852   -1.227131
     33          6           0       -7.859231   -1.892660   -2.557852
     34          6           0       -7.909646   -3.365906   -2.525119
     35          6           0       -7.894619   -3.683273   -1.168322
     36          6           0       -7.864880   -2.483486   -0.401565
     37          6           0       -8.019195   -4.221357   -3.656772
     38          6           0       -7.921638   -4.756214   -0.187545
     39          8           0       -7.855601   -5.984990   -0.244489
     40          6           0       -8.180561   -4.116733    1.247673
     41          6           0       -7.181456   -4.716260    2.199338
     42          8           0       -5.962482   -4.475880    2.082352
     43          8           0       -7.831207   -5.279047    3.229695
     44          6           0       -6.896625   -5.867009    4.226195
     45          1           0       -9.459754    2.412025    3.236973
     46          1           0       -8.028003    4.362038   -2.514683
     47          1           0       -7.842133   -1.576995   -4.547546
     48          1           0       -9.305130   -2.505052    3.700922
     49          1           0       -9.200455    0.186093    4.534128
     50          1           0      -11.233263   -1.402540    3.014318
     51          1           0      -11.215947    0.351533    2.654883
     52          1           0      -11.495044   -0.151724    4.297874
     53          1           0       -6.981482   -0.684599    4.362676
     54          1           0       -6.607852   -2.348847    3.760054
     55          1           0       -8.489148   -2.558977    5.882215
     56          1           0       -7.512905   -1.204773    6.307578
     57          1           0       -8.856110    4.399390    3.595943
     58          1           0       -9.162725    5.782183    2.616206
     59          1           0       -7.486636    5.480645    3.142624
     60          1           0       -8.157687    7.271145    1.278418
     61          1           0       -6.883927    8.012538    0.157549
     62          1           0       -6.482377    6.797523    1.400701
     63          1           0       -7.347029    3.230753   -4.695723
     64          1           0       -8.777124    0.751673   -5.518507
     65          1           0       -9.240131    4.068133   -5.601455
     66          1           0      -10.134385    3.386834   -4.199715
     67          1           0       -9.998162    2.485848   -5.619800
     68          1           0       -6.750932    1.673772   -6.707031
     69          1           0       -6.700325   -0.056642   -6.389307
     70          1           0       -5.296934    2.202180   -5.174853
     71          1           0       -4.603330    0.627498   -5.690584
     72          1           0       -5.514140    0.810914   -4.124860
     73          1           0       -7.320598   -5.040862   -3.488421
     74          1           0       -7.790016   -3.688700   -4.579462
     75          1           0       -9.068056   -4.510141   -3.590820
     76          1           0       -9.205821   -4.364390    1.520857
     77          1           0       -7.173170   -6.914513    4.346578
     78          1           0       -6.941157   -5.227396    5.107850
     79          1           0       -5.856408   -5.963454    3.913167
     80         12           0        8.008411    0.764752    0.414700
     81          6           0        7.949654   -2.246316   -1.536997
     82          6           0        6.992786   -1.115838    3.072991
     83          6           0        7.615536    3.459068    2.043726
     84          6           0        7.898603    2.543303   -2.580360
     85          7           0        7.562999   -1.392311    0.617125
     86          6           0        7.635227   -2.449786   -0.177153
     87          6           0        7.433419   -3.810046    0.542942
     88          6           0        6.591931   -3.289940    1.807955
     89          6           0        7.101626   -1.851349    1.865812
     90          6           0        5.092896   -3.255969    1.560809
     91          6           0        8.791634   -4.459926    0.984437
     92          6           0        8.693671   -5.925315    1.414286
     93          1           0        9.805375   -6.818609    1.100231
     94          7           0        7.873304    1.075110    2.370208
     95          6           0        7.463913    0.194661    3.307483
     96          6           0        7.525320    0.913959    4.589274
     97          6           0        7.846756    2.340288    4.311831
     98          6           0        7.768790    2.351414    2.864804
     99          6           0        7.368393    0.228319    5.915437
    100          6           0        8.158525    3.504856    5.202213
    101          8           0        8.172749    4.707115    4.758140
    102          6           0        8.354731    3.205748    6.628230
    103          7           0        7.575705    2.713439   -0.166433
    104          6           0        7.511836    3.706487    0.737827
    105          6           0        7.462721    5.056474    0.062918
    106          6           0        7.751994    4.774031   -1.484378
    107          6           0        7.833496    3.232107   -1.449229
    108          6           0        6.147572    5.822745    0.202923
    109          6           0        8.921189    5.561329   -2.136910
    110          6           0       10.238628    5.111696   -1.547375
    111          7           0        8.122434    0.279368   -1.687555
    112          6           0        8.029227    1.174324   -2.775872
    113          6           0        8.046596    0.362391   -4.009930
    114          6           0        8.126138   -0.960599   -3.549644
    115          6           0        8.135857   -0.973512   -2.128650
    116          6           0        7.944244    0.864812   -5.337790
    117          6           0        8.193375   -2.349761   -3.942599
    118          8           0        8.305117   -2.945195   -5.013447
    119          6           0        7.954544   -3.251158   -2.655423
    120          6           0        9.013591   -4.319072   -2.633209
    121          8           0       10.210716   -4.018946   -2.480113
    122          8           0        8.421310   -5.525936   -2.577975
    123          6           0        9.430974   -6.617341   -2.542953
    124          1           0        6.458790   -1.567598    3.909442
    125          1           0        7.586950    4.424314    2.554553
    126          1           0        7.966674    3.028660   -3.556308
    127          1           0        6.855619   -4.537672   -0.014262
    128          1           0        6.864915   -3.827834    2.712115
    129          1           0        4.849103   -3.475813    0.532040
    130          1           0        4.774754   -2.254472    1.819321
    131          1           0        4.580556   -3.924485    2.258610
    132          1           0        9.113999   -4.007580    1.931121
    133          1           0        9.531004   -4.357998    0.214002
    134          1           0        7.740336   -6.379128    1.117367
    135          1           0        8.681615   -5.966618    2.506147
    136          1           0        6.977455   -0.789908    5.798071
    137          1           0        6.580652    0.760698    6.459412
    138          1           0        8.283875    0.247687    6.510565
    139          1           0        7.459962    2.731292    7.024146
    140          1           0        8.655928    4.149939    7.086118
    141          1           0        9.166549    2.476110    6.724175
    142          1           0        8.233605    5.711006    0.450775
    143          1           0        6.886639    5.028702   -2.113771
    144          1           0        6.272461    6.825403    0.653648
    145          1           0        5.464567    5.223987    0.790738
    146          1           0        5.593555    5.962402   -0.723778
    147          1           0        8.829887    6.627551   -1.915565
    148          1           0        8.961691    5.458799   -3.216196
    149          1           0       10.309576    5.697714   -0.626164
    150          1           0       11.059177    5.340020   -2.224592
    151          1           0       10.201887    4.053668   -1.262992
    152          1           0        8.677387    0.332790   -5.929354
    153          1           0        8.110276    1.939596   -5.370110
    154          1           0        6.907750    0.602537   -5.566210
    155          1           0        6.950939   -3.671393   -2.731389
    156          1           0        9.203130   -7.290187   -3.375451
    157          1           0        9.376766   -7.041852   -1.522847
    158          1           0       10.460155   -6.355128   -2.758533
 ---------------------------------------------------------------------

 SCF Done:  E(RCAM-B3LYP) =  -4069.81184876     A.U. after   19 cycles

 Excitation energies and oscillator strengths:

 Excited State   1:      Singlet-A      1.6730 eV  741.11 nm  f=0.1958  <S**2>=0.000
     310 -> 316        0.14958
     311 -> 313       -0.34317
     312 -> 314        0.59421
 This state for optimization and/or second-order correction.
 Total Energy, E(TD-HF/TD-DFT) =  -4069.75036890
 Copying the excited state density for this state as the 1-particle RhoCI density.

 Excited State   2:      Singlet-A      1.6818 eV  737.20 nm  f=0.5560  <S**2>=0.000
     309 -> 315        0.15258
     311 -> 313        0.59364
     312 -> 314        0.34289

 Excited State   3:      Singlet-A      2.1854 eV  567.34 nm  f=0.0867  <S**2>=0.000
     310 -> 314        0.63683
     312 -> 316       -0.26986

 Excited State   4:      Singlet-A      2.1929 eV  565.38 nm  f=0.1108  <S**2>=0.000
     309 -> 313        0.63489
     311 -> 315       -0.27593

 Excited State   5:      Singlet-A      2.7635 eV  448.65 nm  f=0.0000  <S**2>=0.000
     312 -> 313        0.70710

 The electronic state is 1-A.
 Alpha  occ. eigenvalues --  -46.87839 -46.87586 -19.26368 -19.26256 -19.19101
 Alpha  occ. eigenvalues --  -19.19074 -19.18849 -19.18665 -19.18219 -19.17973
 Alpha  occ. eigenvalues --  -14.42494 -14.42416 -14.41488 -14.41286 -14.39444
 Alpha  occ. eigenvalues --  -14.39280 -14.38629 -14.38525 -10.39158 -10.39003
 Alpha  occ. eigenvalues --  -10.35482 -10.35344 -10.34440 -10.34149 -10.31776
 Alpha  occ. eigenvalues --  -10.31662 -10.31451 -10.31221 -10.30957 -10.30941
 Alpha  occ. eigenvalues --  -10.30613 -10.30547 -10.30328 -10.30284 -10.30241
 Alpha  occ. eigenvalues --  -10.30074 -10.29958 -10.29825 -10.29671 -10.29367
 Alpha  occ. eigenvalues --  -10.29332 -10.29293 -10.28809 -10.28626 -10.28614
 Alpha  occ. eigenvalues --  -10.28554 -10.28409 -10.28329 -10.28170 -10.28026
 Alpha  occ. eigenvalues --  -10.27929 -10.27834 -10.27770 -10.27624 -10.27588
 Alpha  occ. eigenvalues --  -10.27525 -10.27518 -10.27476 -10.27460 -10.27450
 Alpha  occ. eigenvalues --  -10.27410 -10.27405 -10.27399 -10.27319 -10.27216
 Alpha  occ. eigenvalues --  -10.26962 -10.26781 -10.26597 -10.26439 -10.26381
 Alpha  occ. eigenvalues --  -10.26282 -10.26199 -10.26089 -10.26056 -10.25874
 Alpha  occ. eigenvalues --  -10.25869 -10.25864 -10.25784 -10.25457 -10.25346
 Alpha  occ. eigenvalues --  -10.24875 -10.24827 -10.24799 -10.24703 -10.24685
 Alpha  occ. eigenvalues --  -10.24620  -3.16582  -3.16335  -1.91463  -1.91218
 Alpha  occ. eigenvalues --   -1.91050  -1.90892  -1.90806  -1.90643  -1.16716
 Alpha  occ. eigenvalues --   -1.16552  -1.08679  -1.08578  -1.07250  -1.06919
 Alpha  occ. eigenvalues --   -1.06858  -1.06723  -1.04626  -1.04414  -1.03801
 Alpha  occ. eigenvalues --   -1.03588  -1.03274  -1.02967  -1.02452  -1.02038
 Alpha  occ. eigenvalues --   -0.92019  -0.91907  -0.89552  -0.89428  -0.89243
 Alpha  occ. eigenvalues --   -0.89047  -0.88318  -0.88158  -0.87909  -0.87722
 Alpha  occ. eigenvalues --   -0.87718  -0.87605  -0.87311  -0.87061  -0.85036
 Alpha  occ. eigenvalues --   -0.84909  -0.83968  -0.83816  -0.83000  -0.82879
 Alpha  occ. eigenvalues --   -0.82699  -0.82570  -0.81646  -0.81514  -0.80646
 Alpha  occ. eigenvalues --   -0.80365  -0.78836  -0.78569  -0.77261  -0.77065
 Alpha  occ. eigenvalues --   -0.76989  -0.76813  -0.75977  -0.75745  -0.74934
 Alpha  occ. eigenvalues --   -0.74736  -0.72814  -0.72625  -0.71715  -0.71499
 Alpha  occ. eigenvalues --   -0.69933  -0.69699  -0.68924  -0.68741  -0.67685
 Alpha  occ. eigenvalues --   -0.67529  -0.67276  -0.67120  -0.65341  -0.65181
 Alpha  occ. eigenvalues --   -0.64902  -0.64694  -0.64669  -0.64572  -0.64304
 Alpha  occ. eigenvalues --   -0.64138  -0.62360  -0.62197  -0.60478  -0.60278
 Alpha  occ. eigenvalues --   -0.59855  -0.59703  -0.59030  -0.58918  -0.58548
 Alpha  occ. eigenvalues --   -0.58351  -0.57642  -0.57471  -0.57350  -0.57170
 Alpha  occ. eigenvalues --   -0.56353  -0.56131  -0.56047  -0.55802  -0.55563
 Alpha  occ. eigenvalues --   -0.55382  -0.55381  -0.55178  -0.54574  -0.54416
 Alpha  occ. eigenvalues --   -0.53951  -0.53812  -0.53339  -0.53271  -0.53159
 Alpha  occ. eigenvalues --   -0.53063  -0.52968  -0.52822  -0.52799  -0.52600
 Alpha  occ. eigenvalues --   -0.52464  -0.52345  -0.51952  -0.51815  -0.51670
 Alpha  occ. eigenvalues --   -0.51574  -0.51242  -0.51125  -0.50607  -0.50420
 Alpha  occ. eigenvalues --   -0.50062  -0.49958  -0.49901  -0.49804  -0.49562
 Alpha  occ. eigenvalues --   -0.49413  -0.49261  -0.49148  -0.49122  -0.49010
 Alpha  occ. eigenvalues --   -0.48645  -0.48497  -0.48489  -0.48472  -0.48312
 Alpha  occ. eigenvalues --   -0.48276  -0.47740  -0.47518  -0.47338  -0.47050
 Alpha  occ. eigenvalues --   -0.46838  -0.46634  -0.46611  -0.46462  -0.46400
 Alpha  occ. eigenvalues --   -0.46205  -0.46201  -0.46014  -0.45874  -0.45741
 Alpha  occ. eigenvalues --   -0.45234  -0.45144  -0.44627  -0.44549  -0.44436
 Alpha  occ. eigenvalues --   -0.44391  -0.44184  -0.44138  -0.44066  -0.44040
 Alpha  occ. eigenvalues --   -0.44014  -0.43869  -0.43551  -0.43472  -0.43431
 Alpha  occ. eigenvalues --   -0.43303  -0.43071  -0.42849  -0.42821  -0.42765
 Alpha  occ. eigenvalues --   -0.42692  -0.42492  -0.42050  -0.41892  -0.41749
 Alpha  occ. eigenvalues --   -0.41590  -0.41587  -0.41374  -0.41185  -0.40917
 Alpha  occ. eigenvalues --   -0.40903  -0.40864  -0.40656  -0.40618  -0.40606
 Alpha  occ. eigenvalues --   -0.40422  -0.40299  -0.40137  -0.39466  -0.39369
 Alpha  occ. eigenvalues --   -0.38505  -0.38282  -0.37811  -0.37565  -0.37356
 Alpha  occ. eigenvalues --   -0.37318  -0.37195  -0.37113  -0.36779  -0.36688
 Alpha  occ. eigenvalues --   -0.36244  -0.36142  -0.34329  -0.34177  -0.33845
 Alpha  occ. eigenvalues --   -0.33778  -0.33230  -0.33101  -0.31379  -0.31223
 Alpha  occ. eigenvalues --   -0.31079  -0.30897  -0.30080  -0.29876  -0.29489
 Alpha  occ. eigenvalues --   -0.29363  -0.29260  -0.29139  -0.24123  -0.23960
 Alpha  occ. eigenvalues --   -0.21168  -0.21043
 Alpha virt. eigenvalues --   -0.08815  -0.08720  -0.01790  -0.01612  -0.00099
 Alpha virt. eigenvalues --    0.00039   0.02157   0.02280   0.03075   0.03292
 Alpha virt. eigenvalues --    0.04667   0.04817   0.05024   0.05252   0.06105

 Mulliken charges:
               1
     1  Mg   0.838643
     2  C   -0.003138
     3  C   -0.094215
     4  C   -0.045812
     5  C   -0.063813
     6  N   -0.256789
     7  C   -0.052532
     8  C   -0.014027
     9  C   -0.087004
    10  C    0.046277
    11  C    0.104793
    12  C    0.053518
    13  C   -0.071595
    14  H    0.035406
    15  N   -0.433177
    16  C    0.168426
    17  C   -0.177152
    18  C   -0.003936
    19  C    0.148702
    20  C    0.110162
    21  C    0.012307
    22  O   -0.249525
    23  C    0.062463
    24  N   -0.341143
    25  C    0.041279
    26  C   -0.028215
    27  C   -0.024007
    28  C    0.074802
    29  C    0.076144
    30  C    0.035101
    31  C   -0.004562
    32  N   -0.310442
    33  C    0.080347
    34  C   -0.169632
    35  C    0.008308
    36  C    0.082938
    37  C    0.127309
    38  C    0.046059
    39  O   -0.188555
    40  C   -0.005341
    41  C    0.212901
    42  O   -0.257477
    43  O   -0.304648
    44  C    0.157842
    45  H   -0.017577
    46  H   -0.016721
    47  H   -0.041280
    48  H    0.000922
    49  H   -0.004115
    50  H    0.025500
    51  H    0.016576
    52  H    0.016685
    53  H    0.011154
    54  H    0.043818
    55  H    0.018041
    56  H    0.017995
    57  H    0.005829
    58  H    0.026936
    59  H    0.039590
    60  H    0.037396
    61  H    0.035763
    62  H    0.031508
    63  H    0.016621
    64  H    0.009574
    65  H    0.023316
    66  H    0.012529
    67  H    0.004863
    68  H    0.006523
    69  H    0.004924
    70  H    0.008741
    71  H    0.018460
    72  H    0.028767
    73  H    0.047568
    74  H    0.009336
    75  H    0.046066
    76  H    0.035212
    77  H    0.042969
    78  H    0.046332
    79  H    0.053193
    80  Mg   0.837917
    81  C   -0.016766
    82  C   -0.087672
    83  C   -0.045677
    84  C   -0.064916
    85  N   -0.254612
    86  C   -0.049582
    87  C   -0.015152
    88  C   -0.090528
    89  C    0.045820
    90  C    0.114293
    91  C    0.062513
    92  C   -0.077892
    93  H    0.034626
    94  N   -0.423481
    95  C    0.162875
    96  C   -0.174653
    97  C   -0.008025
    98  C    0.152206
    99  C    0.099407
   100  C    0.015418
   101  O   -0.253463
   102  C    0.061256
   103  N   -0.350042
   104  C    0.037592
   105  C   -0.019832
   106  C   -0.034796
   107  C    0.088954
   108  C    0.073674
   109  C    0.034761
   110  C   -0.007629
   111  N   -0.324128
   112  C    0.078538
   113  C   -0.163166
   114  C    0.002345
   115  C    0.096194
   116  C    0.131465
   117  C    0.042415
   118  O   -0.187832
   119  C    0.000905
   120  C    0.211224
   121  O   -0.251228
   122  O   -0.305393
   123  C    0.152083
   124  H   -0.019444
   125  H   -0.015862
   126  H   -0.040581
   127  H   -0.000143
   128  H   -0.004430
   129  H    0.023108
   130  H    0.014520
   131  H    0.017021
   132  H    0.013706
   133  H    0.037503
   134  H    0.021286
   135  H    0.019516
   136  H    0.008902
   137  H    0.025873
   138  H    0.039574
   139  H    0.038089
   140  H    0.036084
   141  H    0.033897
   142  H    0.014201
   143  H    0.012467
   144  H    0.024823
   145  H    0.011668
   146  H    0.005773
   147  H    0.006100
   148  H    0.003613
   149  H    0.010811
   150  H    0.017798
   151  H    0.030195
   152  H    0.045897
   153  H    0.008364
   154  H    0.047087
   155  H    0.035619
   156  H    0.043986
   157  H    0.049600
   158  H    0.053363
 Sum of Mulliken charges =  -0.00000

 Dipole moment (field-independent basis, Debye):
    X=             -4.4717    Y=              2.0624    Z=              6.3960  Tot=              8.0721
 Quadrupole moment (field-independent basis, Debye-Ang):
   XX=           -517.8538   YY=           -527.0557   ZZ=           -472.2404
   XY=            -25.1408   XZ=              6.5031   YZ=            -26.1273

 Normal termination of Gaussian 16 at Sat Sep  4 16:10:53 2021.
