 Gaussian 16, Revision A.03,
 Gaussian 16:  ES64L-G16RevA.03 25-Dec-2016

 -----------------------------------
 #p cam-b3lyp/Def2SVP td=(nstates=5)
 -----------------------------------

 --------------------------------
 TDDFT excited states in gaussian
 --------------------------------
 Symbolic Z-matrix:
 Charge =  0 Multiplicity = 1

                         Standard orientation:
 ---------------------------------------------------------------------
 Center     Atomic      Atomic             Coordinates (Angstroms)
 Number     Number       Type             X           Y           Z
 ---------------------------------------------------------------------
      1         12           0        3.226714   -2.027100    0.537578
      2          6           0        4.752299    1.130213   -0.180877
      3          6           0        3.886294   -1.428166    3.831404
      4          6           0        2.300289   -4.997297    1.151003
      5          6           0        3.715516   -2.858645   -2.811343
      6          7           0        4.199026   -0.327210    1.569869
      7          6           0        4.686167    0.848413    1.185454
      8          6           0        5.050663    1.785212    2.375800
      9          6           0        5.270819    0.682276    3.505871
     10          6           0        4.371480   -0.411098    2.956647
     11          6           0        6.700544    0.155050    3.572356
     12          6           0        3.881558    2.758939    2.745638
     13          6           0        4.264405    3.918040    3.670445
     14          1           0        3.620486    5.208788    3.478914
     15          7           0        2.665270   -2.869508    2.234039
     16          6           0        3.015627   -2.483869    3.484566
     17          6           0        2.343337   -3.425965    4.404981
     18          6           0        1.727788   -4.504350    3.582619
     19          6           0        2.235279   -4.176857    2.274728
     20          6           0        2.288994   -3.228948    5.888888
     21          6           0        0.833881   -5.654542    3.923383
     22          8           0        0.603381   -6.604288    3.099110
     23          6           0        0.298536   -5.686131    5.296500
     24          7           0        3.230157   -3.778806   -0.597831
     25          6           0        2.718620   -4.915902   -0.113758
     26          6           0        2.571953   -5.950354   -1.190019
     27          6           0        2.865443   -5.199125   -2.568160
     28          6           0        3.229960   -3.803955   -2.003450
     29          6           0        3.489667   -7.174935   -1.070803
     30          6           0        1.774221   -5.289044   -3.664321
     31          6           0        0.538815   -4.537534   -3.221483
     32          7           0        3.914396   -1.000833   -1.247055
     33          6           0        4.059478   -1.546874   -2.530590
     34          6           0        4.657149   -0.500437   -3.380195
     35          6           0        4.834691    0.583224   -2.522290
     36          6           0        4.401219    0.226992   -1.213285
     37          6           0        5.016514   -0.643166   -4.749472
     38          6           0        5.312576    1.951016   -2.401347
     39          8           0        5.706401    2.805485   -3.196506
     40          6           0        5.391421    2.319267   -0.854091
     41          6           0        4.740705    3.663559   -0.673101
     42          8           0        3.515591    3.811509   -0.859037
     43          8           0        5.607953    4.501669   -0.084887
     44          6           0        5.015113    5.845282    0.150480
     45          1           0        4.249834   -1.456843    4.860461
     46          1           0        1.886489   -5.997842    1.292837
     47          1           0        3.818688   -3.017539   -3.886313
     48          1           0        5.964625    2.362812    2.236240
     49          1           0        4.909364    1.017664    4.477769
     50          1           0        7.302731    0.531186    2.745426
     51          1           0        6.613420   -0.930234    3.517027
     52          1           0        7.148151    0.370624    4.542899
     53          1           0        3.169154    2.238457    3.385671
     54          1           0        3.410958    3.156151    1.845591
     55          1           0        5.346448    4.036651    3.733870
     56          1           0        3.960212    3.660323    4.684964
     57          1           0        2.969143   -2.442520    6.213655
     58          1           0        2.684868   -4.136005    6.345221
     59          1           0        1.273013   -3.052751    6.242540
     60          1           0        1.126660   -5.708633    6.005198
     61          1           0       -0.390101   -6.529581    5.331434
     62          1           0       -0.242111   -4.758394    5.486117
     63          1           0        1.559803   -6.352281   -1.210784
     64          1           0        3.764374   -5.576399   -3.056280
     65          1           0        2.952481   -8.123107   -1.037550
     66          1           0        4.110428   -7.045874   -0.184637
     67          1           0        4.243547   -7.259056   -1.853111
     68          1           0        1.479585   -6.326018   -3.821867
     69          1           0        2.094908   -4.885774   -4.624937
     70          1           0        0.018301   -5.267818   -2.602951
     71          1           0       -0.065008   -4.255958   -4.084804
     72          1           0        0.794764   -3.692395   -2.582174
     73          1           0        4.683944    0.266923   -5.248576
     74          1           0        4.555901   -1.527289   -5.189658
     75          1           0        6.099337   -0.734361   -4.665605
     76          1           0        6.448222    2.337057   -0.589561
     77          1           0        5.668275    6.573133   -0.331024
     78          1           0        4.865463    5.933748    1.226670
     79          1           0        4.070584    6.050590   -0.354547
     80         12           0       -4.125212    0.762056   -0.604360
     81          6           0       -1.535838    3.244647   -0.709085
     82          6           0       -4.783045    1.797550    2.578340
     83          6           0       -6.102389   -1.702833   -0.317102
     84          6           0       -2.541168   -0.803178   -3.285131
     85          7           0       -3.209870    2.328355    0.660991
     86          6           0       -2.273906    3.250340    0.492854
     87          6           0       -2.174719    4.284029    1.646635
     88          6           0       -2.814360    3.395340    2.821348
     89          6           0       -3.687029    2.467610    1.978466
     90          6           0       -1.791595    2.548328    3.560178
     91          6           0       -3.028120    5.571500    1.370699
     92          6           0       -2.736609    6.748545    2.304151
     93          1           0       -2.805989    8.101993    1.760225
     94          7           0       -5.593598    0.437670    0.690693
     95          6           0       -5.714734    0.957025    1.930409
     96          6           0       -6.956298    0.393745    2.483033
     97          6           0       -7.471972   -0.627973    1.531772
     98          6           0       -6.374249   -0.686800    0.587509
     99          6           0       -7.578674    0.889326    3.756005
    100          6           0       -8.737326   -1.429894    1.487213
    101          8           0       -8.871988   -2.432083    0.699626
    102          6           0       -9.779087   -1.065289    2.458447
    103          7           0       -4.184850   -1.110188   -1.506293
    104          6           0       -5.181785   -1.973082   -1.242725
    105          6           0       -5.167047   -3.134773   -2.207431
    106          6           0       -4.095342   -2.747760   -3.329603
    107          6           0       -3.589052   -1.410616   -2.745560
    108          6           0       -4.806799   -4.493512   -1.607073
    109          6           0       -4.580655   -2.773378   -4.804896
    110          6           0       -5.594126   -1.675285   -5.033957
    111          7           0       -2.471909    1.220941   -1.917396
    112          6           0       -1.959198    0.414659   -2.957162
    113          6           0       -0.762697    1.098777   -3.488949
    114          6           0       -0.648073    2.253383   -2.700126
    115          6           0       -1.687181    2.276366   -1.730989
    116          6           0        0.077528    0.615394   -4.531290
    117          6           0        0.121897    3.452628   -2.459995
    118          8           0        1.064078    4.007511   -3.024016
    119          6           0       -0.344351    4.084234   -1.077939
    120          6           0       -0.563921    5.556979   -1.290874
    121          8           0       -1.471110    5.958851   -2.040613
    122          8           0        0.186271    6.245967   -0.411740
    123          6           0       -0.005675    7.711539   -0.576291
    124          1           0       -4.920263    1.889127    3.656152
    125          1           0       -6.821510   -2.525082   -0.332775
    126          1           0       -2.048897   -1.177634   -4.185208
    127          1           0       -1.165035    4.576247    1.909179
    128          1           0       -3.428961    3.999448    3.483667
    129          1           0       -0.818293    2.594714    3.094694
    130          1           0       -2.174800    1.536586    3.535821
    131          1           0       -1.758529    2.832738    4.615804
    132          1           0       -4.073465    5.372656    1.639875
    133          1           0       -2.925018    5.885465    0.350199
    134          1           0       -1.805694    6.607721    2.866746
    135          1           0       -3.512128    6.781861    3.073228
    136          1           0       -6.887953    1.529137    4.318980
    137          1           0       -7.726676    0.016180    4.400650
    138          1           0       -8.542944    1.375139    3.592137
    139          1           0       -9.380130   -1.153534    3.466167
    140          1           0      -10.639693   -1.690328    2.212358
    141          1           0      -10.038451   -0.010557    2.313895
    142          1           0       -6.135661   -3.261241   -2.675283
    143          1           0       -3.237442   -3.436117   -3.328358
    144          1           0       -5.583559   -5.263727   -1.772863
    145          1           0       -4.622194   -4.361159   -0.549272
    146          1           0       -3.866042   -4.917133   -1.954531
    147          1           0       -5.090347   -3.715856   -5.019591
    148          1           0       -3.776603   -2.670557   -5.525943
    149          1           0       -6.527625   -2.123393   -4.680586
    150          1           0       -5.652856   -1.422550   -6.090705
    151          1           0       -5.384048   -0.807042   -4.398606
    152          1           0        0.291304    1.458253   -5.175018
    153          1           0       -0.396768   -0.195185   -5.080646
    154          1           0        0.933953    0.269002   -3.946636
    155          1           0        0.441168    3.888917   -0.346921
    156          1           0        0.985041    8.147302   -0.738349
    157          1           0       -0.560952    8.042757    0.321323
    158          1           0       -0.533456    8.051847   -1.459514
 ---------------------------------------------------------------------

 SCF Done:  E(RCAM-B3LYP) =  -4069.81057351     A.U. after   19 cycles

 Excitation energies and oscillator strengths:

 Excited State   1:      Singlet-A      1.6323 eV  759.58 nm  f=0.0813  <S**2>=0.000
     309 -> 315       -0.11510
     310 -> 316        0.11534
     311 -> 313       -0.48365
     312 -> 314        0.48792
 This state for optimization and/or second-order correction.
 Total Energy, E(TD-HF/TD-DFT) =  -4069.75058840
 Copying the excited state density for this state as the 1-particle RhoCI density.

 Excited State   2:      Singlet-A      1.7176 eV  721.86 nm  f=0.6178  <S**2>=0.000
     309 -> 315        0.13172
     310 -> 316        0.12908
     311 -> 313        0.48514
     312 -> 314        0.48120

 Excited State   3:      Singlet-A      2.1777 eV  569.33 nm  f=0.0034  <S**2>=0.000
     309 -> 313       -0.39475
     310 -> 314        0.51038
     311 -> 315        0.16151
     312 -> 316       -0.21210

 Excited State   4:      Singlet-A      2.2003 eV  563.49 nm  f=0.1541  <S**2>=0.000
     309 -> 313        0.49869
     310 -> 314        0.37705
     311 -> 315       -0.22380
     312 -> 313        0.12822
     312 -> 316       -0.17058

 Excited State   5:      Singlet-A      2.2053 eV  562.21 nm  f=0.0060  <S**2>=0.000
     312 -> 313        0.69346

 The electronic state is 1-A.
 Alpha  occ. eigenvalues --  -46.87789 -46.87239 -19.25969 -19.25818 -19.18803
 Alpha  occ. eigenvalues --  -19.18676 -19.18570 -19.18331 -19.17914 -19.17070
 Alpha  occ. eigenvalues --  -14.42459 -14.42114 -14.41453 -14.40931 -14.39392
 Alpha  occ. eigenvalues --  -14.38921 -14.38566 -14.38131 -10.38727 -10.38473
 Alpha  occ. eigenvalues --  -10.35439 -10.35019 -10.34145 -10.33220 -10.31434
 Alpha  occ. eigenvalues --  -10.31393 -10.31381 -10.30903 -10.30858 -10.30621
 Alpha  occ. eigenvalues --  -10.30547 -10.30488 -10.30242 -10.29924 -10.29918
 Alpha  occ. eigenvalues --  -10.29862 -10.29801 -10.29611 -10.29436 -10.29275
 Alpha  occ. eigenvalues --  -10.29057 -10.28922 -10.28789 -10.28668 -10.28465
 Alpha  occ. eigenvalues --  -10.28398 -10.28318 -10.28147 -10.27904 -10.27850
 Alpha  occ. eigenvalues --  -10.27746 -10.27736 -10.27587 -10.27567 -10.27513
 Alpha  occ. eigenvalues --  -10.27506 -10.27478 -10.27370 -10.27285 -10.27204
 Alpha  occ. eigenvalues --  -10.27143 -10.27020 -10.27007 -10.27004 -10.26964
 Alpha  occ. eigenvalues --  -10.26837 -10.26414 -10.26413 -10.26362 -10.26250
 Alpha  occ. eigenvalues --  -10.26120 -10.26119 -10.26048 -10.25898 -10.25846
 Alpha  occ. eigenvalues --  -10.25741 -10.25545 -10.25474 -10.25303 -10.25036
 Alpha  occ. eigenvalues --  -10.24968 -10.24780 -10.24763 -10.24484 -10.24322
 Alpha  occ. eigenvalues --  -10.24238  -3.16531  -3.15991  -1.91412  -1.91000
 Alpha  occ. eigenvalues --   -1.90874  -1.90841  -1.90462  -1.90297  -1.16306
 Alpha  occ. eigenvalues --   -1.16083  -1.08339  -1.07608  -1.07205  -1.06592
 Alpha  occ. eigenvalues --   -1.06331  -1.06261  -1.04578  -1.04081  -1.03764
 Alpha  occ. eigenvalues --   -1.03235  -1.03221  -1.02599  -1.02401  -1.01659
 Alpha  occ. eigenvalues --   -0.91897  -0.91412  -0.89567  -0.89223  -0.89088
 Alpha  occ. eigenvalues --   -0.88838  -0.88331  -0.87839  -0.87816  -0.87691
 Alpha  occ. eigenvalues --   -0.87310  -0.87270  -0.87261  -0.86722  -0.85010
 Alpha  occ. eigenvalues --   -0.84652  -0.83995  -0.83501  -0.82981  -0.82642
 Alpha  occ. eigenvalues --   -0.82575  -0.82283  -0.81461  -0.81121  -0.80535
 Alpha  occ. eigenvalues --   -0.80007  -0.78779  -0.78200  -0.77245  -0.76930
 Alpha  occ. eigenvalues --   -0.76791  -0.76518  -0.75864  -0.75418  -0.74906
 Alpha  occ. eigenvalues --   -0.74396  -0.72762  -0.72255  -0.71657  -0.71164
 Alpha  occ. eigenvalues --   -0.70015  -0.69436  -0.68885  -0.68462  -0.67602
 Alpha  occ. eigenvalues --   -0.67263  -0.67130  -0.66856  -0.65294  -0.64883
 Alpha  occ. eigenvalues --   -0.64828  -0.64585  -0.64355  -0.64294  -0.64236
 Alpha  occ. eigenvalues --   -0.63806  -0.62129  -0.61792  -0.60445  -0.59929
 Alpha  occ. eigenvalues --   -0.59813  -0.59427  -0.58964  -0.58541  -0.58456
 Alpha  occ. eigenvalues --   -0.57934  -0.57447  -0.57224  -0.56903  -0.56719
 Alpha  occ. eigenvalues --   -0.56274  -0.55824  -0.55761  -0.55498  -0.55433
 Alpha  occ. eigenvalues --   -0.55308  -0.55046  -0.54812  -0.54421  -0.54041
 Alpha  occ. eigenvalues --   -0.53918  -0.53579  -0.53284  -0.53212  -0.52847
 Alpha  occ. eigenvalues --   -0.52820  -0.52770  -0.52741  -0.52493  -0.52478
 Alpha  occ. eigenvalues --   -0.52333  -0.52058  -0.51848  -0.51627  -0.51337
 Alpha  occ. eigenvalues --   -0.51301  -0.51130  -0.50663  -0.50595  -0.50141
 Alpha  occ. eigenvalues --   -0.50104  -0.49923  -0.49644  -0.49512  -0.49498
 Alpha  occ. eigenvalues --   -0.49155  -0.49116  -0.49075  -0.48790  -0.48626
 Alpha  occ. eigenvalues --   -0.48525  -0.48419  -0.48335  -0.48110  -0.47980
 Alpha  occ. eigenvalues --   -0.47758  -0.47672  -0.47271  -0.47173  -0.46812
 Alpha  occ. eigenvalues --   -0.46732  -0.46569  -0.46350  -0.46325  -0.46221
 Alpha  occ. eigenvalues --   -0.46085  -0.45862  -0.45703  -0.45621  -0.45319
 Alpha  occ. eigenvalues --   -0.45227  -0.44801  -0.44548  -0.44466  -0.44186
 Alpha  occ. eigenvalues --   -0.44173  -0.44101  -0.43983  -0.43901  -0.43724
 Alpha  occ. eigenvalues --   -0.43676  -0.43429  -0.43386  -0.43335  -0.43138
 Alpha  occ. eigenvalues --   -0.42988  -0.42953  -0.42768  -0.42468  -0.42421
 Alpha  occ. eigenvalues --   -0.42334  -0.42190  -0.42039  -0.41629  -0.41603
 Alpha  occ. eigenvalues --   -0.41546  -0.41118  -0.41115  -0.41018  -0.40918
 Alpha  occ. eigenvalues --   -0.40842  -0.40599  -0.40546  -0.40381  -0.40375
 Alpha  occ. eigenvalues --   -0.40316  -0.40088  -0.39932  -0.39583  -0.39108
 Alpha  occ. eigenvalues --   -0.38529  -0.38007  -0.37804  -0.37359  -0.37349
 Alpha  occ. eigenvalues --   -0.37273  -0.36886  -0.36808  -0.36557  -0.36278
 Alpha  occ. eigenvalues --   -0.36009  -0.35789  -0.34268  -0.33810  -0.33469
 Alpha  occ. eigenvalues --   -0.33286  -0.33109  -0.32723  -0.31333  -0.31012
 Alpha  occ. eigenvalues --   -0.30893  -0.30526  -0.29778  -0.29424  -0.29254
 Alpha  occ. eigenvalues --   -0.28954  -0.28868  -0.28615  -0.24066  -0.23584
 Alpha  occ. eigenvalues --   -0.21128  -0.20685
 Alpha virt. eigenvalues --   -0.08751  -0.08315  -0.01754  -0.01284  -0.00028
 Alpha virt. eigenvalues --    0.00415   0.02297   0.02502   0.03028   0.03739
 Alpha virt. eigenvalues --    0.04680   0.05041   0.05315   0.05803   0.06064

 Mulliken charges:
               1
     1  Mg   0.838038
     2  C   -0.004038
     3  C   -0.094756
     4  C   -0.045733
     5  C   -0.066321
     6  N   -0.256251
     7  C   -0.053888
     8  C   -0.012959
     9  C   -0.086791
    10  C    0.045414
    11  C    0.104846
    12  C    0.051595
    13  C   -0.071089
    14  H    0.035146
    15  N   -0.433213
    16  C    0.168035
    17  C   -0.177618
    18  C   -0.004124
    19  C    0.148949
    20  C    0.110309
    21  C    0.012547
    22  O   -0.249702
    23  C    0.062513
    24  N   -0.341001
    25  C    0.041109
    26  C   -0.028377
    27  C   -0.023877
    28  C    0.075544
    29  C    0.076121
    30  C    0.036366
    31  C   -0.009779
    32  N   -0.310713
    33  C    0.078142
    34  C   -0.171972
    35  C    0.011376
    36  C    0.084103
    37  C    0.126561
    38  C    0.054076
    39  O   -0.183028
    40  C   -0.008583
    41  C    0.214892
    42  O   -0.243880
    43  O   -0.306569
    44  C    0.155351
    45  H   -0.017975
    46  H   -0.017113
    47  H   -0.041888
    48  H    0.001844
    49  H   -0.004978
    50  H    0.025897
    51  H    0.016591
    52  H    0.016371
    53  H    0.009344
    54  H    0.045075
    55  H    0.019033
    56  H    0.016687
    57  H    0.005272
    58  H    0.026820
    59  H    0.038513
    60  H    0.037086
    61  H    0.035896
    62  H    0.031087
    63  H    0.016003
    64  H    0.009949
    65  H    0.023169
    66  H    0.012928
    67  H    0.004784
    68  H    0.006409
    69  H    0.004242
    70  H    0.009612
    71  H    0.016335
    72  H    0.031808
    73  H    0.051156
    74  H    0.007615
    75  H    0.045987
    76  H    0.034444
    77  H    0.041969
    78  H    0.043236
    79  H    0.059460
    80  Mg   0.834712
    81  C   -0.016990
    82  C   -0.088259
    83  C   -0.046240
    84  C   -0.067604
    85  N   -0.253659
    86  C   -0.050864
    87  C   -0.013923
    88  C   -0.090606
    89  C    0.044396
    90  C    0.113847
    91  C    0.062864
    92  C   -0.076712
    93  H    0.033883
    94  N   -0.423194
    95  C    0.161566
    96  C   -0.176108
    97  C   -0.008867
    98  C    0.151317
    99  C    0.099984
   100  C    0.014691
   101  O   -0.254373
   102  C    0.061579
   103  N   -0.350610
   104  C    0.037551
   105  C   -0.020182
   106  C   -0.035557
   107  C    0.090348
   108  C    0.073527
   109  C    0.034682
   110  C   -0.007173
   111  N   -0.324592
   112  C    0.078081
   113  C   -0.165298
   114  C    0.005083
   115  C    0.093179
   116  C    0.130591
   117  C    0.052796
   118  O   -0.171695
   119  C    0.001473
   120  C    0.210091
   121  O   -0.253511
   122  O   -0.303324
   123  C    0.152728
   124  H   -0.022092
   125  H   -0.016645
   126  H   -0.041798
   127  H   -0.000828
   128  H   -0.005747
   129  H    0.022992
   130  H    0.013597
   131  H    0.012900
   132  H    0.013594
   133  H    0.038277
   134  H    0.018924
   135  H    0.018668
   136  H    0.007175
   137  H    0.024275
   138  H    0.038476
   139  H    0.037397
   140  H    0.035244
   141  H    0.033330
   142  H    0.013435
   143  H    0.013374
   144  H    0.024020
   145  H    0.012913
   146  H    0.005320
   147  H    0.005276
   148  H    0.001832
   149  H    0.010795
   150  H    0.017035
   151  H    0.030937
   152  H    0.046277
   153  H    0.003763
   154  H    0.052286
   155  H    0.046044
   156  H    0.039382
   157  H    0.047202
   158  H    0.053306
 Sum of Mulliken charges =  -0.00000

 Dipole moment (field-independent basis, Debye):
    X=              1.2296    Y=             -0.8042    Z=              7.8242  Tot=              7.9609
 Quadrupole moment (field-independent basis, Debye-Ang):
   XX=           -519.6383   YY=           -514.6682   ZZ=           -470.7157
   XY=            -23.5545   XZ=              9.5516   YZ=             54.5432

 Normal termination of Gaussian 16 at Thu Sep  9 05:36:30 2021.
