 Gaussian 16, Revision A.03,
 Gaussian 16:  ES64L-G16RevA.03 25-Dec-2016

 -----------------------------------
 #p cam-b3lyp/Def2SVP td=(nstates=5)
 -----------------------------------

 --------------------------------
 TDDFT excited states in gaussian
 --------------------------------
 Symbolic Z-matrix:
 Charge =  0 Multiplicity = 1

                         Standard orientation:
 ---------------------------------------------------------------------
 Center     Atomic      Atomic             Coordinates (Angstroms)
 Number     Number       Type             X           Y           Z
 ---------------------------------------------------------------------
      1         12           0       -7.846920    0.612943   -0.503516
      2          6           0       -8.093948   -2.666070    0.910437
      3          6           0       -8.904413    1.827867    2.504595
      4          6           0       -8.073248    3.470447   -1.860008
      5          6           0       -7.917119   -0.896477   -3.643959
      6          7           0       -8.395993   -0.391660    1.391197
      7          6           0       -8.390320   -1.649535    1.821185
      8          6           0       -8.655352   -1.780753    3.350863
      9          6           0       -9.437287   -0.411894    3.589196
     10          6           0       -8.852917    0.403332    2.449090
     11          6           0      -10.944707   -0.528238    3.387575
     12          6           0       -7.329161   -1.835090    4.181523
     13          6           0       -7.487291   -2.287540    5.636046
     14          1           0       -6.434939   -3.092771    6.237299
     15          7           0       -7.931154    2.412739    0.306725
     16          6           0       -8.373763    2.721568    1.549305
     17          6           0       -8.236634    4.188306    1.677971
     18          6           0       -7.856870    4.728642    0.343089
     19          6           0       -7.965548    3.546730   -0.473397
     20          6           0       -8.411359    4.920595    2.972952
     21          6           0       -7.469297    6.095786   -0.124712
     22          8           0       -7.403782    6.396935   -1.365514
     23          6           0       -7.251470    7.110959    0.921719
     24          7           0       -8.197711    1.229032   -2.466935
     25          6           0       -8.187703    2.525522   -2.795563
     26          6           0       -8.178208    2.711479   -4.283941
     27          6           0       -7.937561    1.261954   -4.909016
     28          6           0       -7.931954    0.437591   -3.598038
     29          6           0       -9.448408    3.324122   -4.889970
     30          6           0       -6.743287    1.105845   -5.883572
     31          6           0       -5.442094    1.279778   -5.132744
     32          7           0       -7.802664   -1.418548   -1.266490
     33          6           0       -7.864262   -1.816165   -2.609911
     34          6           0       -7.912241   -3.289803   -2.622501
     35          6           0       -7.891812   -3.648876   -1.276212
     36          6           0       -7.861190   -2.473281   -0.472888
     37          6           0       -8.024532   -4.110096   -3.779629
     38          6           0       -7.913600   -4.751625   -0.328939
     39          8           0       -7.845835   -5.977944   -0.424029
     40          6           0       -8.168341   -4.157189    1.126252
     41          6           0       -7.164862   -4.784124    2.055387
     42          8           0       -5.946698   -4.538195    1.941536
     43          8           0       -7.809999   -5.379542    3.070186
     44          6           0       -6.870899   -5.996410    4.044721
     45          1           0       -9.450608    2.304887    3.320723
     46          1           0       -8.042717    4.433927   -2.373050
     47          1           0       -7.854850   -1.439203   -4.588959
     48          1           0       -9.286573   -2.623902    3.632083
     49          1           0       -9.183122    0.040413    4.547601
     50          1           0      -11.218906   -1.503969    2.986720
     51          1           0      -11.205649    0.260390    2.681553
     52          1           0      -11.478015   -0.293814    4.309206
     53          1           0       -6.963416   -0.820833    4.341444
     54          1           0       -6.589348   -2.465054    3.686399
     55          1           0       -8.462631   -2.743761    5.807750
     56          1           0       -7.486989   -1.401690    6.271240
     57          1           0       -8.848799    4.281237    3.738728
     58          1           0       -9.161127    5.693096    2.803250
     59          1           0       -7.482674    5.378275    3.314132
     60          1           0       -8.163272    7.224335    1.508499
     61          1           0       -6.894738    8.002119    0.406524
     62          1           0       -6.486789    6.749986    1.610131
     63          1           0       -7.367849    3.371655   -4.590391
     64          1           0       -8.797006    0.916750   -5.484224
     65          1           0       -9.265526    4.233406   -5.463086
     66          1           0      -10.153636    3.507656   -4.079872
     67          1           0      -10.021129    2.651167   -5.527574
     68          1           0       -6.776574    1.878510   -6.650922
     69          1           0       -6.722097    0.139199   -6.386959
     70          1           0       -5.317883    2.361817   -5.108350
     71          1           0       -4.623670    0.804975   -5.674921
     72          1           0       -5.529105    0.938437   -4.101046
     73          1           0       -7.324042   -4.933230   -3.639150
     74          1           0       -7.799527   -3.548826   -4.686244
     75          1           0       -9.072692   -4.402545   -3.718889
     76          1           0       -9.192216   -4.414887    1.395310
     77          1           0       -7.145359   -7.047596    4.133689
     78          1           0       -6.913252   -5.384394    4.945857
     79          1           0       -5.831670   -6.081394    3.725160
     80         12           0        8.009796    0.775244    0.387102
     81          6           0        7.939368   -2.297484   -1.465600
     82          6           0        6.998305   -1.015924    3.107983
     83          6           0        7.627002    3.521843    1.928877
     84          6           0        7.894664    2.455823   -2.663821
     85          7           0        7.560736   -1.373183    0.660755
     86          6           0        7.628555   -2.456044   -0.098963
     87          6           0        7.426190   -3.791778    0.665504
     88          6           0        6.589457   -3.229138    1.915377
     89          6           0        7.102139   -1.790478    1.925022
     90          6           0        5.089766   -3.200129    1.671581
     91          6           0        8.784419   -4.429781    1.123973
     92          6           0        8.684843   -5.880238    1.601460
     93          1           0        9.793858   -6.785534    1.313391
     94          7           0        7.881051    1.149215    2.331873
     95          6           0        7.472691    0.300517    3.298419
     96          6           0        7.539289    1.060924    4.556002
     97          6           0        7.862709    2.476832    4.231450
     98          6           0        7.780506    2.441122    2.785051
     99          6           0        7.384918    0.419040    5.904171
    100          6           0        8.179385    3.669049    5.082641
    101          8           0        8.194671    4.856231    4.599718
    102          6           0        8.379204    3.416008    6.517048
    103          7           0        7.579214    2.704921   -0.255775
    104          6           0        7.519954    3.726940    0.615947
    105          6           0        7.471504    5.054407   -0.102313
    106          6           0        7.755664    4.721261   -1.640449
    107          6           0        7.834241    3.181133   -1.555470
    108          6           0        6.158279    5.827517    0.016508
    109          6           0        8.924474    5.484546   -2.321576
    110          6           0       10.242765    5.051584   -1.721530
    111          7           0        8.116668    0.221622   -1.698593
    112          6           0        8.022022    1.080957   -2.815143
    113          6           0        8.034152    0.229341   -4.022217
    114          6           0        8.112452   -1.078167   -3.519446
    115          6           0        8.126326   -1.044949   -2.098809
    116          6           0        7.928884    0.688587   -5.365400
    117          6           0        8.175805   -2.479490   -3.867259
    118          8           0        8.283217   -3.109610   -4.918513
    119          6           0        7.938996   -3.338126   -2.550804
    120          6           0        8.996000   -4.406937   -2.496961
    121          8           0       10.194153   -4.104450   -2.357141
    122          8           0        8.401519   -5.610141   -2.400855
    123          6           0        9.409133   -6.701913   -2.333314
    124          1           0        6.465879   -1.439199    3.960193
    125          1           0        7.601830    4.503227    2.408171
    126          1           0        7.960813    2.909094   -3.655205
    127          1           0        6.845323   -4.535927    0.133900
    128          1           0        6.864037   -3.737945    2.835744
    129          1           0        4.842513   -3.452757    0.651198
    130          1           0        4.774353   -2.190103    1.898347
    131          1           0        4.578178   -3.844576    2.392196
    132          1           0        9.110452   -3.947594    2.054527
    133          1           0        9.521713   -4.354435    0.348499
    134          1           0        7.729749   -6.341478    1.322193
    135          1           0        8.675910   -5.886025    2.694128
    136          1           0        6.991625   -0.601654    5.821066
    137          1           0        6.599831    0.970422    6.432836
    138          1           0        8.302187    0.455834    6.495724
    139          1           0        7.484678    2.956504    6.930735
    140          1           0        8.683601    4.373946    6.943160
    141          1           0        9.189861    2.688200    6.634300
    142          1           0        8.244813    5.719595    0.261852
    143          1           0        6.888968    4.957143   -2.275293
    144          1           0        6.286474    6.844019    0.434076
    145          1           0        5.475835    5.249569    0.625421
    146          1           0        5.601817    5.938144   -0.912635
    147          1           0        8.835920    6.557581   -2.134703
    148          1           0        8.961606    5.346944   -3.397060
    149          1           0       10.317569    5.667065   -0.820049
    150          1           0       11.061760    5.256101   -2.408166
    151          1           0       10.204778    4.003421   -1.402833
    152          1           0        8.659238    0.136126   -5.941478
    153          1           0        8.096937    1.761413   -5.433085
    154          1           0        6.891215    0.421173   -5.582197
    155          1           0        6.934346   -3.758537   -2.610187
    156          1           0        9.177516   -7.400965   -3.142863
    157          1           0        9.357094   -7.092955   -1.299814
    158          1           0       10.438186   -6.448954   -2.560263
 ---------------------------------------------------------------------

 SCF Done:  E(RCAM-B3LYP) =  -4069.81183779     A.U. after   19 cycles

 Excitation energies and oscillator strengths:

 Excited State   1:      Singlet-A      1.6726 eV  741.26 nm  f=0.1745  <S**2>=0.000
     310 -> 316        0.14771
     311 -> 313       -0.35528
     312 -> 314        0.58708
 This state for optimization and/or second-order correction.
 Total Energy, E(TD-HF/TD-DFT) =  -4069.75037038
 Copying the excited state density for this state as the 1-particle RhoCI density.

 Excited State   2:      Singlet-A      1.6822 eV  737.04 nm  f=0.5778  <S**2>=0.000
     309 -> 315        0.15082
     311 -> 313        0.58648
     312 -> 314        0.35496

 Excited State   3:      Singlet-A      2.1853 eV  567.35 nm  f=0.0840  <S**2>=0.000
     310 -> 314        0.63597
     312 -> 316       -0.26948

 Excited State   4:      Singlet-A      2.1930 eV  565.37 nm  f=0.1130  <S**2>=0.000
     309 -> 313        0.63401
     311 -> 315       -0.27559

 Excited State   5:      Singlet-A      2.7635 eV  448.64 nm  f=0.0000  <S**2>=0.000
     312 -> 313        0.70710

 The electronic state is 1-A.
 Alpha  occ. eigenvalues --  -46.87838 -46.87585 -19.26366 -19.26255 -19.19100
 Alpha  occ. eigenvalues --  -19.19073 -19.18849 -19.18665 -19.18218 -19.17972
 Alpha  occ. eigenvalues --  -14.42494 -14.42417 -14.41488 -14.41286 -14.39444
 Alpha  occ. eigenvalues --  -14.39280 -14.38629 -14.38525 -10.39156 -10.39002
 Alpha  occ. eigenvalues --  -10.35482 -10.35344 -10.34439 -10.34148 -10.31774
 Alpha  occ. eigenvalues --  -10.31661 -10.31451 -10.31222 -10.30957 -10.30942
 Alpha  occ. eigenvalues --  -10.30612 -10.30547 -10.30327 -10.30284 -10.30242
 Alpha  occ. eigenvalues --  -10.30074 -10.29958 -10.29824 -10.29670 -10.29367
 Alpha  occ. eigenvalues --  -10.29332 -10.29293 -10.28809 -10.28627 -10.28615
 Alpha  occ. eigenvalues --  -10.28555 -10.28409 -10.28329 -10.28170 -10.28027
 Alpha  occ. eigenvalues --  -10.27929 -10.27833 -10.27770 -10.27624 -10.27588
 Alpha  occ. eigenvalues --  -10.27525 -10.27519 -10.27476 -10.27459 -10.27449
 Alpha  occ. eigenvalues --  -10.27411 -10.27405 -10.27400 -10.27318 -10.27214
 Alpha  occ. eigenvalues --  -10.26961 -10.26782 -10.26598 -10.26439 -10.26382
 Alpha  occ. eigenvalues --  -10.26282 -10.26200 -10.26088 -10.26055 -10.25872
 Alpha  occ. eigenvalues --  -10.25872 -10.25864 -10.25784 -10.25458 -10.25344
 Alpha  occ. eigenvalues --  -10.24874 -10.24827 -10.24799 -10.24704 -10.24684
 Alpha  occ. eigenvalues --  -10.24620  -3.16581  -3.16335  -1.91463  -1.91217
 Alpha  occ. eigenvalues --   -1.91050  -1.90892  -1.90806  -1.90643  -1.16714
 Alpha  occ. eigenvalues --   -1.16551  -1.08678  -1.08578  -1.07250  -1.06918
 Alpha  occ. eigenvalues --   -1.06857  -1.06721  -1.04626  -1.04414  -1.03801
 Alpha  occ. eigenvalues --   -1.03588  -1.03274  -1.02967  -1.02452  -1.02038
 Alpha  occ. eigenvalues --   -0.92019  -0.91907  -0.89552  -0.89428  -0.89244
 Alpha  occ. eigenvalues --   -0.89048  -0.88319  -0.88157  -0.87908  -0.87721
 Alpha  occ. eigenvalues --   -0.87718  -0.87605  -0.87311  -0.87061  -0.85036
 Alpha  occ. eigenvalues --   -0.84909  -0.83968  -0.83815  -0.83000  -0.82880
 Alpha  occ. eigenvalues --   -0.82699  -0.82570  -0.81645  -0.81514  -0.80646
 Alpha  occ. eigenvalues --   -0.80365  -0.78836  -0.78569  -0.77261  -0.77065
 Alpha  occ. eigenvalues --   -0.76988  -0.76813  -0.75976  -0.75746  -0.74934
 Alpha  occ. eigenvalues --   -0.74735  -0.72814  -0.72625  -0.71715  -0.71499
 Alpha  occ. eigenvalues --   -0.69934  -0.69698  -0.68924  -0.68741  -0.67685
 Alpha  occ. eigenvalues --   -0.67529  -0.67276  -0.67121  -0.65341  -0.65181
 Alpha  occ. eigenvalues --   -0.64901  -0.64694  -0.64669  -0.64572  -0.64304
 Alpha  occ. eigenvalues --   -0.64137  -0.62359  -0.62196  -0.60478  -0.60278
 Alpha  occ. eigenvalues --   -0.59855  -0.59704  -0.59030  -0.58917  -0.58548
 Alpha  occ. eigenvalues --   -0.58350  -0.57641  -0.57470  -0.57349  -0.57169
 Alpha  occ. eigenvalues --   -0.56352  -0.56131  -0.56046  -0.55802  -0.55562
 Alpha  occ. eigenvalues --   -0.55381  -0.55381  -0.55178  -0.54573  -0.54415
 Alpha  occ. eigenvalues --   -0.53951  -0.53813  -0.53339  -0.53271  -0.53159
 Alpha  occ. eigenvalues --   -0.53063  -0.52968  -0.52822  -0.52799  -0.52601
 Alpha  occ. eigenvalues --   -0.52465  -0.52344  -0.51951  -0.51814  -0.51670
 Alpha  occ. eigenvalues --   -0.51575  -0.51241  -0.51125  -0.50607  -0.50421
 Alpha  occ. eigenvalues --   -0.50063  -0.49958  -0.49901  -0.49804  -0.49562
 Alpha  occ. eigenvalues --   -0.49413  -0.49260  -0.49148  -0.49122  -0.49010
 Alpha  occ. eigenvalues --   -0.48644  -0.48497  -0.48488  -0.48473  -0.48312
 Alpha  occ. eigenvalues --   -0.48276  -0.47740  -0.47518  -0.47338  -0.47050
 Alpha  occ. eigenvalues --   -0.46838  -0.46633  -0.46611  -0.46463  -0.46400
 Alpha  occ. eigenvalues --   -0.46205  -0.46201  -0.46014  -0.45873  -0.45741
 Alpha  occ. eigenvalues --   -0.45234  -0.45143  -0.44626  -0.44549  -0.44436
 Alpha  occ. eigenvalues --   -0.44391  -0.44184  -0.44138  -0.44066  -0.44040
 Alpha  occ. eigenvalues --   -0.44013  -0.43869  -0.43550  -0.43471  -0.43431
 Alpha  occ. eigenvalues --   -0.43303  -0.43071  -0.42849  -0.42820  -0.42764
 Alpha  occ. eigenvalues --   -0.42693  -0.42491  -0.42050  -0.41892  -0.41749
 Alpha  occ. eigenvalues --   -0.41590  -0.41587  -0.41374  -0.41185  -0.40917
 Alpha  occ. eigenvalues --   -0.40904  -0.40864  -0.40657  -0.40618  -0.40606
 Alpha  occ. eigenvalues --   -0.40422  -0.40300  -0.40138  -0.39466  -0.39368
 Alpha  occ. eigenvalues --   -0.38505  -0.38282  -0.37812  -0.37566  -0.37356
 Alpha  occ. eigenvalues --   -0.37318  -0.37195  -0.37114  -0.36777  -0.36688
 Alpha  occ. eigenvalues --   -0.36243  -0.36141  -0.34328  -0.34177  -0.33843
 Alpha  occ. eigenvalues --   -0.33777  -0.33230  -0.33101  -0.31379  -0.31223
 Alpha  occ. eigenvalues --   -0.31078  -0.30897  -0.30078  -0.29875  -0.29489
 Alpha  occ. eigenvalues --   -0.29363  -0.29260  -0.29139  -0.24123  -0.23960
 Alpha  occ. eigenvalues --   -0.21168  -0.21043
 Alpha virt. eigenvalues --   -0.08815  -0.08720  -0.01789  -0.01612  -0.00099
 Alpha virt. eigenvalues --    0.00039   0.02158   0.02281   0.03075   0.03292
 Alpha virt. eigenvalues --    0.04667   0.04816   0.05025   0.05253   0.06105

 Mulliken charges:
               1
     1  Mg   0.838641
     2  C   -0.003130
     3  C   -0.094220
     4  C   -0.045806
     5  C   -0.063826
     6  N   -0.256781
     7  C   -0.052538
     8  C   -0.014021
     9  C   -0.086988
    10  C    0.046256
    11  C    0.104791
    12  C    0.053516
    13  C   -0.071586
    14  H    0.035397
    15  N   -0.433172
    16  C    0.168424
    17  C   -0.177166
    18  C   -0.003937
    19  C    0.148690
    20  C    0.110168
    21  C    0.012306
    22  O   -0.249529
    23  C    0.062468
    24  N   -0.341138
    25  C    0.041261
    26  C   -0.028208
    27  C   -0.024013
    28  C    0.074822
    29  C    0.076144
    30  C    0.035097
    31  C   -0.004557
    32  N   -0.310453
    33  C    0.080358
    34  C   -0.169617
    35  C    0.008315
    36  C    0.082942
    37  C    0.127306
    38  C    0.046079
    39  O   -0.188524
    40  C   -0.005347
    41  C    0.212903
    42  O   -0.257461
    43  O   -0.304654
    44  C    0.157838
    45  H   -0.017585
    46  H   -0.016725
    47  H   -0.041275
    48  H    0.000925
    49  H   -0.004130
    50  H    0.025504
    51  H    0.016577
    52  H    0.016679
    53  H    0.011136
    54  H    0.043827
    55  H    0.018048
    56  H    0.017976
    57  H    0.005818
    58  H    0.026933
    59  H    0.039572
    60  H    0.037390
    61  H    0.035768
    62  H    0.031501
    63  H    0.016612
    64  H    0.009576
    65  H    0.023309
    66  H    0.012531
    67  H    0.004862
    68  H    0.006510
    69  H    0.004930
    70  H    0.008731
    71  H    0.018445
    72  H    0.028780
    73  H    0.047601
    74  H    0.009335
    75  H    0.046067
    76  H    0.035211
    77  H    0.042981
    78  H    0.046313
    79  H    0.053213
    80  Mg   0.837933
    81  C   -0.016780
    82  C   -0.087680
    83  C   -0.045668
    84  C   -0.064917
    85  N   -0.254611
    86  C   -0.049565
    87  C   -0.015146
    88  C   -0.090553
    89  C    0.045809
    90  C    0.114305
    91  C    0.062509
    92  C   -0.077885
    93  H    0.034636
    94  N   -0.423479
    95  C    0.162886
    96  C   -0.174672
    97  C   -0.008017
    98  C    0.152177
    99  C    0.099415
   100  C    0.015415
   101  O   -0.253459
   102  C    0.061258
   103  N   -0.350046
   104  C    0.037597
   105  C   -0.019837
   106  C   -0.034803
   107  C    0.088965
   108  C    0.073680
   109  C    0.034767
   110  C   -0.007637
   111  N   -0.324151
   112  C    0.078556
   113  C   -0.163164
   114  C    0.002366
   115  C    0.096205
   116  C    0.131461
   117  C    0.042423
   118  O   -0.187796
   119  C    0.000911
   120  C    0.211215
   121  O   -0.251238
   122  O   -0.305376
   123  C    0.152085
   124  H   -0.019489
   125  H   -0.015849
   126  H   -0.040577
   127  H   -0.000128
   128  H   -0.004457
   129  H    0.023157
   130  H    0.014506
   131  H    0.016945
   132  H    0.013702
   133  H    0.037515
   134  H    0.021278
   135  H    0.019495
   136  H    0.008872
   137  H    0.025849
   138  H    0.039571
   139  H    0.038072
   140  H    0.036089
   141  H    0.033892
   142  H    0.014202
   143  H    0.012472
   144  H    0.024840
   145  H    0.011671
   146  H    0.005781
   147  H    0.006110
   148  H    0.003607
   149  H    0.010817
   150  H    0.017797
   151  H    0.030192
   152  H    0.045904
   153  H    0.008363
   154  H    0.047106
   155  H    0.035652
   156  H    0.044005
   157  H    0.049583
   158  H    0.053361
 Sum of Mulliken charges =  -0.00000

 Dipole moment (field-independent basis, Debye):
    X=             -4.4568    Y=              2.0982    Z=              6.5251  Tot=              8.1757
 Quadrupole moment (field-independent basis, Debye-Ang):
   XX=           -517.7912   YY=           -529.8126   ZZ=           -469.4770
   XY=            -23.2164   XZ=              5.9771   YZ=            -28.6488

 Normal termination of Gaussian 16 at Sun Sep 12 07:21:07 2021.
