 Gaussian 16, Revision A.03,
 Gaussian 16:  ES64L-G16RevA.03 25-Dec-2016

 -----------------------------------
 #p cam-b3lyp/Def2SVP td=(nstates=5)
 -----------------------------------

 --------------------------------
 TDDFT excited states in gaussian
 --------------------------------
 Symbolic Z-matrix:
 Charge =  0 Multiplicity = 1

                         Standard orientation:
 ---------------------------------------------------------------------
 Center     Atomic      Atomic             Coordinates (Angstroms)
 Number     Number       Type             X           Y           Z
 ---------------------------------------------------------------------
      1         12           0        6.650743   -0.608127    0.695376
      2          6           0        7.078294    2.167913   -1.523412
      3          6           0        7.240521    1.550869    3.271024
      4          6           0        6.728354   -3.115257    2.635711
      5          6           0        7.220710   -2.692012   -2.039258
      6          7           0        7.089287    1.561262    0.740912
      7          6           0        7.166354    2.521519   -0.175134
      8          6           0        7.273996    3.950782    0.435599
      9          6           0        7.879506    3.570636    1.860676
     10          6           0        7.342787    2.155396    1.982955
     11          6           0        9.403855    3.521362    1.881483
     12          6           0        5.877379    4.645208    0.573310
     13          6           0        5.920755    6.150496    0.851843
     14          1           0        4.897561    7.001354    0.263232
     15          7           0        6.459249   -0.715107    2.658724
     16          6           0        6.728520    0.265945    3.553327
     17          6           0        6.427395   -0.302680    4.884743
     18          6           0        6.142708   -1.753584    4.706067
     19          6           0        6.461801   -1.927107    3.311992
     20          6           0        6.382367    0.516244    6.138173
     21          6           0        5.669756   -2.817460    5.645545
     22          8           0        5.710098   -4.059002    5.343023
     23          6           0        5.234735   -2.368846    6.980664
     24          7           0        7.149441   -2.614165    0.404257
     25          6           0        7.041760   -3.503182    1.397754
     26          6           0        7.176552   -4.908220    0.890173
     27          6           0        7.156928   -4.806399   -0.703251
     28          6           0        7.092594   -3.265197   -0.840462
     29          6           0        8.435515   -5.663630    1.337810
     30          6           0        6.099387   -5.658097   -1.449331
     31          6           0        4.712677   -5.138322   -1.142789
     32          7           0        6.900492   -0.350509   -1.445256
     33          6           0        7.149907   -1.354663   -2.391903
     34          6           0        7.350870   -0.684484   -3.689802
     35          6           0        7.219967    0.672898   -3.403055
     36          6           0        6.980136    0.841593   -2.009385
     37          6           0        7.673590   -1.326278   -4.917966
     38          6           0        7.251382    2.021446   -3.945539
     39          8           0        7.321445    2.498758   -5.079011
     40          6           0        7.282103    3.049868   -2.730126
     41          6           0        6.252824    4.111584   -3.006988
     42          8           0        5.035677    3.836152   -3.014515
     43          8           0        6.840676    5.317574   -2.983290
     44          6           0        5.869017    6.418118   -3.221691
     45          1           0        7.641642    2.081750    4.136592
     46          1           0        6.655011   -4.015298    3.249701
     47          1           0        7.318920   -3.282490   -2.952026
     48          1           0        7.954193    4.620162   -0.091361
     49          1           0        7.476341    4.198740    2.654820
     50          1           0        9.819668    3.629472    0.879818
     51          1           0        9.657893    2.545527    2.295854
     52          1           0        9.805703    4.256853    2.578871
     53          1           0        5.393535    4.301250    1.487448
     54          1           0        5.265407    4.459505   -0.310054
     55          1           0        6.913214    6.561870    0.665545
     56          1           0        5.759270    6.305220    1.918700
     57          1           0        6.796766    1.511369    5.981507
     58          1           0        7.062441    0.047660    6.849256
     59          1           0        5.379582    0.561022    6.563318
     60          1           0        6.060008   -1.855279    7.474345
     61          1           0        4.846618   -3.253877    7.483592
     62          1           0        4.440490   -1.630968    6.863790
     63          1           0        6.340923   -5.524665    1.219029
     64          1           0        8.105340   -5.113855   -1.144454
     65          1           0        8.223750   -6.599595    1.855333
     66          1           0        9.024816   -4.994883    1.964541
     67          1           0        9.141166   -5.889793    0.538858
     68          1           0        6.136749   -6.692368   -1.108988
     69          1           0        6.233500   -5.659880   -2.531117
     70          1           0        4.475489   -5.621460   -0.195608
     71          1           0        4.012137   -5.441158   -1.921727
     72          1           0        4.720689   -4.062475   -0.966795
     73          1           0        7.050667   -0.857786   -5.679839
     74          1           0        7.492723   -2.399548   -4.863371
     75          1           0        8.733308   -1.085023   -4.999512
     76          1           0        8.291359    3.458489   -2.690691
     77          1           0        6.239110    6.995048   -4.069286
     78          1           0        5.748779    6.936802   -2.270421
     79          1           0        4.885508    6.121853   -3.588128
     80         12           0       -6.493923   -0.676136   -0.724922
     81          6           0       -7.805900    1.715656    1.606843
     82          6           0       -6.296632    1.865126   -2.991564
     83          6           0       -5.763963   -2.834847   -2.932755
     84          6           0       -7.843217   -3.176388    1.293466
     85          7           0       -7.013397    1.469666   -0.590988
     86          6           0       -7.445829    2.278436    0.364643
     87          6           0       -7.419193    3.785301   -0.007125
     88          6           0       -7.486227    3.639970   -1.605019
     89          6           0       -6.861903    2.253736   -1.750781
     90          6           0       -8.905523    3.583797   -2.145189
     91          6           0       -6.094288    4.490495    0.450434
     92          6           0       -6.128362    6.019495    0.397885
     93          1           0       -5.407820    6.767437    1.424468
     94          7           0       -5.636194   -0.457100   -2.501122
     95          6           0       -5.634394    0.649963   -3.272916
     96          6           0       -4.886821    0.291896   -4.488280
     97          6           0       -4.589097   -1.165524   -4.443551
     98          6           0       -5.352945   -1.554871   -3.275192
     99          6           0       -4.457317    1.306433   -5.507919
    100          6           0       -3.764973   -2.062933   -5.316281
    101          8           0       -3.838583   -3.339588   -5.229355
    102          6           0       -2.939062   -1.404681   -6.339051
    103          7           0       -6.942866   -2.696277   -0.924438
    104          6           0       -6.457022   -3.414208   -1.952283
    105          6           0       -6.681237   -4.892315   -1.739412
    106          6           0       -7.205223   -5.035125   -0.235208
    107          6           0       -7.281509   -3.541186    0.149101
    108          6           0       -7.676108   -5.557930   -2.689978
    109          6           0       -6.418886   -5.998532    0.695478
    110          6           0       -5.036807   -5.446361    0.960707
    111          7           0       -7.459321   -0.764427    1.205953
    112          6           0       -7.969518   -1.911277    1.852873
    113          6           0       -8.635435   -1.453502    3.089578
    114          6           0       -8.485295   -0.058758    3.064547
    115          6           0       -7.793544    0.327355    1.884758
    116          6           0       -9.310769   -2.284601    4.027295
    117          6           0       -8.764008    1.175624    3.762632
    118          8           0       -9.246150    1.464942    4.856965
    119          6           0       -8.447487    2.390237    2.787487
    120          6           0       -7.629303    3.396533    3.549377
    121          8           0       -6.482368    3.114162    3.938475
    122          8           0       -8.246308    4.591357    3.503780
    123          6           0       -7.467421    5.625053    4.236331
    124          1           0       -6.406163    2.535715   -3.844317
    125          1           0       -5.439943   -3.630479   -3.607638
    126          1           0       -8.202575   -3.903143    2.025144
    127          1           0       -8.267673    4.356409    0.350210
    128          1           0       -6.870406    4.389043   -2.095945
    129          1           0       -9.636656    3.531850   -1.352169
    130          1           0       -8.951082    2.694850   -2.760608
    131          1           0       -9.086088    4.426324   -2.818887
    132          1           0       -5.309626    4.294440   -0.291595
    133          1           0       -5.811573    4.168932    1.433945
    134          1           0       -7.148916    6.405456    0.286329
    135          1           0       -5.617164    6.346967   -0.510660
    136          1           0       -4.962280    2.268330   -5.355752
    137          1           0       -4.823711    0.958039   -6.479648
    138          1           0       -3.372236    1.418943   -5.559017
    139          1           0       -3.577055   -0.818128   -6.995846
    140          1           0       -2.355961   -2.203088   -6.802112
    141          1           0       -2.264395   -0.698337   -5.842552
    142          1           0       -5.754188   -5.442861   -1.842370
    143          1           0       -8.234037   -5.422327   -0.197163
    144          1           0       -7.243587   -6.409710   -3.248071
    145          1           0       -8.050686   -4.806875   -3.372724
    146          1           0       -8.589619   -5.921080   -2.222191
    147          1           0       -6.278162   -6.965974    0.207195
    148          1           0       -6.914590   -6.184793    1.642365
    149          1           0       -4.468859   -5.771047    0.083720
    150          1           0       -4.625106   -5.867533    1.875676
    151          1           0       -5.044360   -4.350196    0.961219
    152          1           0       -9.014753   -1.947551    5.011813
    153          1           0       -9.067523   -3.334187    3.875746
    154          1           0      -10.350263   -2.063002    3.771114
    155          1           0       -9.401729    2.803360    2.458347
    156          1           0       -8.138325    6.061177    4.982896
    157          1           0       -7.068241    6.304367    3.459828
    158          1           0       -6.648217    5.286889    4.860030
 ---------------------------------------------------------------------

 SCF Done:  E(RCAM-B3LYP) =  -4069.81207178     A.U. after   19 cycles

 Excitation energies and oscillator strengths:

 Excited State   1:      Singlet-A      1.6657 eV  744.33 nm  f=0.0333  <S**2>=0.000
     309 -> 315        0.11121
     310 -> 316        0.13083
     311 -> 313       -0.44352
     312 -> 314        0.52415
 This state for optimization and/or second-order correction.
 Total Energy, E(TD-HF/TD-DFT) =  -4069.75085772
 Copying the excited state density for this state as the 1-particle RhoCI density.

 Excited State   2:      Singlet-A      1.6896 eV  733.81 nm  f=0.7144  <S**2>=0.000
     309 -> 315       -0.13601
     310 -> 316        0.11455
     311 -> 313        0.52298
     312 -> 314        0.44265

 Excited State   3:      Singlet-A      2.1866 eV  567.03 nm  f=0.0393  <S**2>=0.000
     309 -> 313        0.20840
     310 -> 314        0.60817
     312 -> 316       -0.25828

 Excited State   4:      Singlet-A      2.1938 eV  565.15 nm  f=0.1501  <S**2>=0.000
     309 -> 313        0.60600
     310 -> 314       -0.20694
     311 -> 315        0.26407

 Excited State   5:      Singlet-A      2.7035 eV  458.60 nm  f=0.0000  <S**2>=0.000
     312 -> 313        0.70708

 The electronic state is 1-A.
 Alpha  occ. eigenvalues --  -46.87738 -46.87550 -19.26317 -19.26308 -19.19111
 Alpha  occ. eigenvalues --  -19.19049 -19.18730 -19.18560 -19.18149 -19.17965
 Alpha  occ. eigenvalues --  -14.42396 -14.42389 -14.41390 -14.41253 -14.39342
 Alpha  occ. eigenvalues --  -14.39235 -14.38535 -14.38493 -10.39103 -10.39038
 Alpha  occ. eigenvalues --  -10.35361 -10.35232 -10.34371 -10.34145 -10.31736
 Alpha  occ. eigenvalues --  -10.31735 -10.31360 -10.31210 -10.30909 -10.30856
 Alpha  occ. eigenvalues --  -10.30520 -10.30452 -10.30290 -10.30256 -10.30136
 Alpha  occ. eigenvalues --  -10.30024 -10.29866 -10.29799 -10.29573 -10.29315
 Alpha  occ. eigenvalues --  -10.29283 -10.29190 -10.28714 -10.28626 -10.28584
 Alpha  occ. eigenvalues --  -10.28527 -10.28312 -10.28292 -10.28076 -10.28044
 Alpha  occ. eigenvalues --  -10.27889 -10.27741 -10.27671 -10.27557 -10.27521
 Alpha  occ. eigenvalues --  -10.27425 -10.27423 -10.27393 -10.27379 -10.27379
 Alpha  occ. eigenvalues --  -10.27356 -10.27340 -10.27285 -10.27275 -10.27144
 Alpha  occ. eigenvalues --  -10.26972 -10.26679 -10.26603 -10.26295 -10.26197
 Alpha  occ. eigenvalues --  -10.26192 -10.26091 -10.26047 -10.25958 -10.25939
 Alpha  occ. eigenvalues --  -10.25828 -10.25811 -10.25771 -10.25371 -10.25316
 Alpha  occ. eigenvalues --  -10.24786 -10.24766 -10.24729 -10.24633 -10.24584
 Alpha  occ. eigenvalues --  -10.24574  -3.16481  -3.16300  -1.91363  -1.91182
 Alpha  occ. eigenvalues --   -1.90949  -1.90791  -1.90771  -1.90607  -1.16664
 Alpha  occ. eigenvalues --   -1.16600  -1.08613  -1.08578  -1.07129  -1.06896
 Alpha  occ. eigenvalues --   -1.06812  -1.06670  -1.04529  -1.04387  -1.03702
 Alpha  occ. eigenvalues --   -1.03554  -1.03177  -1.02930  -1.02355  -1.02003
 Alpha  occ. eigenvalues --   -0.91932  -0.91889  -0.89453  -0.89393  -0.89149
 Alpha  occ. eigenvalues --   -0.89056  -0.88220  -0.88123  -0.87825  -0.87695
 Alpha  occ. eigenvalues --   -0.87620  -0.87578  -0.87198  -0.86967  -0.84939
 Alpha  occ. eigenvalues --   -0.84900  -0.83870  -0.83783  -0.82882  -0.82782
 Alpha  occ. eigenvalues --   -0.82601  -0.82535  -0.81570  -0.81519  -0.80555
 Alpha  occ. eigenvalues --   -0.80344  -0.78732  -0.78505  -0.77163  -0.77039
 Alpha  occ. eigenvalues --   -0.76901  -0.76814  -0.75891  -0.75747  -0.74841
 Alpha  occ. eigenvalues --   -0.74710  -0.72721  -0.72594  -0.71624  -0.71484
 Alpha  occ. eigenvalues --   -0.69828  -0.69661  -0.68827  -0.68724  -0.67590
 Alpha  occ. eigenvalues --   -0.67495  -0.67172  -0.67085  -0.65248  -0.65177
 Alpha  occ. eigenvalues --   -0.64814  -0.64673  -0.64577  -0.64562  -0.64206
 Alpha  occ. eigenvalues --   -0.64106  -0.62288  -0.62206  -0.60371  -0.60206
 Alpha  occ. eigenvalues --   -0.59760  -0.59696  -0.58938  -0.58893  -0.58457
 Alpha  occ. eigenvalues --   -0.58327  -0.57569  -0.57477  -0.57255  -0.57128
 Alpha  occ. eigenvalues --   -0.56262  -0.56097  -0.55975  -0.55810  -0.55461
 Alpha  occ. eigenvalues --   -0.55335  -0.55295  -0.55162  -0.54492  -0.54409
 Alpha  occ. eigenvalues --   -0.53857  -0.53816  -0.53241  -0.53172  -0.53118
 Alpha  occ. eigenvalues --   -0.53031  -0.52883  -0.52809  -0.52686  -0.52512
 Alpha  occ. eigenvalues --   -0.52358  -0.52305  -0.51878  -0.51798  -0.51571
 Alpha  occ. eigenvalues --   -0.51546  -0.51155  -0.51109  -0.50480  -0.50305
 Alpha  occ. eigenvalues --   -0.49958  -0.49859  -0.49851  -0.49758  -0.49463
 Alpha  occ. eigenvalues --   -0.49362  -0.49171  -0.49092  -0.49060  -0.49013
 Alpha  occ. eigenvalues --   -0.48565  -0.48469  -0.48411  -0.48379  -0.48287
 Alpha  occ. eigenvalues --   -0.48199  -0.47641  -0.47484  -0.47241  -0.47000
 Alpha  occ. eigenvalues --   -0.46743  -0.46610  -0.46516  -0.46452  -0.46307
 Alpha  occ. eigenvalues --   -0.46163  -0.46120  -0.45996  -0.45801  -0.45745
 Alpha  occ. eigenvalues --   -0.45138  -0.45113  -0.44548  -0.44441  -0.44424
 Alpha  occ. eigenvalues --   -0.44373  -0.44088  -0.44042  -0.44029  -0.43973
 Alpha  occ. eigenvalues --   -0.43970  -0.43806  -0.43481  -0.43475  -0.43334
 Alpha  occ. eigenvalues --   -0.43290  -0.42981  -0.42861  -0.42810  -0.42703
 Alpha  occ. eigenvalues --   -0.42590  -0.42446  -0.41953  -0.41870  -0.41660
 Alpha  occ. eigenvalues --   -0.41574  -0.41490  -0.41361  -0.41093  -0.40892
 Alpha  occ. eigenvalues --   -0.40818  -0.40746  -0.40616  -0.40566  -0.40509
 Alpha  occ. eigenvalues --   -0.40399  -0.40196  -0.40119  -0.39357  -0.39328
 Alpha  occ. eigenvalues --   -0.38406  -0.38256  -0.37714  -0.37564  -0.37258
 Alpha  occ. eigenvalues --   -0.37222  -0.37167  -0.37097  -0.36712  -0.36712
 Alpha  occ. eigenvalues --   -0.36159  -0.36129  -0.34234  -0.34150  -0.33802
 Alpha  occ. eigenvalues --   -0.33785  -0.33136  -0.33070  -0.31262  -0.31124
 Alpha  occ. eigenvalues --   -0.30982  -0.30865  -0.30011  -0.29873  -0.29388
 Alpha  occ. eigenvalues --   -0.29272  -0.29203  -0.29102  -0.24027  -0.23930
 Alpha  occ. eigenvalues --   -0.21071  -0.21006
 Alpha virt. eigenvalues --   -0.08717  -0.08677  -0.01689  -0.01572   0.00006
 Alpha virt. eigenvalues --    0.00102   0.02242   0.02306   0.03195   0.03351
 Alpha virt. eigenvalues --    0.04763   0.04826   0.05083   0.05223   0.06199

 Mulliken charges:
               1
     1  Mg   0.839019
     2  C   -0.003159
     3  C   -0.093979
     4  C   -0.045712
     5  C   -0.063816
     6  N   -0.256809
     7  C   -0.052605
     8  C   -0.014035
     9  C   -0.087062
    10  C    0.046445
    11  C    0.104807
    12  C    0.053404
    13  C   -0.071605
    14  H    0.035315
    15  N   -0.433207
    16  C    0.168699
    17  C   -0.176836
    18  C   -0.003686
    19  C    0.148873
    20  C    0.110111
    21  C    0.012642
    22  O   -0.249516
    23  C    0.062251
    24  N   -0.341163
    25  C    0.041365
    26  C   -0.028203
    27  C   -0.023945
    28  C    0.074824
    29  C    0.076196
    30  C    0.035097
    31  C   -0.004622
    32  N   -0.310323
    33  C    0.080214
    34  C   -0.169977
    35  C    0.008000
    36  C    0.082830
    37  C    0.127418
    38  C    0.045653
    39  O   -0.189314
    40  C   -0.005216
    41  C    0.212788
    42  O   -0.257750
    43  O   -0.304581
    44  C    0.158028
    45  H   -0.017534
    46  H   -0.016669
    47  H   -0.041516
    48  H    0.000664
    49  H   -0.003896
    50  H    0.025338
    51  H    0.016536
    52  H    0.016645
    53  H    0.011745
    54  H    0.043694
    55  H    0.017771
    56  H    0.018319
    57  H    0.005856
    58  H    0.026845
    59  H    0.040482
    60  H    0.037198
    61  H    0.035937
    62  H    0.032377
    63  H    0.016806
    64  H    0.009288
    65  H    0.023264
    66  H    0.012448
    67  H    0.004673
    68  H    0.006348
    69  H    0.004681
    70  H    0.008873
    71  H    0.019001
    72  H    0.028846
    73  H    0.046930
    74  H    0.009277
    75  H    0.045851
    76  H    0.035065
    77  H    0.042659
    78  H    0.046576
    79  H    0.052764
    80  Mg   0.838034
    81  C   -0.016913
    82  C   -0.087313
    83  C   -0.045461
    84  C   -0.064912
    85  N   -0.254545
    86  C   -0.050055
    87  C   -0.015139
    88  C   -0.090595
    89  C    0.045860
    90  C    0.114392
    91  C    0.062381
    92  C   -0.077649
    93  H    0.034030
    94  N   -0.423588
    95  C    0.163295
    96  C   -0.173983
    97  C   -0.007346
    98  C    0.152237
    99  C    0.099127
   100  C    0.015944
   101  O   -0.253584
   102  C    0.060766
   103  N   -0.350050
   104  C    0.037619
   105  C   -0.019852
   106  C   -0.034655
   107  C    0.088716
   108  C    0.073756
   109  C    0.034775
   110  C   -0.007633
   111  N   -0.323968
   112  C    0.078117
   113  C   -0.163469
   114  C    0.001974
   115  C    0.096004
   116  C    0.131567
   117  C    0.042050
   118  O   -0.188644
   119  C    0.000996
   120  C    0.211171
   121  O   -0.251263
   122  O   -0.305565
   123  C    0.152244
   124  H   -0.019486
   125  H   -0.015609
   126  H   -0.040793
   127  H   -0.000992
   128  H   -0.004049
   129  H    0.022251
   130  H    0.014451
   131  H    0.016213
   132  H    0.014695
   133  H    0.037391
   134  H    0.020549
   135  H    0.019964
   136  H    0.008719
   137  H    0.026049
   138  H    0.042272
   139  H    0.038097
   140  H    0.036482
   141  H    0.036230
   142  H    0.014401
   143  H    0.012128
   144  H    0.024991
   145  H    0.011630
   146  H    0.005469
   147  H    0.006007
   148  H    0.003426
   149  H    0.010943
   150  H    0.017927
   151  H    0.030278
   152  H    0.045555
   153  H    0.008341
   154  H    0.046628
   155  H    0.034793
   156  H    0.043572
   157  H    0.049505
   158  H    0.053099
 Sum of Mulliken charges =  -0.00000

 Dipole moment (field-independent basis, Debye):
    X=              1.5289    Y=              3.0897    Z=              0.0910  Tot=              3.4485
 Quadrupole moment (field-independent basis, Debye-Ang):
   XX=           -496.7673   YY=           -461.2243   ZZ=           -532.3333
   XY=              4.2844   XZ=             60.7579   YZ=              8.6078

 Normal termination of Gaussian 16 at Sat Sep 11 05:58:11 2021.
