 Gaussian 16, Revision A.03,
 Gaussian 16:  ES64L-G16RevA.03 25-Dec-2016

 -----------------------------------
 #p cam-b3lyp/Def2SVP td=(nstates=5)
 -----------------------------------

 --------------------------------
 TDDFT excited states in gaussian
 --------------------------------
 Symbolic Z-matrix:
 Charge =  0 Multiplicity = 1

                         Standard orientation:
 ---------------------------------------------------------------------
 Center     Atomic      Atomic             Coordinates (Angstroms)
 Number     Number       Type             X           Y           Z
 ---------------------------------------------------------------------
      1         12           0       -4.540098   -0.058837    0.364978
      2          6           0       -4.137410    3.465218    0.845702
      3          6           0       -5.562636    0.642283   -2.814002
      4          6           0       -5.334378   -3.114073    0.062863
      5          6           0       -4.587527   -0.377439    3.835122
      6          7           0       -4.776073    1.850883   -0.729524
      7          6           0       -4.530988    3.127430   -0.451079
      8          6           0       -4.658734    4.065267   -1.688623
      9          6           0       -5.637079    3.175280   -2.578995
     10          6           0       -5.280182    1.803305   -2.034721
     11          6           0       -7.115048    3.440667   -2.311264
     12          6           0       -3.285024    4.296698   -2.403530
     13          6           0       -3.259911    5.447322   -3.413871
     14          1           0       -2.047887    6.242670   -3.539444
     15          7           0       -4.862014   -1.144916   -1.253556
     16          6           0       -5.258132   -0.691856   -2.467274
     17          6           0       -5.356739   -1.884909   -3.335366
     18          6           0       -5.169724   -3.088219   -2.477949
     19          6           0       -5.140289   -2.490599   -1.167468
     20          6           0       -5.555685   -1.809451   -4.818092
     21          6           0       -5.048884   -4.546493   -2.789342
     22          8           0       -5.124501   -5.444245   -1.882205
     23          6           0       -4.926649   -4.906158   -4.213681
     24          7           0       -5.129828   -1.515348    1.739179
     25          6           0       -5.358515   -2.775518    1.353617
     26          6           0       -5.488155   -3.692532    2.533539
     27          6           0       -5.056933   -2.834799    3.809507
     28          6           0       -4.819643   -1.473806    3.109747
     29          6           0       -6.882899   -4.289215    2.767355
     30          6           0       -3.927340   -3.414480    4.697430
     31          6           0       -2.621811   -3.411328    3.934094
     32          7           0       -4.215706    1.253451    2.063128
     33          6           0       -4.308116    0.914090    3.420688
     34          6           0       -4.112248    2.156143    4.190758
     35          6           0       -3.934846    3.141002    3.221002
     36          6           0       -4.040962    2.555983    1.926868
     37          6           0       -4.170996    2.276480    5.607269
     38          6           0       -3.704849    4.555695    2.976867
     39          8           0       -3.442088    5.526846    3.687723
     40          6           0       -3.948024    4.843168    1.429595
     41          6           0       -2.789753    5.664438    0.932372
     42          8           0       -1.640658    5.181045    0.875115
     43          8           0       -3.251914    6.798482    0.383834
     44          6           0       -2.155326    7.645973   -0.155987
     45          1           0       -6.119477    0.754978   -3.746294
     46          1           0       -5.501155   -4.191763    0.006230
     47          1           0       -4.505126   -0.413785    4.922937
     48          1           0       -5.119520    5.031229   -1.481218
     49          1           0       -5.392319    3.237795   -3.639139
     50          1           0       -7.252328    4.106403   -1.459284
     51          1           0       -7.553574    2.463964   -2.105743
     52          1           0       -7.611383    3.808955   -3.209481
     53          1           0       -3.081599    3.459291   -3.070935
     54          1           0       -2.489102    4.441632   -1.672211
     55          1           0       -4.131164    6.093604   -3.303658
     56          1           0       -3.360099    5.025800   -4.414111
     57          1           0       -5.824400   -0.802646   -5.135395
     58          1           0       -6.433323   -2.411489   -5.052634
     59          1           0       -4.693278   -2.187100   -5.367608
     60          1           0       -5.799539   -4.538881   -4.753791
     61          1           0       -4.760784   -5.982590   -4.238845
     62          1           0       -4.064769   -4.388575   -4.635841
     63          1           0       -4.822725   -4.549533    2.437733
     64          1           0       -5.886874   -2.683519    4.500149
     65          1           0       -6.895229   -5.379254    2.786557
     66          1           0       -7.548002   -3.904148    1.994922
     67          1           0       -7.381116   -3.945403    3.673440
     68          1           0       -4.143777   -4.449842    4.958441
     69          1           0       -3.783056   -2.861630    5.625756
     70          1           0       -2.677013   -4.331554    3.353604
     71          1           0       -1.777681   -3.435028    4.624090
     72          1           0       -2.575881   -2.582518    3.227375
     73          1           0       -3.335565    2.915055    5.894056
     74          1           0       -4.108524    1.301659    6.090410
     75          1           0       -5.149048    2.741452    5.730033
     76          1           0       -4.892802    5.380759    1.355348
     77          1           0       -2.244764    8.624979    0.314949
     78          1           0       -2.232799    7.598084   -1.242316
     79          1           0       -1.142385    7.368201    0.137496
     80         12           0        4.319405   -1.492425   -0.331866
     81          6           0        5.481158    1.882511    0.041262
     82          6           0        2.687811   -0.461605   -3.144315
     83          6           0        2.917822   -4.336892   -0.441323
     84          6           0        5.067726   -1.975387    3.037484
     85          7           0        4.179312    0.480459   -1.322002
     86          6           0        4.713129    1.676295   -1.123664
     87          6           0        4.473189    2.687094   -2.277048
     88          6           0        3.145231    2.031999   -2.898522
     89          6           0        3.359807    0.584098   -2.462390
     90          6           0        1.865705    2.540028   -2.255057
     91          6           0        5.648703    2.698196   -3.316307
     92          6           0        5.629808    3.873550   -4.296075
     93          1           0        6.904432    4.441591   -4.726338
     94          7           0        3.408388   -2.418336   -1.832291
     95          6           0        2.820845   -1.846929   -2.904467
     96          6           0        2.278549   -2.955847   -3.704697
     97          6           0        2.449966   -4.217701   -2.934580
     98          6           0        2.923524   -3.692308   -1.669743
     99          6           0        1.743516   -2.770432   -5.094941
    100          6           0        2.213124   -5.657834   -3.275319
    101          8           0        2.202816   -6.569923   -2.374857
    102          6           0        1.901113   -5.956271   -4.680684
    103          7           0        3.834569   -2.882787    1.135852
    104          6           0        3.277069   -4.062979    0.812956
    105          6           0        3.272678   -5.005219    1.993030
    106          6           0        4.165736   -4.294756    3.113415
    107          6           0        4.471767   -2.965977    2.388087
    108          6           0        1.898369   -5.338028    2.573456
    109          6           0        5.353659   -5.112818    3.689845
    110          6           0        6.404267   -5.319191    2.622595
    111          7           0        5.294408   -0.353253    1.223680
    112          6           0        5.478199   -0.732972    2.571314
    113          6           0        6.089044    0.417431    3.268355
    114          6           0        6.197945    1.402517    2.275269
    115          6           0        5.672254    0.908440    1.050916
    116          6           0        6.417298    0.472842    4.652298
    117          6           0        6.628349    2.751698    1.986889
    118          8           0        7.229265    3.624238    2.612437
    119          6           0        6.067600    3.166633    0.558675
    120          6           0        7.194957    3.786235   -0.220867
    121          8           0        8.181500    3.106329   -0.554112
    122          8           0        6.825522    5.013720   -0.629726
    123          6           0        7.906718    5.664459   -1.416724
    124          1           0        1.956577   -0.196759   -3.908546
    125          1           0        2.545504   -5.363925   -0.449478
    126          1           0        5.421271   -2.080564    4.065396
    127          1           0        4.272113    3.702370   -1.956812
    128          1           0        3.138261    2.106552   -3.982849
    129          1           0        2.066727    3.171920   -1.402734
    130          1           0        1.318772    1.657189   -1.950894
    131          1           0        1.241026    3.039382   -3.001209
    132          1           0        5.513417    1.865784   -4.018826
    133          1           0        6.597927    2.658112   -2.818311
    134          1           0        4.944371    4.667141   -3.974618
    135          1           0        5.213036    3.527570   -5.245076
    136          1           0        1.592958   -1.709512   -5.329850
    137          1           0        0.734921   -3.197528   -5.109010
    138          1           0        2.350824   -3.273330   -5.850548
    139          1           0        1.010742   -5.407052   -4.977429
    140          1           0        1.852969   -7.045071   -4.744494
    141          1           0        2.721351   -5.588030   -5.306973
    142          1           0        3.725464   -5.953915    1.732092
    143          1           0        3.573573   -4.037539    4.003926
    144          1           0        1.682816   -6.423075    2.590335
    145          1           0        1.148451   -4.810245    1.999349
    146          1           0        1.720747   -4.967385    3.581563
    147          1           0        5.017409   -6.108036    3.990910
    148          1           0        5.814468   -4.652456    4.557439
    149          1           0        6.028004   -6.185396    2.070144
    150          1           0        7.372256   -5.528599    3.073362
    151          1           0        6.431433   -4.471594    1.927971
    152          1           0        7.394006    0.932876    4.722434
    153          1           0        6.410232   -0.517608    5.102554
    154          1           0        5.599716    1.097571    5.021809
    155          1           0        5.247538    3.867457    0.719683
    156          1           0        8.120141    6.623362   -0.934401
    157          1           0        7.539474    5.695950   -2.459749
    158          1           0        8.885314    5.199014   -1.404286
 ---------------------------------------------------------------------

 SCF Done:  E(RCAM-B3LYP) =  -4069.81132335     A.U. after   19 cycles

 Excitation energies and oscillator strengths:

 Excited State   1:      Singlet-A      1.6462 eV  753.17 nm  f=0.0239  <S**2>=0.000
     309 -> 315       -0.11344
     310 -> 316        0.12178
     311 -> 313       -0.46642
     312 -> 314        0.50548
 This state for optimization and/or second-order correction.
 Total Energy, E(TD-HF/TD-DFT) =  -4069.75082820
 Copying the excited state density for this state as the 1-particle RhoCI density.

 Excited State   2:      Singlet-A      1.7039 eV  727.66 nm  f=0.6814  <S**2>=0.000
     309 -> 315        0.13411
     310 -> 316        0.12231
     311 -> 313        0.50274
     312 -> 314        0.46394

 Excited State   3:      Singlet-A      2.1797 eV  568.82 nm  f=0.0144  <S**2>=0.000
     309 -> 313       -0.31287
     310 -> 314        0.56459
     311 -> 315        0.12892
     312 -> 316       -0.23391

 Excited State   4:      Singlet-A      2.1960 eV  564.59 nm  f=0.1596  <S**2>=0.000
     309 -> 313        0.55943
     310 -> 314        0.30817
     311 -> 315       -0.24676
     312 -> 316       -0.13692

 Excited State   5:      Singlet-A      2.3330 eV  531.43 nm  f=0.0000  <S**2>=0.000
     312 -> 313        0.70701

 The electronic state is 1-A.
 Alpha  occ. eigenvalues --  -46.87950 -46.87451 -19.26477 -19.26146 -19.19220
 Alpha  occ. eigenvalues --  -19.18958 -19.18929 -19.18550 -19.18306 -19.17821
 Alpha  occ. eigenvalues --  -14.42617 -14.42276 -14.41596 -14.41157 -14.39554
 Alpha  occ. eigenvalues --  -14.39151 -14.38736 -14.38385 -10.39275 -10.38880
 Alpha  occ. eigenvalues --  -10.35565 -10.35233 -10.34530 -10.33993 -10.31875
 Alpha  occ. eigenvalues --  -10.31586 -10.31577 -10.31090 -10.31077 -10.30811
 Alpha  occ. eigenvalues --  -10.30729 -10.30644 -10.30349 -10.30189 -10.30153
 Alpha  occ. eigenvalues --  -10.30048 -10.29962 -10.29778 -10.29686 -10.29404
 Alpha  occ. eigenvalues --  -10.29247 -10.29209 -10.28984 -10.28882 -10.28523
 Alpha  occ. eigenvalues --  -10.28521 -10.28469 -10.28328 -10.28194 -10.27940
 Alpha  occ. eigenvalues --  -10.27895 -10.27856 -10.27799 -10.27737 -10.27696
 Alpha  occ. eigenvalues --  -10.27616 -10.27565 -10.27547 -10.27466 -10.27415
 Alpha  occ. eigenvalues --  -10.27365 -10.27320 -10.27283 -10.27264 -10.27211
 Alpha  occ. eigenvalues --  -10.27030 -10.26791 -10.26567 -10.26513 -10.26415
 Alpha  occ. eigenvalues --  -10.26328 -10.26298 -10.26165 -10.26009 -10.25954
 Alpha  occ. eigenvalues --  -10.25742 -10.25636 -10.25573 -10.25519 -10.25240
 Alpha  occ. eigenvalues --  -10.24978 -10.24923 -10.24805 -10.24660 -10.24605
 Alpha  occ. eigenvalues --  -10.24484  -3.16692  -3.16201  -1.91574  -1.91161
 Alpha  occ. eigenvalues --   -1.91083  -1.91002  -1.90672  -1.90509  -1.16826
 Alpha  occ. eigenvalues --   -1.16440  -1.08765  -1.08424  -1.07324  -1.06838
 Alpha  occ. eigenvalues --   -1.06801  -1.06742  -1.04750  -1.04274  -1.03909
 Alpha  occ. eigenvalues --   -1.03455  -1.03382  -1.02837  -1.02560  -1.01904
 Alpha  occ. eigenvalues --   -0.92130  -0.91762  -0.89653  -0.89407  -0.89313
 Alpha  occ. eigenvalues --   -0.88895  -0.88414  -0.88046  -0.88011  -0.87850
 Alpha  occ. eigenvalues --   -0.87584  -0.87483  -0.87436  -0.86976  -0.85190
 Alpha  occ. eigenvalues --   -0.84778  -0.84061  -0.83707  -0.83116  -0.82836
 Alpha  occ. eigenvalues --   -0.82800  -0.82445  -0.81758  -0.81395  -0.80763
 Alpha  occ. eigenvalues --   -0.80246  -0.78957  -0.78467  -0.77392  -0.77119
 Alpha  occ. eigenvalues --   -0.76950  -0.76690  -0.76102  -0.75601  -0.75029
 Alpha  occ. eigenvalues --   -0.74620  -0.72924  -0.72496  -0.71827  -0.71356
 Alpha  occ. eigenvalues --   -0.70030  -0.69597  -0.69067  -0.68614  -0.67798
 Alpha  occ. eigenvalues --   -0.67443  -0.67410  -0.67026  -0.65489  -0.65050
 Alpha  occ. eigenvalues --   -0.65013  -0.64789  -0.64568  -0.64449  -0.64405
 Alpha  occ. eigenvalues --   -0.64023  -0.62466  -0.62082  -0.60591  -0.60177
 Alpha  occ. eigenvalues --   -0.59998  -0.59560  -0.59140  -0.58790  -0.58657
 Alpha  occ. eigenvalues --   -0.58225  -0.57748  -0.57452  -0.57328  -0.57052
 Alpha  occ. eigenvalues --   -0.56467  -0.56169  -0.56016  -0.55694  -0.55677
 Alpha  occ. eigenvalues --   -0.55478  -0.55271  -0.55064  -0.54676  -0.54305
 Alpha  occ. eigenvalues --   -0.54114  -0.53673  -0.53452  -0.53410  -0.53088
 Alpha  occ. eigenvalues --   -0.53047  -0.52947  -0.52940  -0.52710  -0.52563
 Alpha  occ. eigenvalues --   -0.52504  -0.52249  -0.52045  -0.51825  -0.51670
 Alpha  occ. eigenvalues --   -0.51460  -0.51352  -0.50999  -0.50749  -0.50360
 Alpha  occ. eigenvalues --   -0.50177  -0.50079  -0.49786  -0.49694  -0.49693
 Alpha  occ. eigenvalues --   -0.49381  -0.49290  -0.49280  -0.48992  -0.48843
 Alpha  occ. eigenvalues --   -0.48760  -0.48590  -0.48587  -0.48340  -0.48203
 Alpha  occ. eigenvalues --   -0.48163  -0.47865  -0.47453  -0.47408  -0.46958
 Alpha  occ. eigenvalues --   -0.46956  -0.46765  -0.46516  -0.46510  -0.46337
 Alpha  occ. eigenvalues --   -0.46305  -0.46094  -0.45980  -0.45892  -0.45608
 Alpha  occ. eigenvalues --   -0.45329  -0.45024  -0.44737  -0.44682  -0.44311
 Alpha  occ. eigenvalues --   -0.44294  -0.44277  -0.44270  -0.44178  -0.43913
 Alpha  occ. eigenvalues --   -0.43887  -0.43755  -0.43658  -0.43560  -0.43354
 Alpha  occ. eigenvalues --   -0.43182  -0.43171  -0.42870  -0.42791  -0.42733
 Alpha  occ. eigenvalues --   -0.42692  -0.42385  -0.42169  -0.41862  -0.41783
 Alpha  occ. eigenvalues --   -0.41735  -0.41449  -0.41301  -0.41257  -0.41063
 Alpha  occ. eigenvalues --   -0.40984  -0.40760  -0.40706  -0.40554  -0.40503
 Alpha  occ. eigenvalues --   -0.40490  -0.40300  -0.40040  -0.39564  -0.39272
 Alpha  occ. eigenvalues --   -0.38614  -0.38170  -0.37996  -0.37468  -0.37463
 Alpha  occ. eigenvalues --   -0.37461  -0.37078  -0.36987  -0.36888  -0.36577
 Alpha  occ. eigenvalues --   -0.36356  -0.36023  -0.34440  -0.34043  -0.33962
 Alpha  occ. eigenvalues --   -0.33657  -0.33341  -0.32971  -0.31459  -0.31188
 Alpha  occ. eigenvalues --   -0.31107  -0.30761  -0.30167  -0.29722  -0.29597
 Alpha  occ. eigenvalues --   -0.29466  -0.29142  -0.28997  -0.24234  -0.23822
 Alpha  occ. eigenvalues --   -0.21282  -0.20912
 Alpha virt. eigenvalues --   -0.08925  -0.08590  -0.01897  -0.01482  -0.00208
 Alpha virt. eigenvalues --    0.00161   0.02061   0.02416   0.02781   0.03476
 Alpha virt. eigenvalues --    0.04516   0.04881   0.04962   0.05378   0.05867

 Mulliken charges:
               1
     1  Mg   0.838644
     2  C   -0.003488
     3  C   -0.095656
     4  C   -0.044771
     5  C   -0.063597
     6  N   -0.256710
     7  C   -0.052957
     8  C   -0.013821
     9  C   -0.086772
    10  C    0.045845
    11  C    0.104765
    12  C    0.053474
    13  C   -0.071451
    14  H    0.034273
    15  N   -0.433167
    16  C    0.168171
    17  C   -0.178351
    18  C   -0.003853
    19  C    0.149145
    20  C    0.110448
    21  C    0.013209
    22  O   -0.247734
    23  C    0.062842
    24  N   -0.341044
    25  C    0.041088
    26  C   -0.028502
    27  C   -0.024042
    28  C    0.074913
    29  C    0.075991
    30  C    0.035042
    31  C   -0.005791
    32  N   -0.310579
    33  C    0.080586
    34  C   -0.169265
    35  C    0.008650
    36  C    0.083130
    37  C    0.127218
    38  C    0.046390
    39  O   -0.187615
    40  C   -0.005529
    41  C    0.213289
    42  O   -0.258109
    43  O   -0.304557
    44  C    0.157503
    45  H   -0.017799
    46  H   -0.015909
    47  H   -0.041110
    48  H    0.001438
    49  H   -0.004949
    50  H    0.025819
    51  H    0.016893
    52  H    0.016728
    53  H    0.008978
    54  H    0.043636
    55  H    0.019301
    56  H    0.017272
    57  H    0.005444
    58  H    0.027478
    59  H    0.037161
    60  H    0.037281
    61  H    0.037130
    62  H    0.028534
    63  H    0.017609
    64  H    0.009744
    65  H    0.023824
    66  H    0.012510
    67  H    0.004872
    68  H    0.006723
    69  H    0.004620
    70  H    0.010619
    71  H    0.017116
    72  H    0.029539
    73  H    0.048182
    74  H    0.009273
    75  H    0.046311
    76  H    0.035438
    77  H    0.044013
    78  H    0.045649
    79  H    0.053486
    80  Mg   0.838317
    81  C   -0.016201
    82  C   -0.088147
    83  C   -0.045347
    84  C   -0.064867
    85  N   -0.254739
    86  C   -0.047874
    87  C   -0.015136
    88  C   -0.091388
    89  C    0.046787
    90  C    0.114478
    91  C    0.062648
    92  C   -0.077186
    93  H    0.033899
    94  N   -0.423440
    95  C    0.162981
    96  C   -0.175440
    97  C   -0.007675
    98  C    0.151688
    99  C    0.100354
   100  C    0.015752
   101  O   -0.252603
   102  C    0.061661
   103  N   -0.349885
   104  C    0.037162
   105  C   -0.019866
   106  C   -0.034762
   107  C    0.089148
   108  C    0.073498
   109  C    0.034806
   110  C   -0.007556
   111  N   -0.324403
   112  C    0.079153
   113  C   -0.162664
   114  C    0.003163
   115  C    0.096421
   116  C    0.131129
   117  C    0.043230
   118  O   -0.187561
   119  C    0.000372
   120  C    0.210878
   121  O   -0.251675
   122  O   -0.305025
   123  C    0.152300
   124  H   -0.021204
   125  H   -0.015400
   126  H   -0.040841
   127  H    0.000518
   128  H   -0.006587
   129  H    0.030619
   130  H    0.014698
   131  H    0.013711
   132  H    0.013237
   133  H    0.037413
   134  H    0.020719
   135  H    0.018592
   136  H    0.007543
   137  H    0.022986
   138  H    0.039028
   139  H    0.036314
   140  H    0.036349
   141  H    0.033384
   142  H    0.014087
   143  H    0.011835
   144  H    0.024733
   145  H    0.013252
   146  H    0.004347
   147  H    0.005723
   148  H    0.003411
   149  H    0.010798
   150  H    0.017556
   151  H    0.030360
   152  H    0.045646
   153  H    0.007830
   154  H    0.048573
   155  H    0.038461
   156  H    0.043735
   157  H    0.048959
   158  H    0.053124
 Sum of Mulliken charges =  -0.00000

 Dipole moment (field-independent basis, Debye):
    X=             -5.8143    Y=             -0.3635    Z=             -6.3831  Tot=              8.6419
 Quadrupole moment (field-independent basis, Debye-Ang):
   XX=           -533.0217   YY=           -535.8006   ZZ=           -457.9978
   XY=            -16.4381   XZ=              2.8129   YZ=            -53.5960

 Normal termination of Gaussian 16 at Thu Sep  9 18:05:49 2021.
