 Gaussian 16, Revision A.03,
 Gaussian 16:  ES64L-G16RevA.03 25-Dec-2016

 -----------------------------------
 #p cam-b3lyp/Def2SVP td=(nstates=5)
 -----------------------------------

 --------------------------------
 TDDFT excited states in gaussian
 --------------------------------
 Symbolic Z-matrix:
 Charge =  0 Multiplicity = 1

                         Standard orientation:
 ---------------------------------------------------------------------
 Center     Atomic      Atomic             Coordinates (Angstroms)
 Number     Number       Type             X           Y           Z
 ---------------------------------------------------------------------
      1         12           0       -4.440563   -0.692816   -0.469445
      2          6           0       -4.927527    1.867001    1.984616
      3          6           0       -5.097589    1.666920   -2.844951
      4          6           0       -4.464049   -3.022137   -2.621266
      5          6           0       -4.944020   -3.021452    2.074106
      6          7           0       -4.934242    1.460270   -0.324027
      7          6           0       -5.031154    2.334585    0.672644
      8          6           0       -5.178033    3.808469    0.189458
      9          6           0       -5.780693    3.538747   -1.261765
     10          6           0       -5.208837    2.153856   -1.508706
     11          6           0       -7.303385    3.452301   -1.282721
     12          6           0       -3.800183    4.547945    0.109231
     13          6           0       -3.883117    6.070187   -0.036556
     14          1           0       -2.878968    6.892434    0.621428
     15          7           0       -4.256061   -0.623020   -2.435135
     16          6           0       -4.554535    0.425139   -3.239846
     17          6           0       -4.245619   -0.017146   -4.616667
     18          6           0       -3.923326   -1.470308   -4.566248
     19          6           0       -4.231062   -1.773023   -3.191824
     20          6           0       -4.227547    0.908966   -5.793842
     21          6           0       -3.428147   -2.435588   -5.596376
     22          8           0       -3.435480   -3.699426   -5.403417
     23          6           0       -3.011214   -1.861090   -6.888336
     24          7           0       -4.886753   -2.728766   -0.353437
     25          6           0       -4.761425   -3.524589   -1.421118
     26          6           0       -4.858019   -4.971575   -1.037922
     27          6           0       -4.833160   -5.008785    0.558246
     28          6           0       -4.807288   -3.484303    0.829461
     29          6           0       -6.099589   -5.717139   -1.546499
     30          6           0       -3.750692   -5.894893    1.224199
     31          6           0       -2.379143   -5.314859    0.960549
     32          7           0       -4.686252   -0.629574    1.686171
     33          6           0       -4.905449   -1.718619    2.542096
     34          6           0       -5.116979   -1.169700    3.894135
     35          6           0       -5.021978    0.210448    3.726773
     36          6           0       -4.793353    0.506282    2.352544
     37          6           0       -5.417270   -1.924352    5.062365
     38          6           0       -5.084942    1.505231    4.385128
     39          8           0       -5.161528    1.879804    5.556163
     40          6           0       -5.147724    2.634706    3.264337
     41          6           0       -4.144375    3.694308    3.630180
     42          8           0       -2.920607    3.450657    3.610348
     43          8           0       -4.762754    4.882247    3.713551
     44          6           0       -3.818179    5.982393    4.044627
     45          1           0       -5.516300    2.260852   -3.659731
     46          1           0       -4.370904   -3.862954   -3.311765
     47          1           0       -5.022727   -3.691692    2.932031
     48          1           0       -5.872403    4.411576    0.774724
     49          1           0       -5.397504    4.243942   -1.999050
     50          1           0       -7.716882    3.461821   -0.274331
     51          1           0       -7.534607    2.510160   -1.780114
     52          1           0       -7.727190    4.235291   -1.912080
     53          1           0       -3.312263    4.297662   -0.832763
     54          1           0       -3.179364    4.301626    0.971342
     55          1           0       -4.884769    6.438072    0.187639
     56          1           0       -3.730852    6.321562   -1.086235
     57          1           0       -4.666293    1.875630   -5.549692
     58          1           0       -4.898994    0.486923   -6.541335
     59          1           0       -3.228321    1.016459   -6.216127
     60          1           0       -3.851671   -1.327772   -7.333032
     61          1           0       -2.603237   -2.688561   -7.467729
     62          1           0       -2.235388   -1.116056   -6.709543
     63          1           0       -4.008641   -5.535267   -1.421632
     64          1           0       -5.771284   -5.377869    0.973425
     65          1           0       -5.866682   -6.598593   -2.144411
     66          1           0       -6.708744   -5.011604   -2.110804
     67          1           0       -6.795340   -6.030259   -0.768487
     68          1           0       -3.763464   -6.896119    0.794863
     69          1           0       -3.879401   -5.994561    2.302044
     70          1           0       -2.134424   -5.707200   -0.025865
     71          1           0       -1.667325   -5.666430    1.708161
     72          1           0       -2.415320   -4.228317    0.879280
     73          1           0       -4.802703   -1.508302    5.860600
     74          1           0       -5.209492   -2.983751    4.913690
     75          1           0       -6.482356   -1.718464    5.167520
     76          1           0       -6.167206    3.019123    3.263468
     77          1           0       -4.198627    6.473415    4.940390
     78          1           0       -3.715818    6.585066    3.142013
     79          1           0       -2.825680    5.680654    4.381135
     80         12           0        4.498950   -0.591232    0.468219
     81          6           0        4.697346    2.018510   -1.987176
     82          6           0        5.329138    1.749773    2.805965
     83          6           0        4.773975   -2.942557    2.580807
     84          6           0        4.815063   -2.879866   -2.140979
     85          7           0        4.931845    1.571865    0.307284
     86          6           0        4.916474    2.467688   -0.668215
     87          6           0        5.069275    3.937800   -0.193891
     88          6           0        5.819900    3.664219    1.199163
     89          6           0        5.305623    2.253999    1.481082
     90          6           0        7.332473    3.603270    1.065941
     91          6           0        3.684406    4.641189    0.028297
     92          6           0        3.753976    6.161123    0.191704
     93          1           0        2.667979    6.970318   -0.354444
     94          7           0        4.497034   -0.541922    2.452193
     95          6           0        4.841190    0.497865    3.240650
     96          6           0        4.689695    0.021124    4.624099
     97          6           0        4.386602   -1.435431    4.587772
     98          6           0        4.565230   -1.706705    3.175471
     99          6           0        4.754650    0.936643    5.811972
    100          6           0        4.012087   -2.423598    5.650530
    101          8           0        4.027354   -3.686362    5.431338
    102          6           0        3.717329   -1.874240    6.981992
    103          7           0        4.968688   -2.607753    0.280296
    104          6           0        4.968144   -3.420463    1.351485
    105          6           0        5.062510   -4.869456    0.936891
    106          6           0        4.882146   -4.874284   -0.652138
    107          6           0        4.800303   -3.352383   -0.902157
    108          6           0        6.363746   -5.582831    1.303296
    109          6           0        3.760310   -5.779713   -1.230357
    110          6           0        2.405531   -5.246082   -0.823907
    111          7           0        4.532344   -0.494665   -1.689935
    112          6           0        4.700076   -1.570253   -2.589401
    113          6           0        4.769779   -0.994685   -3.948182
    114          6           0        4.659993    0.388667   -3.741373
    115          6           0        4.551259    0.657779   -2.350231
    116          6           0        4.963819   -1.727368   -5.153028
    117          6           0        4.622032    1.683207   -4.382786
    118          8           0        4.585943    2.074241   -5.548765
    119          6           0        4.771680    2.804830   -3.266550
    120          6           0        3.714973    3.847071   -3.510753
    121          8           0        2.509724    3.565885   -3.388609
    122          8           0        4.303470    5.050746   -3.634122
    123          6           0        3.295169    6.118969   -3.866613
    124          1           0        5.804091    2.351174    3.581614
    125          1           0        4.765688   -3.799347    3.258548
    126          1           0        4.814577   -3.534176   -3.015371
    127          1           0        5.685412    4.559420   -0.832430
    128          1           0        5.485219    4.353347    1.970166
    129          1           0        7.647663    3.636558    0.033616
    130          1           0        7.630573    2.668581    1.522594
    131          1           0        7.795753    4.392567    1.664872
    132          1           0        3.296271    4.363530    1.016739
    133          1           0        3.000411    4.393432   -0.760001
    134          1           0        4.726258    6.564705   -0.116114
    135          1           0        3.689955    6.398978    1.256289
    136          1           0        5.154078    1.921341    5.539539
    137          1           0        5.501887    0.520216    6.496144
    138          1           0        3.799876    1.014597    6.336384
    139          1           0        4.582910   -1.325947    7.346155
    140          1           0        3.383771   -2.723627    7.581288
    141          1           0        2.901700   -1.148566    6.888319
    142          1           0        4.265649   -5.451958    1.382777
    143          1           0        5.788948   -5.228516   -1.164062
    144          1           0        6.206493   -6.489012    1.918276
    145          1           0        7.004864   -4.880056    1.818674
    146          1           0        6.980839   -5.881163    0.457485
    147          1           0        3.834635   -6.787343   -0.814054
    148          1           0        3.795254   -5.874171   -2.310570
    149          1           0        2.269821   -5.656946    0.181015
    150          1           0        1.633906   -5.602233   -1.503460
    151          1           0        2.423674   -4.153741   -0.733747
    152          1           0        4.274353   -1.319259   -5.880062
    153          1           0        4.799103   -2.792153   -5.001758
    154          1           0        6.014034   -1.498845   -5.353273
    155          1           0        5.778646    3.215849   -3.348064
    156          1           0        3.581325    6.633029   -4.789413
    157          1           0        3.278675    6.721243   -2.938853
    158          1           0        2.283199    5.810431   -4.101479
 ---------------------------------------------------------------------

 SCF Done:  E(RCAM-B3LYP) =  -4069.81251882     A.U. after   19 cycles

 Excitation energies and oscillator strengths:

 Excited State   1:      Singlet-A      1.6493 eV  751.73 nm  f=0.0063  <S**2>=0.000
     309 -> 315        0.12362
     310 -> 316        0.11256
     311 -> 313        0.50903
     312 -> 314        0.46235
 This state for optimization and/or second-order correction.
 Total Energy, E(TD-HF/TD-DFT) =  -4069.75190725
 Copying the excited state density for this state as the 1-particle RhoCI density.

 Excited State   2:      Singlet-A      1.7035 eV  727.80 nm  f=0.6973  <S**2>=0.000
     309 -> 315       -0.12160
     310 -> 316        0.13430
     311 -> 313       -0.46008
     312 -> 314        0.50650

 Excited State   3:      Singlet-A      2.1834 eV  567.84 nm  f=0.0157  <S**2>=0.000
     309 -> 313        0.56215
     310 -> 314       -0.31500
     311 -> 315       -0.23555
     312 -> 316        0.13100

 Excited State   4:      Singlet-A      2.1968 eV  564.40 nm  f=0.1605  <S**2>=0.000
     309 -> 313        0.31133
     310 -> 314        0.55792
     311 -> 315       -0.13780
     312 -> 316       -0.24549

 Excited State   5:      Singlet-A      2.4581 eV  504.40 nm  f=0.0000  <S**2>=0.000
     312 -> 313        0.70709

 The electronic state is 1-A.
 Alpha  occ. eigenvalues --  -46.87538 -46.87495 -19.26380 -19.26212 -19.19178
 Alpha  occ. eigenvalues --  -19.18931 -19.18530 -19.18518 -19.17987 -19.17973
 Alpha  occ. eigenvalues --  -14.42333 -14.42196 -14.41204 -14.41202 -14.39178
 Alpha  occ. eigenvalues --  -14.39133 -14.38449 -14.38343 -10.39096 -10.38981
 Alpha  occ. eigenvalues --  -10.35190 -10.35157 -10.34211 -10.34153 -10.31841
 Alpha  occ. eigenvalues --  -10.31662 -10.31170 -10.31167 -10.30856 -10.30648
 Alpha  occ. eigenvalues --  -10.30324 -10.30267 -10.30247 -10.30212 -10.29964
 Alpha  occ. eigenvalues --  -10.29942 -10.29761 -10.29703 -10.29379 -10.29256
 Alpha  occ. eigenvalues --  -10.29242 -10.28980 -10.28580 -10.28560 -10.28519
 Alpha  occ. eigenvalues --  -10.28364 -10.28249 -10.28111 -10.27998 -10.27884
 Alpha  occ. eigenvalues --  -10.27848 -10.27542 -10.27502 -10.27467 -10.27371
 Alpha  occ. eigenvalues --  -10.27338 -10.27312 -10.27293 -10.27285 -10.27252
 Alpha  occ. eigenvalues --  -10.27247 -10.27205 -10.27167 -10.27099 -10.26990
 Alpha  occ. eigenvalues --  -10.26980 -10.26534 -10.26454 -10.26145 -10.26040
 Alpha  occ. eigenvalues --  -10.26032 -10.25984 -10.25975 -10.25908 -10.25774
 Alpha  occ. eigenvalues --  -10.25769 -10.25754 -10.25655 -10.25288 -10.25260
 Alpha  occ. eigenvalues --  -10.24732 -10.24596 -10.24558 -10.24549 -10.24542
 Alpha  occ. eigenvalues --  -10.24466  -3.16280  -3.16244  -1.91162  -1.91126
 Alpha  occ. eigenvalues --   -1.90749  -1.90715  -1.90591  -1.90552  -1.16669
 Alpha  occ. eigenvalues --   -1.16556  -1.08596  -1.08459  -1.06960  -1.06932
 Alpha  occ. eigenvalues --   -1.06770  -1.06552  -1.04335  -1.04329  -1.03513
 Alpha  occ. eigenvalues --   -1.03503  -1.02981  -1.02882  -1.02163  -1.01957
 Alpha  occ. eigenvalues --   -0.91861  -0.91751  -0.89346  -0.89291  -0.89009
 Alpha  occ. eigenvalues --   -0.88957  -0.88077  -0.88066  -0.87662  -0.87643
 Alpha  occ. eigenvalues --   -0.87527  -0.87423  -0.86968  -0.86913  -0.84857
 Alpha  occ. eigenvalues --   -0.84750  -0.83743  -0.83730  -0.82738  -0.82678
 Alpha  occ. eigenvalues --   -0.82498  -0.82410  -0.81527  -0.81421  -0.80377
 Alpha  occ. eigenvalues --   -0.80323  -0.78518  -0.78458  -0.76995  -0.76984
 Alpha  occ. eigenvalues --   -0.76793  -0.76740  -0.75727  -0.75722  -0.74691
 Alpha  occ. eigenvalues --   -0.74677  -0.72551  -0.72535  -0.71451  -0.71449
 Alpha  occ. eigenvalues --   -0.69689  -0.69607  -0.68686  -0.68640  -0.67462
 Alpha  occ. eigenvalues --   -0.67406  -0.67038  -0.66969  -0.65142  -0.65063
 Alpha  occ. eigenvalues --   -0.64648  -0.64644  -0.64533  -0.64409  -0.64064
 Alpha  occ. eigenvalues --   -0.64044  -0.62220  -0.62148  -0.60166  -0.60159
 Alpha  occ. eigenvalues --   -0.59651  -0.59567  -0.58858  -0.58762  -0.58301
 Alpha  occ. eigenvalues --   -0.58281  -0.57488  -0.57417  -0.57093  -0.57084
 Alpha  occ. eigenvalues --   -0.56080  -0.56072  -0.55831  -0.55819  -0.55317
 Alpha  occ. eigenvalues --   -0.55266  -0.55155  -0.55139  -0.54400  -0.54357
 Alpha  occ. eigenvalues --   -0.53773  -0.53666  -0.53084  -0.53063  -0.53012
 Alpha  occ. eigenvalues --   -0.52973  -0.52786  -0.52718  -0.52461  -0.52460
 Alpha  occ. eigenvalues --   -0.52252  -0.52223  -0.51780  -0.51712  -0.51504
 Alpha  occ. eigenvalues --   -0.51369  -0.51088  -0.50990  -0.50248  -0.50234
 Alpha  occ. eigenvalues --   -0.49812  -0.49791  -0.49712  -0.49649  -0.49328
 Alpha  occ. eigenvalues --   -0.49273  -0.49067  -0.48990  -0.48985  -0.48886
 Alpha  occ. eigenvalues --   -0.48458  -0.48404  -0.48269  -0.48266  -0.48177
 Alpha  occ. eigenvalues --   -0.48159  -0.47458  -0.47450  -0.47050  -0.46962
 Alpha  occ. eigenvalues --   -0.46573  -0.46567  -0.46414  -0.46334  -0.46130
 Alpha  occ. eigenvalues --   -0.46123  -0.45971  -0.45960  -0.45741  -0.45650
 Alpha  occ. eigenvalues --   -0.45076  -0.44986  -0.44413  -0.44390  -0.44331
 Alpha  occ. eigenvalues --   -0.44249  -0.44012  -0.43938  -0.43919  -0.43875
 Alpha  occ. eigenvalues --   -0.43772  -0.43770  -0.43494  -0.43327  -0.43257
 Alpha  occ. eigenvalues --   -0.43155  -0.42890  -0.42809  -0.42782  -0.42581
 Alpha  occ. eigenvalues --   -0.42441  -0.42395  -0.41824  -0.41797  -0.41552
 Alpha  occ. eigenvalues --   -0.41488  -0.41320  -0.41311  -0.40918  -0.40856
 Alpha  occ. eigenvalues --   -0.40644  -0.40573  -0.40538  -0.40517  -0.40358
 Alpha  occ. eigenvalues --   -0.40356  -0.40064  -0.39987  -0.39289  -0.39202
 Alpha  occ. eigenvalues --   -0.38251  -0.38210  -0.37531  -0.37526  -0.37124
 Alpha  occ. eigenvalues --   -0.37090  -0.37054  -0.37029  -0.36753  -0.36587
 Alpha  occ. eigenvalues --   -0.36102  -0.36004  -0.34112  -0.34046  -0.33847
 Alpha  occ. eigenvalues --   -0.33654  -0.33025  -0.32946  -0.31083  -0.31066
 Alpha  occ. eigenvalues --   -0.30823  -0.30796  -0.29884  -0.29854  -0.29184
 Alpha  occ. eigenvalues --   -0.29159  -0.29073  -0.29061  -0.23883  -0.23834
 Alpha  occ. eigenvalues --   -0.20956  -0.20875
 Alpha virt. eigenvalues --   -0.08631  -0.08516  -0.01521  -0.01496   0.00147
 Alpha virt. eigenvalues --    0.00214   0.02325   0.02413   0.02989   0.03895
 Alpha virt. eigenvalues --    0.04869   0.04949   0.05175   0.05211   0.06258

 Mulliken charges:
               1
     1  Mg   0.840088
     2  C   -0.003036
     3  C   -0.091941
     4  C   -0.046234
     5  C   -0.063982
     6  N   -0.256821
     7  C   -0.052475
     8  C   -0.014336
     9  C   -0.087419
    10  C    0.047148
    11  C    0.104882
    12  C    0.052800
    13  C   -0.070879
    14  H    0.033416
    15  N   -0.433366
    16  C    0.170078
    17  C   -0.174915
    18  C   -0.003141
    19  C    0.149239
    20  C    0.109921
    21  C    0.012958
    22  O   -0.250916
    23  C    0.061393
    24  N   -0.341208
    25  C    0.041580
    26  C   -0.028048
    27  C   -0.023691
    28  C    0.074455
    29  C    0.076399
    30  C    0.035176
    31  C   -0.004802
    32  N   -0.310161
    33  C    0.079830
    34  C   -0.170408
    35  C    0.007578
    36  C    0.082542
    37  C    0.127582
    38  C    0.045171
    39  O   -0.190453
    40  C   -0.005163
    41  C    0.212689
    42  O   -0.257992
    43  O   -0.304493
    44  C    0.158444
    45  H   -0.017649
    46  H   -0.017409
    47  H   -0.042025
    48  H   -0.000043
    49  H   -0.003361
    50  H    0.024997
    51  H    0.016399
    52  H    0.016300
    53  H    0.015196
    54  H    0.043422
    55  H    0.017061
    56  H    0.018638
    57  H    0.005856
    58  H    0.025847
    59  H    0.044390
    60  H    0.036865
    61  H    0.034804
    62  H    0.035863
    63  H    0.015858
    64  H    0.008939
    65  H    0.022607
    66  H    0.012526
    67  H    0.004434
    68  H    0.005382
    69  H    0.004824
    70  H    0.007845
    71  H    0.019410
    72  H    0.029405
    73  H    0.046252
    74  H    0.009122
    75  H    0.045353
    76  H    0.034716
    77  H    0.042177
    78  H    0.046587
    79  H    0.051908
    80  Mg   0.839220
    81  C   -0.017035
    82  C   -0.086345
    83  C   -0.045607
    84  C   -0.064674
    85  N   -0.254676
    86  C   -0.049772
    87  C   -0.015434
    88  C   -0.090868
    89  C    0.046563
    90  C    0.114428
    91  C    0.062010
    92  C   -0.077112
    93  H    0.032500
    94  N   -0.423714
    95  C    0.164582
    96  C   -0.173136
    97  C   -0.006876
    98  C    0.152625
    99  C    0.099248
   100  C    0.016370
   101  O   -0.253965
   102  C    0.060288
   103  N   -0.350086
   104  C    0.037789
   105  C   -0.019756
   106  C   -0.034616
   107  C    0.088546
   108  C    0.073828
   109  C    0.034739
   110  C   -0.008187
   111  N   -0.323808
   112  C    0.077978
   113  C   -0.163816
   114  C    0.001300
   115  C    0.095869
   116  C    0.131827
   117  C    0.041240
   118  O   -0.190122
   119  C    0.001174
   120  C    0.210963
   121  O   -0.252102
   122  O   -0.305219
   123  C    0.152830
   124  H   -0.019633
   125  H   -0.015847
   126  H   -0.040663
   127  H   -0.001543
   128  H   -0.003723
   129  H    0.022031
   130  H    0.014411
   131  H    0.016048
   132  H    0.017358
   133  H    0.037032
   134  H    0.020048
   135  H    0.020406
   136  H    0.008773
   137  H    0.025496
   138  H    0.043419
   139  H    0.037796
   140  H    0.036032
   141  H    0.037337
   142  H    0.014045
   143  H    0.011982
   144  H    0.024736
   145  H    0.011566
   146  H    0.005435
   147  H    0.005431
   148  H    0.004006
   149  H    0.010092
   150  H    0.019735
   151  H    0.030326
   152  H    0.044321
   153  H    0.008935
   154  H    0.046397
   155  H    0.034694
   156  H    0.043161
   157  H    0.049907
   158  H    0.051476
 Sum of Mulliken charges =  -0.00000

 Dipole moment (field-independent basis, Debye):
    X=              0.3418    Y=              3.1532    Z=             -0.3429  Tot=              3.1902
 Quadrupole moment (field-independent basis, Debye-Ang):
   XX=           -487.0114   YY=           -461.9716   ZZ=           -538.4152
   XY=              2.1821   XZ=             36.0630   YZ=              1.0415

 Normal termination of Gaussian 16 at Thu Sep  9 17:37:52 2021.
