 Gaussian 16, Revision A.03,
 Gaussian 16:  ES64L-G16RevA.03 25-Dec-2016

 -----------------------------------
 #p cam-b3lyp/Def2SVP td=(nstates=5)
 -----------------------------------

 --------------------------------
 TDDFT excited states in gaussian
 --------------------------------
 Symbolic Z-matrix:
 Charge =  0 Multiplicity = 1

                         Standard orientation:
 ---------------------------------------------------------------------
 Center     Atomic      Atomic             Coordinates (Angstroms)
 Number     Number       Type             X           Y           Z
 ---------------------------------------------------------------------
      1         12           0        4.793667    1.212546    0.705133
      2          6           0        5.529373   -2.107896   -0.410940
      3          6           0        5.857869    2.313436   -2.344224
      4          6           0        4.582947    4.173227    1.821638
      5          6           0        4.875954   -0.022733    3.962889
      6          7           0        5.570176    0.141445   -1.069810
      7          6           0        5.746597   -1.136487   -1.390647
      8          6           0        6.111628   -1.352389   -2.889817
      9          6           0        6.727762    0.083243   -3.208153
     10          6           0        5.982505    0.903101   -2.169716
     11          6           0        8.224117    0.179658   -2.928642
     12          6           0        4.851584   -1.643585   -3.772555
     13          6           0        5.146812   -2.184939   -5.174386
     14          1           0        4.239331   -3.164729   -5.752171
     15          7           0        4.696822    2.938547   -0.251104
     16          6           0        5.166372    3.203258   -1.493979
     17          6           0        4.853722    4.625075   -1.753529
     18          6           0        4.334666    5.215119   -0.488411
     19          6           0        4.544700    4.125356    0.430110
     20          6           0        5.007739    5.269464   -3.096955
     21          6           0        3.752897    6.553029   -0.157243
     22          8           0        3.580413    6.940000    1.049022
     23          6           0        3.468611    7.445702   -1.295382
     24          7           0        4.953362    2.021765    2.622761
     25          6           0        4.762265    3.327842    2.838700
     26          6           0        4.645797    3.627736    4.303773
     27          6           0        4.554175    2.213064    5.038662
     28          6           0        4.725819    1.294185    3.803968
     29          6           0        5.792956    4.445801    4.912711
     30          6           0        3.336015    1.980683    5.967373
     31          6           0        2.067596    1.924647    5.145747
     32          7           0        4.961843   -0.741008    1.635934
     33          6           0        4.997181   -1.020131    3.009803
     34          6           0        5.228923   -2.469481    3.150337
     35          6           0        5.329482   -2.933167    1.840097
     36          6           0        5.196816   -1.838486    0.938783
     37          6           0        5.377992   -3.174494    4.377190
     38          6           0        5.542735   -4.094984    0.992418
     39          8           0        5.624157   -5.308390    1.188659
     40          6           0        5.802320   -3.589102   -0.495038
     41          6           0        4.939318   -4.412168   -1.412152
     42          8           0        3.695462   -4.318114   -1.375515
     43          8           0        5.710131   -4.997005   -2.341858
     44          6           0        4.912186   -5.805350   -3.302075
     45          1           0        6.384924    2.791440   -3.172274
     46          1           0        4.402938    5.162026    2.248618
     47          1           0        4.829223   -0.492756    4.946936
     48          1           0        6.858478   -2.126066   -3.068879
     49          1           0        6.473166    0.421797   -4.212286
     50          1           0        8.595606   -0.717606   -2.433835
     51          1           0        8.343898    1.048648   -2.281338
     52          1           0        8.774786    0.407889   -3.841577
     53          1           0        4.371031   -0.701124   -4.035034
     54          1           0        4.170002   -2.323179   -3.259793
     55          1           0        6.179796   -2.522904   -5.261750
     56          1           0        5.071080   -1.359461   -5.882236
     57          1           0        5.564334    4.633887   -3.784552
     58          1           0        5.643896    6.143640   -2.959730
     59          1           0        4.049636    5.574495   -3.518056
     60          1           0        4.390531    7.629774   -1.847404
     61          1           0        2.974455    8.320879   -0.874996
     62          1           0        2.795220    6.935464   -1.984694
     63          1           0        3.743053    4.199314    4.515379
     64          1           0        5.416416    2.028674    5.679922
     65          1           0        5.465465    5.366007    5.397145
     66          1           0        6.514023    4.654823    4.122988
     67          1           0        6.408817    3.905186    5.630951
     68          1           0        3.228857    2.809201    6.666674
     69          1           0        3.408014    1.062168    6.549952
     70          1           0        1.810152    2.976117    5.023412
     71          1           0        1.286031    1.391931    5.688501
     72          1           0        2.254652    1.517222    4.152017
     73          1           0        4.795356   -4.090020    4.275626
     74          1           0        5.033690   -2.577445    5.221342
     75          1           0        6.456310   -3.332393    4.389615
     76          1           0        6.863942   -3.732223   -0.694030
     77          1           0        5.320957   -6.815772   -3.288336
     78          1           0        4.928027   -5.265964   -4.249290
     79          1           0        3.875519   -5.998951   -3.024265
     80         12           0       -5.650088   -0.094613   -0.384841
     81          6           0       -3.051191   -2.548126   -0.060668
     82          6           0       -3.285170    2.029318   -1.622033
     83          6           0       -7.811823    2.224738   -0.262567
     84          6           0       -7.511552   -1.968351    1.888861
     85          7           0       -3.482405   -0.343286   -0.747534
     86          6           0       -2.616131   -1.339881   -0.644029
     87          6           0       -1.225457   -1.050926   -1.270204
     88          6           0       -1.254848    0.552760   -1.191544
     89          6           0       -2.766073    0.771425   -1.224110
     90          6           0       -0.721132    1.100782    0.121532
     91          6           0       -1.122260   -1.551462   -2.753717
     92          6           0        0.297133   -1.582227   -3.324781
     93          1           0        0.649994   -2.650883   -4.255333
     94          7           0       -5.700632    1.663619   -1.303881
     95          6           0       -4.647716    2.373900   -1.760106
     96          6           0       -5.211810    3.604011   -2.336970
     97          6           0       -6.668981    3.637640   -2.036577
     98          6           0       -6.782224    2.495269   -1.152121
     99          6           0       -4.400261    4.565137   -3.156150
    100          6           0       -7.774930    4.554746   -2.463192
    101          8           0       -8.921960    4.537842   -1.891479
    102          6           0       -7.446376    5.536855   -3.506744
    103          7           0       -7.317810    0.216518    0.816930
    104          6           0       -8.118227    1.280053    0.626806
    105          6           0       -9.396964    1.148973    1.419290
    106          6           0       -9.394704   -0.343128    1.994792
    107          6           0       -8.012068   -0.808014    1.487274
    108          6           0       -9.569886    2.138316    2.571545
    109          6           0      -10.633920   -1.223009    1.674104
    110          6           0      -10.684364   -1.523384    0.193356
    111          7           0       -5.444635   -2.013981    0.585661
    112          6           0       -6.327764   -2.595404    1.521663
    113          6           0       -5.705344   -3.852584    1.984816
    114          6           0       -4.483064   -3.904233    1.297900
    115          6           0       -4.343842   -2.749986    0.480698
    116          6           0       -6.247716   -4.740930    2.955793
    117          6           0       -3.274187   -4.667476    1.086353
    118          8           0       -2.871857   -5.774052    1.443229
    119          6           0       -2.236632   -3.761254    0.293475
    120          6           0       -1.672250   -4.580090   -0.835017
    121          8           0       -2.402096   -4.957723   -1.768459
    122          8           0       -0.330312   -4.597272   -0.738735
    123          6           0        0.276128   -5.388148   -1.842629
    124          1           0       -2.585088    2.844666   -1.806371
    125          1           0       -8.636952    2.940715   -0.264551
    126          1           0       -8.072614   -2.657904    2.523226
    127          1           0       -0.384395   -1.435521   -0.705863
    128          1           0       -0.786022    0.999689   -2.064356
    129          1           0       -0.519338    0.314649    0.833870
    130          1           0       -1.489242    1.763922    0.497420
    131          1           0        0.156047    1.728243   -0.060619
    132          1           0       -1.575257   -0.802950   -3.416492
    133          1           0       -1.576532   -2.517091   -2.862498
    134          1           0        1.058803   -1.487860   -2.541262
    135          1           0        0.440490   -0.694906   -3.946176
    136          1           0       -3.325844    4.362733   -3.066326
    137          1           0       -4.528525    5.555839   -2.706802
    138          1           0       -4.721897    4.605743   -4.199019
    139          1           0       -6.624802    6.163201   -3.167398
    140          1           0       -8.386407    6.040449   -3.740459
    141          1           0       -7.087903    4.999921   -4.392081
    142          1           0      -10.262448    1.278134    0.781033
    143          1           0       -9.346715   -0.355966    3.093595
    144          1           0      -10.494971    2.740317    2.494824
    145          1           0       -8.699809    2.780568    2.603450
    146          1           0       -9.566107    1.694630    3.565680
    147          1           0      -11.553623   -0.683265    1.912816
    148          1           0      -10.655616   -2.156369    2.226702
    149          1           0      -11.163497   -0.632243   -0.223032
    150          1           0      -11.277539   -2.415639    0.003464
    151          1           0       -9.675259   -1.583626   -0.230599
    152          1           0       -6.102766   -5.743519    2.575912
    153          1           0       -7.299562   -4.533345    3.141005
    154          1           0       -5.622443   -4.493128    3.817693
    155          1           0       -1.465591   -3.451381    0.999910
    156          1           0        0.904431   -6.154737   -1.378681
    157          1           0        0.780122   -4.651419   -2.496060
    158          1           0       -0.387236   -5.995707   -2.447016
 ---------------------------------------------------------------------

 SCF Done:  E(RCAM-B3LYP) =  -4069.81315867     A.U. after   19 cycles

 Excitation energies and oscillator strengths:

 Excited State   1:      Singlet-A      1.6528 eV  750.16 nm  f=0.0019  <S**2>=0.000
     309 -> 315       -0.11940
     310 -> 316        0.11824
     311 -> 313       -0.48566
     312 -> 314        0.48644
 This state for optimization and/or second-order correction.
 Total Energy, E(TD-HF/TD-DFT) =  -4069.75242083
 Copying the excited state density for this state as the 1-particle RhoCI density.

 Excited State   2:      Singlet-A      1.6977 eV  730.30 nm  f=0.7065  <S**2>=0.000
     309 -> 315        0.12765
     310 -> 316        0.12617
     311 -> 313        0.48434
     312 -> 314        0.48366

 Excited State   3:      Singlet-A      2.1822 eV  568.16 nm  f=0.0874  <S**2>=0.000
     309 -> 313        0.14108
     310 -> 314        0.62780
     312 -> 316       -0.26427

 Excited State   4:      Singlet-A      2.1946 eV  564.95 nm  f=0.1109  <S**2>=0.000
     309 -> 313        0.62474
     310 -> 314       -0.13925
     311 -> 315       -0.27271

 Excited State   5:      Singlet-A      2.3501 eV  527.56 nm  f=0.0000  <S**2>=0.000
     312 -> 313        0.70638

 The electronic state is 1-A.
 Alpha  occ. eigenvalues --  -46.88182 -46.87383 -19.26778 -19.25265 -19.19624
 Alpha  occ. eigenvalues --  -19.19173 -19.18494 -19.18486 -19.18356 -19.17641
 Alpha  occ. eigenvalues --  -14.42817 -14.42214 -14.41803 -14.41084 -14.39782
 Alpha  occ. eigenvalues --  -14.39079 -14.38950 -14.38312 -10.39615 -10.38275
 Alpha  occ. eigenvalues --  -10.35807 -10.35177 -10.34716 -10.33794 -10.32161
 Alpha  occ. eigenvalues --  -10.31753 -10.31295 -10.30999 -10.30918 -10.30858
 Alpha  occ. eigenvalues --  -10.30703 -10.30550 -10.30330 -10.30245 -10.30115
 Alpha  occ. eigenvalues --  -10.30060 -10.29971 -10.29909 -10.29619 -10.29611
 Alpha  occ. eigenvalues --  -10.29191 -10.29124 -10.29119 -10.28907 -10.28736
 Alpha  occ. eigenvalues --  -10.28459 -10.28292 -10.28128 -10.28109 -10.28097
 Alpha  occ. eigenvalues --  -10.28076 -10.27940 -10.27842 -10.27835 -10.27780
 Alpha  occ. eigenvalues --  -10.27774 -10.27729 -10.27720 -10.27548 -10.27404
 Alpha  occ. eigenvalues --  -10.27314 -10.27289 -10.27195 -10.27164 -10.27152
 Alpha  occ. eigenvalues --  -10.27122 -10.26789 -10.26532 -10.26491 -10.26428
 Alpha  occ. eigenvalues --  -10.26353 -10.26254 -10.26242 -10.26049 -10.25959
 Alpha  occ. eigenvalues --  -10.25817 -10.25681 -10.25675 -10.25602 -10.25211
 Alpha  occ. eigenvalues --  -10.25167 -10.25135 -10.24948 -10.24572 -10.24556
 Alpha  occ. eigenvalues --  -10.24412  -3.16924  -3.16134  -1.91806  -1.91391
 Alpha  occ. eigenvalues --   -1.91233  -1.91016  -1.90604  -1.90441  -1.17135
 Alpha  occ. eigenvalues --   -1.15624  -1.08949  -1.08209  -1.07574  -1.07185
 Alpha  occ. eigenvalues --   -1.06751  -1.06108  -1.04948  -1.04198  -1.04114
 Alpha  occ. eigenvalues --   -1.03591  -1.03381  -1.02767  -1.02765  -1.01831
 Alpha  occ. eigenvalues --   -0.92337  -0.91618  -0.89838  -0.89543  -0.89229
 Alpha  occ. eigenvalues --   -0.88811  -0.88594  -0.88169  -0.88024  -0.87977
 Alpha  occ. eigenvalues --   -0.87634  -0.87515  -0.87381  -0.86888  -0.85338
 Alpha  occ. eigenvalues --   -0.84654  -0.84242  -0.83608  -0.83317  -0.83012
 Alpha  occ. eigenvalues --   -0.82715  -0.82297  -0.81975  -0.80993  -0.80965
 Alpha  occ. eigenvalues --   -0.79904  -0.79141  -0.78380  -0.77547  -0.77289
 Alpha  occ. eigenvalues --   -0.76842  -0.76453  -0.76281  -0.75364  -0.75210
 Alpha  occ. eigenvalues --   -0.74449  -0.73102  -0.72419  -0.72010  -0.71254
 Alpha  occ. eigenvalues --   -0.70194  -0.69533  -0.69224  -0.68483  -0.67993
 Alpha  occ. eigenvalues --   -0.67590  -0.67273  -0.66833  -0.65650  -0.65223
 Alpha  occ. eigenvalues --   -0.64978  -0.64877  -0.64588  -0.64457  -0.64179
 Alpha  occ. eigenvalues --   -0.63888  -0.62709  -0.61545  -0.60790  -0.60157
 Alpha  occ. eigenvalues --   -0.60093  -0.59464  -0.59333  -0.58859  -0.58663
 Alpha  occ. eigenvalues --   -0.58066  -0.57989  -0.57652  -0.57090  -0.56818
 Alpha  occ. eigenvalues --   -0.56655  -0.56397  -0.55919  -0.55872  -0.55683
 Alpha  occ. eigenvalues --   -0.55323  -0.55023  -0.54893  -0.54769  -0.54258
 Alpha  occ. eigenvalues --   -0.53925  -0.53646  -0.53583  -0.53562  -0.53317
 Alpha  occ. eigenvalues --   -0.53123  -0.52895  -0.52777  -0.52723  -0.52421
 Alpha  occ. eigenvalues --   -0.52379  -0.52197  -0.52105  -0.51979  -0.51591
 Alpha  occ. eigenvalues --   -0.51532  -0.51272  -0.50936  -0.50782  -0.50340
 Alpha  occ. eigenvalues --   -0.50272  -0.50258  -0.49877  -0.49723  -0.49628
 Alpha  occ. eigenvalues --   -0.49576  -0.49425  -0.49201  -0.48966  -0.48835
 Alpha  occ. eigenvalues --   -0.48805  -0.48772  -0.48740  -0.48157  -0.48091
 Alpha  occ. eigenvalues --   -0.48046  -0.47980  -0.47645  -0.47237  -0.47128
 Alpha  occ. eigenvalues --   -0.46923  -0.46786  -0.46703  -0.46501  -0.46396
 Alpha  occ. eigenvalues --   -0.46211  -0.46158  -0.45979  -0.45672  -0.45509
 Alpha  occ. eigenvalues --   -0.45298  -0.44928  -0.44923  -0.44842  -0.44484
 Alpha  occ. eigenvalues --   -0.44423  -0.44368  -0.44167  -0.44094  -0.43872
 Alpha  occ. eigenvalues --   -0.43821  -0.43778  -0.43726  -0.43536  -0.43367
 Alpha  occ. eigenvalues --   -0.43145  -0.43107  -0.42967  -0.42834  -0.42577
 Alpha  occ. eigenvalues --   -0.42329  -0.42322  -0.42042  -0.41924  -0.41881
 Alpha  occ. eigenvalues --   -0.41644  -0.41476  -0.41303  -0.41215  -0.41182
 Alpha  occ. eigenvalues --   -0.41105  -0.40877  -0.40683  -0.40620  -0.40453
 Alpha  occ. eigenvalues --   -0.40391  -0.40192  -0.39786  -0.39723  -0.39206
 Alpha  occ. eigenvalues --   -0.38781  -0.38118  -0.38095  -0.37644  -0.37635
 Alpha  occ. eigenvalues --   -0.37270  -0.37165  -0.36996  -0.36834  -0.36568
 Alpha  occ. eigenvalues --   -0.36184  -0.35586  -0.34643  -0.34296  -0.33958
 Alpha  occ. eigenvalues --   -0.33552  -0.33201  -0.32825  -0.31701  -0.31395
 Alpha  occ. eigenvalues --   -0.31050  -0.30663  -0.30350  -0.29812  -0.29657
 Alpha  occ. eigenvalues --   -0.29523  -0.29063  -0.28916  -0.24445  -0.23738
 Alpha  occ. eigenvalues --   -0.21475  -0.20843
 Alpha virt. eigenvalues --   -0.09126  -0.08510  -0.02109  -0.01418  -0.00419
 Alpha virt. eigenvalues --    0.00215   0.01858   0.02098   0.02545   0.03495
 Alpha virt. eigenvalues --    0.04292   0.04498   0.04995   0.05501   0.05921

 Mulliken charges:
               1
     1  Mg   0.830680
     2  C   -0.004533
     3  C   -0.094307
     4  C   -0.045130
     5  C   -0.063094
     6  N   -0.256817
     7  C   -0.053600
     8  C   -0.013479
     9  C   -0.086720
    10  C    0.045510
    11  C    0.104620
    12  C    0.048813
    13  C   -0.072040
    14  H    0.036127
    15  N   -0.433599
    16  C    0.166890
    17  C   -0.178190
    18  C   -0.004876
    19  C    0.147298
    20  C    0.110242
    21  C    0.011220
    22  O   -0.248935
    23  C    0.063125
    24  N   -0.340440
    25  C    0.040674
    26  C   -0.028256
    27  C   -0.024268
    28  C    0.074660
    29  C    0.075912
    30  C    0.034925
    31  C   -0.004654
    32  N   -0.311198
    33  C    0.080442
    34  C   -0.168072
    35  C    0.009559
    36  C    0.083148
    37  C    0.126776
    38  C    0.047577
    39  O   -0.186397
    40  C   -0.006078
    41  C    0.214819
    42  O   -0.257928
    43  O   -0.303302
    44  C    0.157958
    45  H   -0.017160
    46  H   -0.016457
    47  H   -0.040097
    48  H    0.001552
    49  H   -0.003931
    50  H    0.025882
    51  H    0.016884
    52  H    0.017385
    53  H    0.010887
    54  H    0.046595
    55  H    0.018878
    56  H    0.018514
    57  H    0.006253
    58  H    0.027697
    59  H    0.037983
    60  H    0.038287
    61  H    0.036200
    62  H    0.029152
    63  H    0.016734
    64  H    0.010349
    65  H    0.023801
    66  H    0.012726
    67  H    0.005459
    68  H    0.007254
    69  H    0.005824
    70  H    0.008779
    71  H    0.019535
    72  H    0.027320
    73  H    0.050066
    74  H    0.009991
    75  H    0.046604
    76  H    0.036476
    77  H    0.045265
    78  H    0.047562
    79  H    0.050005
    80  Mg   0.836899
    81  C   -0.016714
    82  C   -0.087900
    83  C   -0.046032
    84  C   -0.065896
    85  N   -0.254252
    86  C   -0.050261
    87  C   -0.016480
    88  C   -0.091113
    89  C    0.045494
    90  C    0.109116
    91  C    0.064090
    92  C   -0.080034
    93  H    0.032716
    94  N   -0.423349
    95  C    0.162435
    96  C   -0.175057
    97  C   -0.008463
    98  C    0.151925
    99  C    0.099820
   100  C    0.015147
   101  O   -0.253885
   102  C    0.061387
   103  N   -0.350262
   104  C    0.037264
   105  C   -0.019598
   106  C   -0.034805
   107  C    0.089296
   108  C    0.073912
   109  C    0.034896
   110  C   -0.007566
   111  N   -0.324226
   112  C    0.078908
   113  C   -0.163800
   114  C    0.002875
   115  C    0.095787
   116  C    0.131604
   117  C    0.041567
   118  O   -0.185870
   119  C    0.002842
   120  C    0.209396
   121  O   -0.255293
   122  O   -0.300585
   123  C    0.159695
   124  H   -0.020599
   125  H   -0.016376
   126  H   -0.041077
   127  H    0.006413
   128  H   -0.005629
   129  H    0.024557
   130  H    0.014689
   131  H    0.018997
   132  H    0.010771
   133  H    0.038293
   134  H    0.032848
   135  H    0.013741
   136  H    0.007364
   137  H    0.025496
   138  H    0.038452
   139  H    0.037848
   140  H    0.035654
   141  H    0.033321
   142  H    0.013894
   143  H    0.011957
   144  H    0.024532
   145  H    0.011602
   146  H    0.005104
   147  H    0.005719
   148  H    0.003410
   149  H    0.010653
   150  H    0.017503
   151  H    0.030488
   152  H    0.046165
   153  H    0.007842
   154  H    0.046656
   155  H    0.037687
   156  H    0.046753
   157  H    0.053632
   158  H    0.042694
 Sum of Mulliken charges =  -0.00000

 Dipole moment (field-independent basis, Debye):
    X=              4.8557    Y=              6.1960    Z=             -3.1877  Tot=              8.4929
 Quadrupole moment (field-independent basis, Debye-Ang):
   XX=           -496.2513   YY=           -561.8695   ZZ=           -462.5745
   XY=             16.6608   XZ=            -36.6525   YZ=             -6.9654

 Normal termination of Gaussian 16 at Fri Sep 10 20:18:41 2021.
