 Gaussian 16, Revision A.03,
 Gaussian 16:  ES64L-G16RevA.03 25-Dec-2016

 -----------------------------------
 #p cam-b3lyp/Def2SVP td=(nstates=5)
 -----------------------------------

 --------------------------------
 TDDFT excited states in gaussian
 --------------------------------
 Symbolic Z-matrix:
 Charge =  0 Multiplicity = 1

                         Standard orientation:
 ---------------------------------------------------------------------
 Center     Atomic      Atomic             Coordinates (Angstroms)
 Number     Number       Type             X           Y           Z
 ---------------------------------------------------------------------
      1         12           0        4.038910   -1.369210    0.484125
      2          6           0        4.914071    1.738684   -1.060966
      3          6           0        4.858728    0.056953    3.473611
      4          6           0        3.709147   -4.228654    1.815086
      5          6           0        4.381650   -2.854466   -2.649915
      6          7           0        4.778419    0.649851    1.010591
      7          6           0        5.015040    1.768030    0.331725
      8          6           0        5.307274    2.995530    1.245627
      9          6           0        5.814494    2.225770    2.546471
     10          6           0        5.079967    0.910937    2.352542
     11          6           0        7.315447    1.954405    2.547388
     12          6           0        4.019694    3.835575    1.542602
     13          6           0        4.267994    5.219313    2.150031
     14          1           0        3.391556    6.317604    1.771928
     15          7           0        3.781607   -1.880272    2.375014
     16          6           0        4.162795   -1.171243    3.464628
     17          6           0        3.748680   -1.971616    4.637059
     18          6           0        3.266592   -3.290345    4.140432
     19          6           0        3.595230   -3.194412    2.741085
     20          6           0        3.786288   -1.453327    6.041947
     21          6           0        2.622927   -4.456718    4.821168
     22          8           0        2.495411   -5.592812    4.248799
     23          6           0        2.220048   -4.257597    6.225120
     24          7           0        4.256573   -3.311056   -0.250376
     25          6           0        3.997651   -4.373303    0.520062
     26          6           0        3.945985   -5.635183   -0.289215
     27          6           0        3.983714   -5.180774   -1.819523
     28          6           0        4.141657   -3.654705   -1.608719
     29          6           0        5.073016   -6.644063   -0.028500
     30          6           0        2.836769   -5.684622   -2.731156
     31          6           0        1.529768   -5.051884   -2.308675
     32          7           0        4.379917   -0.681927   -1.546245
     33          6           0        4.510146   -1.476291   -2.694591
     34          6           0        4.838602   -0.571004   -3.811122
     35          6           0        4.893303    0.693332   -3.227763
     36          6           0        4.642431    0.581432   -1.830324
     37          6           0        5.100163   -0.964004   -5.153348
     38          6           0        5.129629    2.109709   -3.455541
     39          8           0        5.296865    2.811347   -4.454155
     40          6           0        5.272842    2.827582   -2.041337
     41          6           0        4.411833    4.060967   -2.068447
     42          8           0        3.168614    3.972049   -2.130619
     43          8           0        5.163456    5.134263   -1.779240
     44          6           0        4.363926    6.388279   -1.760505
     45          1           0        5.307516    0.319300    4.433665
     46          1           0        3.492828   -5.222305    2.212958
     47          1           0        4.419832   -3.235634   -3.672023
     48          1           0        6.089177    3.660145    0.877745
     49          1           0        5.483033    2.713393    3.463030
     50          1           0        7.769091    2.221015    1.592901
     51          1           0        7.417739    0.884843    2.731963
     52          1           0        7.798399    2.451277    3.389204
     53          1           0        3.467727    3.370700    2.359477
     54          1           0        3.411535    3.940400    0.643447
     55          1           0        5.313287    5.514638    2.054870
     56          1           0        4.101445    5.155153    3.225366
     57          1           0        4.341286   -0.518448    6.109207
     58          1           0        4.373946   -2.160753    6.626682
     59          1           0        2.788868   -1.360210    6.471848
     60          1           0        3.096103   -3.990473    6.816493
     61          1           0        1.697336   -5.166870    6.519815
     62          1           0        1.541544   -3.405816    6.280344
     63          1           0        3.023068   -6.182457   -0.101756
     64          1           0        4.890614   -5.515845   -2.323441
     65          1           0        4.717225   -7.631058    0.268079
     66          1           0        5.733928   -6.222849    0.728511
     67          1           0        5.760776   -6.786478   -0.861639
     68          1           0        2.718364   -6.762961   -2.630600
     69          1           0        2.998257   -5.465713   -3.786737
     70          1           0        1.201321   -5.693789   -1.492028
     71          1           0        0.814599   -5.070446   -3.131717
     72          1           0        1.685100   -4.054485   -1.896905
     73          1           0        4.570411   -0.253620   -5.787924
     74          1           0        4.767954   -1.985197   -5.338832
     75          1           0        6.185149   -0.865651   -5.184767
     76          1           0        6.328311    3.067774   -1.917178
     77          1           0        4.834485    7.079441   -2.459864
     78          1           0        4.292760    6.694836   -0.716779
     79          1           0        3.358596    6.325266   -2.178451
     80         12           0       -4.797317    0.091167   -0.423658
     81          6           0       -2.032892    2.350470   -0.059507
     82          6           0       -6.555647    2.143588    1.657318
     83          6           0       -7.090445   -2.100890   -0.361436
     84          6           0       -2.513925   -2.308245   -1.507465
     85          7           0       -4.255671    1.974688    0.601637
     86          6           0       -3.197305    2.770929    0.616362
     87          6           0       -3.424324    4.129370    1.332361
     88          6           0       -4.638364    3.696383    2.290232
     89          6           0       -5.214203    2.555181    1.454324
     90          6           0       -4.180158    3.128124    3.623071
     91          6           0       -3.853913    5.264656    0.338084
     92          6           0       -3.792643    6.681076    0.914045
     93          1           0       -3.399486    7.775308    0.030560
     94          7           0       -6.706690    0.244393    0.095359
     95          6           0       -7.251905    1.150819    0.933460
     96          6           0       -8.685303    0.826512    0.999560
     97          6           0       -8.912921   -0.445668    0.261684
     98          6           0       -7.545752   -0.836120   -0.018508
     99          6           0       -9.695133    1.730316    1.645177
    100          6           0      -10.154947   -1.194316   -0.116578
    101          8           0      -10.108969   -2.399877   -0.549406
    102          6           0      -11.432757   -0.507727    0.122724
    103          7           0       -4.780977   -1.973674   -0.665547
    104          6           0       -5.924152   -2.681233   -0.644749
    105          6           0       -5.696779   -4.098921   -1.112568
    106          6           0       -4.203466   -4.128442   -1.684152
    107          6           0       -3.776582   -2.681858   -1.351634
    108          6           0       -5.855508   -5.184254   -0.048019
    109          6           0       -4.016907   -4.638114   -3.139517
    110          6           0       -4.640398   -3.662803   -4.111832
    111          7           0       -2.693208    0.055456   -0.913035
    112          6           0       -1.931309   -1.061097   -1.321576
    113          6           0       -0.526764   -0.615199   -1.425727
    114          6           0       -0.565751    0.734714   -1.045302
    115          6           0       -1.897156    1.098717   -0.707146
    116          6           0        0.581762   -1.434032   -1.781799
    117          6           0        0.218383    1.931698   -0.842692
    118          8           0        1.388454    2.249424   -1.051775
    119          6           0       -0.675770    2.997475   -0.073933
    120          6           0       -0.536404    4.317496   -0.781496
    121          8           0       -0.961101    4.460739   -1.941553
    122          8           0       -0.124727    5.248022    0.098849
    123          6           0        0.017626    6.577011   -0.553336
    124          1           0       -7.117977    2.593060    2.476249
    125          1           0       -7.861374   -2.868431   -0.461620
    126          1           0       -1.757402   -2.970839   -1.933267
    127          1           0       -2.587008    4.475182    1.926573
    128          1           0       -5.365247    4.497851    2.393448
    129          1           0       -3.108600    2.999233    3.659092
    130          1           0       -4.679641    2.173370    3.723124
    131          1           0       -4.549318    3.748912    4.444457
    132          1           0       -4.932098    5.185437    0.148396
    133          1           0       -3.278703    5.217035   -0.566072
    134          1           0       -3.224317    6.720717    1.851262
    135          1           0       -4.802971    6.983290    1.200288
    136          1           0       -9.211064    2.509685    2.246554
    137          1           0      -10.244612    1.126044    2.375113
    138          1           0      -10.404219    2.149745    0.928280
    139          1           0      -11.517682   -0.260365    1.178224
    140          1           0      -12.199590   -1.164169   -0.293120
    141          1           0      -11.427277    0.442043   -0.423648
    142          1           0       -6.383203   -4.358029   -1.909300
    143          1           0       -3.554143   -4.791315   -1.093551
    144          1           0       -6.605705   -5.952030   -0.315952
    145          1           0       -6.115865   -4.708607    0.888196
    146          1           0       -4.941018   -5.715886    0.209415
    147          1           0       -4.537162   -5.589169   -3.277333
    148          1           0       -2.978784   -4.796487   -3.411977
    149          1           0       -5.695980   -3.950605   -4.107323
    150          1           0       -4.204267   -3.777469   -5.102122
    151          1           0       -4.577153   -2.635706   -3.734035
    152          1           0        1.184415   -0.859136   -2.472293
    153          1           0        0.256376   -2.373456   -2.223821
    154          1           0        1.040209   -1.579392   -0.799979
    155          1           0       -0.317192    3.044676    0.955030
    156          1           0        1.041311    6.916258   -0.367158
    157          1           0       -0.801197    7.199132   -0.145601
    158          1           0       -0.022883    6.611025   -1.635765
 ---------------------------------------------------------------------

 SCF Done:  E(RCAM-B3LYP) =  -4069.80868327     A.U. after   18 cycles

 Excitation energies and oscillator strengths:

 Excited State   1:      Singlet-A      1.6461 eV  753.18 nm  f=0.3033  <S**2>=0.000
     309 -> 315        0.12641
     310 -> 316       -0.10610
     311 -> 313        0.51443
     312 -> 314       -0.43994
 This state for optimization and/or second-order correction.
 Total Energy, E(TD-HF/TD-DFT) =  -4069.74818868
 Copying the excited state density for this state as the 1-particle RhoCI density.

 Excited State   2:      Singlet-A      1.6960 eV  731.02 nm  f=0.4897  <S**2>=0.000
     309 -> 315        0.11526
     310 -> 316        0.13452
     311 -> 313        0.44294
     312 -> 314        0.51957

 Excited State   3:      Singlet-A      2.1680 eV  571.89 nm  f=0.0053  <S**2>=0.000
     309 -> 313       -0.37284
     310 -> 314        0.52821
     311 -> 315        0.15130
     312 -> 316       -0.21298

 Excited State   4:      Singlet-A      2.1915 eV  565.75 nm  f=0.1608  <S**2>=0.000
     309 -> 313        0.52140
     310 -> 314        0.36152
     311 -> 315       -0.22242
     312 -> 316       -0.15824

 Excited State   5:      Singlet-A      2.2347 eV  554.82 nm  f=0.0013  <S**2>=0.000
     312 -> 313        0.69398

 The electronic state is 1-A.
 Alpha  occ. eigenvalues --  -46.87494 -46.87242 -19.26054 -19.25398 -19.18690
 Alpha  occ. eigenvalues --  -19.18568 -19.18410 -19.17739 -19.17722 -19.17524
 Alpha  occ. eigenvalues --  -14.42356 -14.41873 -14.41183 -14.40931 -14.39187
 Alpha  occ. eigenvalues --  -14.38879 -14.38420 -14.37953 -10.38690 -10.37851
 Alpha  occ. eigenvalues --  -10.35249 -10.35054 -10.33747 -10.33715 -10.31617
 Alpha  occ. eigenvalues --  -10.31251 -10.31146 -10.30870 -10.30786 -10.30253
 Alpha  occ. eigenvalues --  -10.30224 -10.30180 -10.29992 -10.29981 -10.29977
 Alpha  occ. eigenvalues --  -10.29816 -10.29718 -10.29434 -10.29298 -10.29229
 Alpha  occ. eigenvalues --  -10.29094 -10.28779 -10.28609 -10.28580 -10.28218
 Alpha  occ. eigenvalues --  -10.28102 -10.28069 -10.28042 -10.27788 -10.27704
 Alpha  occ. eigenvalues --  -10.27546 -10.27529 -10.27359 -10.27342 -10.27314
 Alpha  occ. eigenvalues --  -10.27296 -10.27276 -10.27256 -10.27216 -10.27211
 Alpha  occ. eigenvalues --  -10.27177 -10.27097 -10.27061 -10.26772 -10.26764
 Alpha  occ. eigenvalues --  -10.26568 -10.26378 -10.26298 -10.26167 -10.26107
 Alpha  occ. eigenvalues --  -10.26020 -10.25985 -10.25879 -10.25816 -10.25756
 Alpha  occ. eigenvalues --  -10.25750 -10.25569 -10.25421 -10.25229 -10.25178
 Alpha  occ. eigenvalues --  -10.24865 -10.24706 -10.24611 -10.24514 -10.24267
 Alpha  occ. eigenvalues --  -10.24255  -3.16244  -3.15954  -1.91126  -1.90839
 Alpha  occ. eigenvalues --   -1.90715  -1.90551  -1.90422  -1.90265  -1.16282
 Alpha  occ. eigenvalues --   -1.15701  -1.08242  -1.07945  -1.06823  -1.06823
 Alpha  occ. eigenvalues --   -1.06491  -1.05430  -1.04340  -1.03978  -1.03499
 Alpha  occ. eigenvalues --   -1.03239  -1.02866  -1.02687  -1.01937  -1.01851
 Alpha  occ. eigenvalues --   -0.91774  -0.91308  -0.89325  -0.89190  -0.89039
 Alpha  occ. eigenvalues --   -0.88581  -0.88060  -0.87925  -0.87677  -0.87535
 Alpha  occ. eigenvalues --   -0.87352  -0.87129  -0.86972  -0.86818  -0.84869
 Alpha  occ. eigenvalues --   -0.84426  -0.83712  -0.83672  -0.82789  -0.82603
 Alpha  occ. eigenvalues --   -0.82510  -0.82129  -0.81406  -0.81014  -0.80275
 Alpha  occ. eigenvalues --   -0.80044  -0.78494  -0.78308  -0.77034  -0.76823
 Alpha  occ. eigenvalues --   -0.76744  -0.76423  -0.75692  -0.75382  -0.74641
 Alpha  occ. eigenvalues --   -0.74518  -0.72562  -0.72272  -0.71421  -0.71164
 Alpha  occ. eigenvalues --   -0.69743  -0.69610  -0.68688  -0.68348  -0.67419
 Alpha  occ. eigenvalues --   -0.67127  -0.67068  -0.66640  -0.65123  -0.64717
 Alpha  occ. eigenvalues --   -0.64601  -0.64480  -0.64346  -0.64121  -0.64034
 Alpha  occ. eigenvalues --   -0.63843  -0.62052  -0.61677  -0.60179  -0.60006
 Alpha  occ. eigenvalues --   -0.59672  -0.59215  -0.58813  -0.58466  -0.58226
 Alpha  occ. eigenvalues --   -0.57960  -0.57298  -0.57046  -0.56974  -0.56675
 Alpha  occ. eigenvalues --   -0.56081  -0.55805  -0.55671  -0.55381  -0.55274
 Alpha  occ. eigenvalues --   -0.55090  -0.55059  -0.54919  -0.54282  -0.53972
 Alpha  occ. eigenvalues --   -0.53783  -0.53291  -0.53111  -0.53000  -0.52874
 Alpha  occ. eigenvalues --   -0.52739  -0.52674  -0.52550  -0.52442  -0.52339
 Alpha  occ. eigenvalues --   -0.52295  -0.52039  -0.51871  -0.51513  -0.51397
 Alpha  occ. eigenvalues --   -0.51055  -0.50973  -0.50685  -0.50344  -0.50212
 Alpha  occ. eigenvalues --   -0.49863  -0.49773  -0.49723  -0.49463  -0.49346
 Alpha  occ. eigenvalues --   -0.49137  -0.49039  -0.48893  -0.48675  -0.48572
 Alpha  occ. eigenvalues --   -0.48394  -0.48256  -0.48206  -0.48122  -0.47932
 Alpha  occ. eigenvalues --   -0.47686  -0.47365  -0.47234  -0.46963  -0.46783
 Alpha  occ. eigenvalues --   -0.46572  -0.46445  -0.46371  -0.46093  -0.46014
 Alpha  occ. eigenvalues --   -0.45935  -0.45900  -0.45676  -0.45532  -0.45254
 Alpha  occ. eigenvalues --   -0.45045  -0.44834  -0.44376  -0.44317  -0.44112
 Alpha  occ. eigenvalues --   -0.44020  -0.43958  -0.43897  -0.43792  -0.43732
 Alpha  occ. eigenvalues --   -0.43568  -0.43459  -0.43338  -0.43203  -0.42947
 Alpha  occ. eigenvalues --   -0.42888  -0.42741  -0.42644  -0.42510  -0.42402
 Alpha  occ. eigenvalues --   -0.42352  -0.41934  -0.41761  -0.41578  -0.41378
 Alpha  occ. eigenvalues --   -0.41286  -0.41106  -0.41003  -0.40763  -0.40656
 Alpha  occ. eigenvalues --   -0.40583  -0.40571  -0.40426  -0.40402  -0.40316
 Alpha  occ. eigenvalues --   -0.40115  -0.40112  -0.39622  -0.39301  -0.39273
 Alpha  occ. eigenvalues --   -0.38203  -0.38115  -0.37528  -0.37187  -0.37109
 Alpha  occ. eigenvalues --   -0.37049  -0.36887  -0.36666  -0.36451  -0.36048
 Alpha  occ. eigenvalues --   -0.35970  -0.35328  -0.34077  -0.33705  -0.33460
 Alpha  occ. eigenvalues --   -0.32976  -0.32785  -0.32326  -0.31127  -0.30940
 Alpha  occ. eigenvalues --   -0.30805  -0.30429  -0.29483  -0.29347  -0.29153
 Alpha  occ. eigenvalues --   -0.29020  -0.28932  -0.28726  -0.23865  -0.23461
 Alpha  occ. eigenvalues --   -0.20959  -0.20593
 Alpha virt. eigenvalues --   -0.08622  -0.08227  -0.01535  -0.01237   0.00127
 Alpha virt. eigenvalues --    0.00473   0.02309   0.02774   0.03367   0.04053
 Alpha virt. eigenvalues --    0.04822   0.05044   0.05547   0.05971   0.06271

 Mulliken charges:
               1
     1  Mg   0.803270
     2  C    0.027284
     3  C   -0.094257
     4  C   -0.047214
     5  C   -0.067898
     6  N   -0.255239
     7  C   -0.047690
     8  C   -0.017858
     9  C   -0.087092
    10  C    0.047359
    11  C    0.105396
    12  C    0.054387
    13  C   -0.069279
    14  H    0.029446
    15  N   -0.429118
    16  C    0.168258
    17  C   -0.178564
    18  C   -0.005406
    19  C    0.146943
    20  C    0.110636
    21  C    0.011026
    22  O   -0.251819
    23  C    0.063055
    24  N   -0.337624
    25  C    0.038180
    26  C   -0.027929
    27  C   -0.024661
    28  C    0.074211
    29  C    0.077099
    30  C    0.041103
    31  C   -0.018018
    32  N   -0.310521
    33  C    0.078987
    34  C   -0.174625
    35  C    0.005712
    36  C    0.094137
    37  C    0.127496
    38  C    0.054068
    39  O   -0.188872
    40  C   -0.013637
    41  C    0.204743
    42  O   -0.228151
    43  O   -0.308445
    44  C    0.158031
    45  H   -0.019454
    46  H   -0.019558
    47  H   -0.045457
    48  H   -0.000870
    49  H   -0.006133
    50  H    0.024957
    51  H    0.015530
    52  H    0.014624
    53  H    0.007410
    54  H    0.055143
    55  H    0.016014
    56  H    0.015114
    57  H    0.004914
    58  H    0.025377
    59  H    0.037262
    60  H    0.036857
    61  H    0.033963
    62  H    0.030467
    63  H    0.014006
    64  H    0.009214
    65  H    0.021758
    66  H    0.013145
    67  H    0.003810
    68  H    0.004931
    69  H    0.004375
    70  H    0.007465
    71  H    0.016203
    72  H    0.035804
    73  H    0.047797
    74  H    0.006858
    75  H    0.045166
    76  H    0.031800
    77  H    0.040333
    78  H    0.043079
    79  H    0.049816
    80  Mg   0.837767
    81  C   -0.018174
    82  C   -0.087891
    83  C   -0.045873
    84  C   -0.067018
    85  N   -0.254121
    86  C   -0.050448
    87  C   -0.014570
    88  C   -0.090377
    89  C    0.045270
    90  C    0.114703
    91  C    0.062770
    92  C   -0.077300
    93  H    0.034611
    94  N   -0.423377
    95  C    0.162549
    96  C   -0.175009
    97  C   -0.008135
    98  C    0.152023
    99  C    0.099556
   100  C    0.015330
   101  O   -0.253529
   102  C    0.061286
   103  N   -0.350166
   104  C    0.037737
   105  C   -0.019938
   106  C   -0.034289
   107  C    0.088760
   108  C    0.073516
   109  C    0.034203
   110  C   -0.007514
   111  N   -0.324466
   112  C    0.081233
   113  C   -0.164791
   114  C    0.006784
   115  C    0.098947
   116  C    0.111169
   117  C    0.042123
   118  O   -0.155109
   119  C   -0.004396
   120  C    0.225938
   121  O   -0.248820
   122  O   -0.309069
   123  C    0.155704
   124  H   -0.020449
   125  H   -0.015910
   126  H   -0.039730
   127  H   -0.001847
   128  H   -0.004741
   129  H    0.021108
   130  H    0.014393
   131  H    0.015287
   132  H    0.013855
   133  H    0.038876
   134  H    0.019521
   135  H    0.019191
   136  H    0.008232
   137  H    0.025589
   138  H    0.039420
   139  H    0.037957
   140  H    0.036019
   141  H    0.033764
   142  H    0.014007
   143  H    0.013739
   144  H    0.024626
   145  H    0.011581
   146  H    0.006562
   147  H    0.005858
   148  H    0.003177
   149  H    0.010851
   150  H    0.017281
   151  H    0.030620
   152  H    0.062117
   153  H    0.013581
   154  H    0.060403
   155  H    0.031497
   156  H    0.033564
   157  H    0.046872
   158  H    0.056907
 Sum of Mulliken charges =  -0.00000

 Dipole moment (field-independent basis, Debye):
    X=             -1.2259    Y=              2.1318    Z=              6.4866  Tot=              6.9371
 Quadrupole moment (field-independent basis, Debye-Ang):
   XX=           -499.2308   YY=           -486.9760   ZZ=           -503.4415
   XY=            -28.2205   XZ=              5.5012   YZ=             50.2769

 Normal termination of Gaussian 16 at Fri Sep 10 00:18:14 2021.
