 Gaussian 16, Revision A.03,
 Gaussian 16:  ES64L-G16RevA.03 25-Dec-2016

 -----------------------------------
 #p cam-b3lyp/Def2SVP td=(nstates=5)
 -----------------------------------

 --------------------------------
 TDDFT excited states in gaussian
 --------------------------------
 Symbolic Z-matrix:
 Charge =  0 Multiplicity = 1

                         Standard orientation:
 ---------------------------------------------------------------------
 Center     Atomic      Atomic             Coordinates (Angstroms)
 Number     Number       Type             X           Y           Z
 ---------------------------------------------------------------------
      1         12           0        5.476697    0.093683   -0.024648
      2          6           0        5.253647   -3.428423   -0.622339
      3          6           0        6.255667    0.454067   -3.327131
      4          6           0        6.122944    3.140455    0.572147
      5          6           0        5.802459   -0.651458    3.364203
      6          7           0        5.694453   -1.376030   -1.665737
      7          6           0        5.523612   -2.689696   -1.776483
      8          6           0        5.583659   -3.198664   -3.247781
      9          6           0        6.448401   -2.021200   -3.886372
     10          6           0        6.085101   -0.903789   -2.924431
     11          6           0        7.952846   -2.261850   -3.814017
     12          6           0        4.164929   -3.288469   -3.904189
     13          6           0        4.100133   -4.078206   -5.214712
     14          1           0        2.913831   -4.872621   -5.495675
     15          7           0        5.619109    1.636956   -1.249749
     16          6           0        5.929448    1.598624   -2.567894
     17          6           0        5.908257    3.002295   -3.032590
     18          6           0        5.746954    3.875132   -1.836668
     19          6           0        5.850866    2.908035   -0.773981
     20          6           0        5.984968    3.392144   -4.476849
     21          6           0        5.543582    5.348613   -1.676584
     22          8           0        5.659885    5.932311   -0.545061
     23          6           0        5.288394    6.114388   -2.910079
     24          7           0        6.122256    1.099549    1.686820
     25          6           0        6.268428    2.429057    1.691966
     26          6           0        6.460643    2.951841    3.084693
     27          6           0        6.171754    1.722611    4.062082
     28          6           0        5.929947    0.625425    2.996256
     29          6           0        7.845716    3.536024    3.395042
     30          6           0        5.098822    1.933975    5.159607
     31          6           0        3.735006    2.080203    4.522644
     32          7           0        5.347328   -1.688975    1.206790
     33          6           0        5.539924   -1.771656    2.593421
     34          6           0        5.457965   -3.198341    2.956631
     35          6           0        5.238464   -3.852300    1.745845
     36          6           0        5.212767   -2.897322    0.689602
     37          6           0        5.639936   -3.738142    4.260446
     38          6           0        5.044220   -5.138101    1.095583
     39          8           0        4.880112   -6.293436    1.490251
     40          6           0        5.167837   -4.927540   -0.478015
     41          6           0        4.004906   -5.630659   -1.123401
     42          8           0        2.837062   -5.225794   -0.951384
     43          8           0        4.463371   -6.513907   -2.023525
     44          6           0        3.359310   -7.225185   -2.721586
     45          1           0        6.736347    0.664256   -4.284579
     46          1           0        6.242177    4.192914    0.837762
     47          1           0        5.810206   -0.951564    4.413645
     48          1           0        6.097578   -4.151134   -3.378598
     49          1           0        6.118237   -1.774905   -4.895358
     50          1           0        8.186971   -3.144375   -3.218822
     51          1           0        8.368588   -1.367765   -3.348975
     52          1           0        8.386116   -2.308839   -4.813439
     53          1           0        3.873716   -2.302755   -4.266990
     54          1           0        3.439400   -3.697791   -3.200351
     55          1           0        5.002127   -4.671458   -5.367573
     56          1           0        4.099562   -3.368097   -6.041723
     57          1           0        6.265237    2.547705   -5.105273
     58          1           0        6.815670    4.090810   -4.574364
     59          1           0        5.065435    3.863558   -4.824065
     60          1           0        6.126595    5.983539   -3.594803
     61          1           0        5.079100    7.135229   -2.592386
     62          1           0        4.415020    5.695936   -3.411143
     63          1           0        5.756570    3.754039    3.301914
     64          1           0        7.061954    1.421677    4.614943
     65          1           0        7.817041    4.567556    3.746927
     66          1           0        8.458234    3.445578    2.498419
     67          1           0        8.431198    2.965912    4.115875
     68          1           0        5.295790    2.853087    5.710408
     69          1           0        5.054585    1.117993    5.881042
     70          1           0        3.705365    3.134589    4.250204
     71          1           0        2.951427    1.840733    5.242275
     72          1           0        3.662376    1.503223    3.600524
     73          1           0        4.857068   -4.484727    4.393481
     74          1           0        5.580181   -2.961399    5.022485
     75          1           0        6.642245   -4.156072    4.167886
     76          1           0        6.123330   -5.356943   -0.777628
     77          1           0        3.526081   -8.293202   -2.581008
     78          1           0        3.343492   -6.845735   -3.743434
     79          1           0        2.364475   -7.113544   -2.288946
     80         12           0       -5.038764    1.293572    0.430458
     81          6           0       -6.901619   -1.770152    0.280770
     82          6           0       -5.970183    1.843649   -2.804427
     83          6           0       -3.047725    3.763556    0.381499
     84          6           0       -3.355942   -0.026174    3.182195
     85          7           0       -6.278031    0.116100   -0.973125
     86          6           0       -6.984353   -1.001927   -0.899246
     87          6           0       -7.889773   -1.273261   -2.130566
     88          6           0       -7.082133   -0.410343   -3.217742
     89          6           0       -6.426260    0.605786   -2.285014
     90          6           0       -5.984497   -1.196461   -3.915262
     91          6           0       -9.347620   -0.727939   -1.932272
     92          6           0      -10.366107   -1.226718   -2.959721
     93          1           0      -11.736594   -1.471624   -2.518960
     94          7           0       -4.952109    2.849106   -0.798933
     95          6           0       -5.398557    2.906641   -2.071188
     96          6           0       -5.081296    4.261680   -2.548009
     97          6           0       -4.263925    4.945159   -1.509031
     98          6           0       -4.033642    3.847916   -0.590816
     99          6           0       -5.611058    4.814822   -3.839054
    100          6           0       -3.760662    6.350185   -1.371798
    101          8           0       -2.868336    6.664353   -0.506994
    102          6           0       -4.274680    7.328332   -2.341596
    103          7           0       -3.290849    1.716498    1.473656
    104          6           0       -2.648713    2.885267    1.301672
    105          6           0       -1.580898    3.080605    2.351438
    106          6           0       -1.802668    1.905831    3.413647
    107          6           0       -2.954566    1.148808    2.716906
    108          6           0       -0.138256    3.045101    1.847537
    109          6           0       -1.984810    2.324545    4.898297
    110          6           0       -3.289743    3.068606    5.068321
    111          7           0       -5.217507   -0.472005    1.662864
    112          6           0       -4.392909   -0.841916    2.747888
    113          6           0       -4.836173   -2.178060    3.195847
    114          6           0       -5.881163   -2.505325    2.318707
    115          6           0       -6.062119   -1.456575    1.376965
    116          6           0       -4.255118   -2.936973    4.250624
    117          6           0       -6.865300   -3.504143    1.968660
    118          8           0       -7.240128   -4.565709    2.464976
    119          6           0       -7.486118   -3.128090    0.554599
    120          6           0       -8.982511   -3.238470    0.660096
    121          8           0       -9.622384   -2.470076    1.399525
    122          8           0       -9.430001   -4.082374   -0.287497
    123          6           0      -10.910083   -4.216196   -0.230365
    124          1           0       -6.014753    2.002017   -3.882312
    125          1           0       -2.404169    4.641075    0.477803
    126          1           0       -2.946627   -0.463064    4.095572
    127          1           0       -7.937142   -2.310515   -2.439834
    128          1           0       -7.758023    0.086946   -3.908576
    129          1           0       -5.850627   -2.175275   -3.479201
    130          1           0       -5.084141   -0.606475   -3.804271
    131          1           0       -6.181431   -1.246543   -4.989994
    132          1           0       -9.362216    0.345846   -2.159238
    133          1           0       -9.701388   -0.937679   -0.941564
    134          1           0       -9.988201   -2.081925   -3.533082
    135          1           0      -10.513727   -0.445592   -3.709428
    136          1           0       -6.045382    4.026562   -4.466274
    137          1           0       -4.748466    5.172942   -4.411372
    138          1           0       -6.304620    5.644887   -3.688582
    139          1           0       -4.032666    6.999167   -3.349335
    140          1           0       -3.869748    8.292176   -2.027091
    141          1           0       -5.367959    7.349254   -2.271386
    142          1           0       -1.700175    4.033829    2.851689
    143          1           0       -0.946188    1.216349    3.443384
    144          1           0        0.431777    3.961557    2.090960
    145          1           0       -0.154100    2.879862    0.778435
    146          1           0        0.454363    2.203713    2.202601
    147          1           0       -1.192465    3.015331    5.196898
    148          1           0       -1.960240    1.488327    5.589049
    149          1           0       -3.031544    4.090158    4.773626
    150          1           0       -3.621496    3.028454    6.103868
    151          1           0       -4.045776    2.703345    4.363582
    152          1           0       -5.073882   -3.352742    4.822675
    153          1           0       -3.606634   -2.322724    4.871861
    154          1           0       -3.691681   -3.674488    3.672793
    155          1           0       -7.075075   -3.822836   -0.178853
    156          1           0      -11.130657   -5.283114   -0.126859
    157          1           0      -11.291136   -3.708641   -1.136426
    158          1           0      -11.416905   -3.810305    0.637296
 ---------------------------------------------------------------------

 SCF Done:  E(RCAM-B3LYP) =  -4069.81163690     A.U. after   19 cycles

 Excitation energies and oscillator strengths:

 Excited State   1:      Singlet-A      1.6565 eV  748.49 nm  f=0.0036  <S**2>=0.000
     309 -> 315       -0.11198
     310 -> 316        0.12662
     311 -> 313       -0.45375
     312 -> 314        0.51605
 This state for optimization and/or second-order correction.
 Total Energy, E(TD-HF/TD-DFT) =  -4069.75076330
 Copying the excited state density for this state as the 1-particle RhoCI density.

 Excited State   2:      Singlet-A      1.6974 eV  730.44 nm  f=0.7145  <S**2>=0.000
     309 -> 315        0.13533
     310 -> 316        0.11822
     311 -> 313        0.51415
     312 -> 314        0.45207

 Excited State   3:      Singlet-A      2.1833 eV  567.87 nm  f=0.0535  <S**2>=0.000
     309 -> 313       -0.22666
     310 -> 314        0.60261
     312 -> 316       -0.25343

 Excited State   4:      Singlet-A      2.1951 eV  564.81 nm  f=0.1354  <S**2>=0.000
     309 -> 313        0.59922
     310 -> 314        0.22361
     311 -> 315       -0.26238

 Excited State   5:      Singlet-A      2.4869 eV  498.56 nm  f=0.0000  <S**2>=0.000
     312 -> 313        0.70686

 The electronic state is 1-A.
 Alpha  occ. eigenvalues --  -46.87855 -46.87487 -19.26307 -19.26213 -19.19046
 Alpha  occ. eigenvalues --  -19.19018 -19.18806 -19.18576 -19.18201 -19.17870
 Alpha  occ. eigenvalues --  -14.42504 -14.42329 -14.41514 -14.41183 -14.39451
 Alpha  occ. eigenvalues --  -14.39185 -14.38645 -14.38420 -10.39107 -10.38944
 Alpha  occ. eigenvalues --  -10.35437 -10.35258 -10.34422 -10.34047 -10.31694
 Alpha  occ. eigenvalues --  -10.31637 -10.31463 -10.31137 -10.30952 -10.30873
 Alpha  occ. eigenvalues --  -10.30627 -10.30559 -10.30269 -10.30217 -10.30181
 Alpha  occ. eigenvalues --  -10.29988 -10.29973 -10.29705 -10.29676 -10.29301
 Alpha  occ. eigenvalues --  -10.29269 -10.29228 -10.28797 -10.28596 -10.28583
 Alpha  occ. eigenvalues --  -10.28556 -10.28409 -10.28239 -10.28167 -10.28001
 Alpha  occ. eigenvalues --  -10.27835 -10.27826 -10.27781 -10.27623 -10.27603
 Alpha  occ. eigenvalues --  -10.27532 -10.27511 -10.27507 -10.27452 -10.27364
 Alpha  occ. eigenvalues --  -10.27338 -10.27314 -10.27303 -10.27193 -10.27189
 Alpha  occ. eigenvalues --  -10.26878 -10.26757 -10.26575 -10.26361 -10.26352
 Alpha  occ. eigenvalues --  -10.26324 -10.26279 -10.26088 -10.26003 -10.25897
 Alpha  occ. eigenvalues --  -10.25887 -10.25753 -10.25591 -10.25495 -10.25183
 Alpha  occ. eigenvalues --  -10.24945 -10.24876 -10.24841 -10.24690 -10.24604
 Alpha  occ. eigenvalues --  -10.24515  -3.16599  -3.16237  -1.91481  -1.91119
 Alpha  occ. eigenvalues --   -1.91067  -1.90909  -1.90708  -1.90545  -1.16656
 Alpha  occ. eigenvalues --   -1.16505  -1.08658  -1.08476  -1.07202  -1.06831
 Alpha  occ. eigenvalues --   -1.06801  -1.06668  -1.04633  -1.04329  -1.03819
 Alpha  occ. eigenvalues --   -1.03492  -1.03288  -1.02862  -1.02467  -1.01936
 Alpha  occ. eigenvalues --   -0.92019  -0.91815  -0.89612  -0.89326  -0.89240
 Alpha  occ. eigenvalues --   -0.89009  -0.88373  -0.88048  -0.87920  -0.87728
 Alpha  occ. eigenvalues --   -0.87592  -0.87517  -0.87298  -0.86980  -0.85031
 Alpha  occ. eigenvalues --   -0.84854  -0.84039  -0.83708  -0.82992  -0.82801
 Alpha  occ. eigenvalues --   -0.82687  -0.82511  -0.81627  -0.81439  -0.80638
 Alpha  occ. eigenvalues --   -0.80286  -0.78835  -0.78476  -0.77287  -0.76993
 Alpha  occ. eigenvalues --   -0.76989  -0.76746  -0.75971  -0.75687  -0.74970
 Alpha  occ. eigenvalues --   -0.74626  -0.72832  -0.72521  -0.71725  -0.71411
 Alpha  occ. eigenvalues --   -0.70037  -0.69599  -0.68920  -0.68681  -0.67684
 Alpha  occ. eigenvalues --   -0.67438  -0.67257  -0.67067  -0.65340  -0.65123
 Alpha  occ. eigenvalues --   -0.64910  -0.64680  -0.64605  -0.64499  -0.64352
 Alpha  occ. eigenvalues --   -0.64037  -0.62341  -0.62125  -0.60482  -0.60186
 Alpha  occ. eigenvalues --   -0.59853  -0.59643  -0.59043  -0.58822  -0.58556
 Alpha  occ. eigenvalues --   -0.58259  -0.57624  -0.57385  -0.57364  -0.57072
 Alpha  occ. eigenvalues --   -0.56353  -0.56038  -0.56013  -0.55743  -0.55551
 Alpha  occ. eigenvalues --   -0.55415  -0.55304  -0.55076  -0.54592  -0.54328
 Alpha  occ. eigenvalues --   -0.53944  -0.53771  -0.53348  -0.53251  -0.53069
 Alpha  occ. eigenvalues --   -0.52993  -0.52968  -0.52781  -0.52753  -0.52569
 Alpha  occ. eigenvalues --   -0.52546  -0.52255  -0.51966  -0.51657  -0.51652
 Alpha  occ. eigenvalues --   -0.51521  -0.51257  -0.51035  -0.50588  -0.50354
 Alpha  occ. eigenvalues --   -0.50124  -0.49945  -0.49837  -0.49701  -0.49545
 Alpha  occ. eigenvalues --   -0.49346  -0.49252  -0.49141  -0.49049  -0.48943
 Alpha  occ. eigenvalues --   -0.48639  -0.48520  -0.48458  -0.48398  -0.48196
 Alpha  occ. eigenvalues --   -0.48194  -0.47745  -0.47449  -0.47339  -0.46963
 Alpha  occ. eigenvalues --   -0.46869  -0.46601  -0.46545  -0.46419  -0.46412
 Alpha  occ. eigenvalues --   -0.46221  -0.46104  -0.45902  -0.45868  -0.45644
 Alpha  occ. eigenvalues --   -0.45278  -0.45033  -0.44627  -0.44554  -0.44363
 Alpha  occ. eigenvalues --   -0.44315  -0.44221  -0.44133  -0.44047  -0.43977
 Alpha  occ. eigenvalues --   -0.43924  -0.43791  -0.43541  -0.43443  -0.43400
 Alpha  occ. eigenvalues --   -0.43226  -0.43084  -0.42791  -0.42778  -0.42730
 Alpha  occ. eigenvalues --   -0.42711  -0.42395  -0.42101  -0.41813  -0.41755
 Alpha  occ. eigenvalues --   -0.41589  -0.41501  -0.41314  -0.41193  -0.40944
 Alpha  occ. eigenvalues --   -0.40829  -0.40825  -0.40653  -0.40591  -0.40559
 Alpha  occ. eigenvalues --   -0.40329  -0.40278  -0.40104  -0.39586  -0.39269
 Alpha  occ. eigenvalues --   -0.38553  -0.38179  -0.37802  -0.37519  -0.37397
 Alpha  occ. eigenvalues --   -0.37313  -0.37099  -0.37046  -0.36759  -0.36623
 Alpha  occ. eigenvalues --   -0.36249  -0.36054  -0.34342  -0.34081  -0.33801
 Alpha  occ. eigenvalues --   -0.33713  -0.33239  -0.33003  -0.31340  -0.31133
 Alpha  occ. eigenvalues --   -0.31084  -0.30805  -0.30062  -0.29774  -0.29485
 Alpha  occ. eigenvalues --   -0.29368  -0.29166  -0.29025  -0.24136  -0.23861
 Alpha  occ. eigenvalues --   -0.21183  -0.20945
 Alpha virt. eigenvalues --   -0.08820  -0.08621  -0.01802  -0.01518  -0.00080
 Alpha virt. eigenvalues --    0.00121   0.02156   0.02389   0.02864   0.03387
 Alpha virt. eigenvalues --    0.04660   0.04888   0.05069   0.05314   0.06111

 Mulliken charges:
               1
     1  Mg   0.837709
     2  C   -0.002804
     3  C   -0.094073
     4  C   -0.045903
     5  C   -0.064418
     6  N   -0.256722
     7  C   -0.052570
     8  C   -0.013976
     9  C   -0.087032
    10  C    0.046392
    11  C    0.104786
    12  C    0.053522
    13  C   -0.071713
    14  H    0.035922
    15  N   -0.433381
    16  C    0.168667
    17  C   -0.176968
    18  C   -0.003492
    19  C    0.148964
    20  C    0.110228
    21  C    0.013369
    22  O   -0.249015
    23  C    0.062158
    24  N   -0.341033
    25  C    0.041051
    26  C   -0.028377
    27  C   -0.023974
    28  C    0.074204
    29  C    0.076079
    30  C    0.035970
    31  C   -0.007396
    32  N   -0.310390
    33  C    0.079722
    34  C   -0.170208
    35  C    0.008477
    36  C    0.082639
    37  C    0.127369
    38  C    0.046099
    39  O   -0.188081
    40  C   -0.005360
    41  C    0.212980
    42  O   -0.257090
    43  O   -0.304816
    44  C    0.157540
    45  H   -0.017488
    46  H   -0.016496
    47  H   -0.041863
    48  H    0.001072
    49  H   -0.004112
    50  H    0.025614
    51  H    0.016510
    52  H    0.016720
    53  H    0.011020
    54  H    0.044209
    55  H    0.018044
    56  H    0.017712
    57  H    0.005652
    58  H    0.027028
    59  H    0.039843
    60  H    0.036782
    61  H    0.036801
    62  H    0.032215
    63  H    0.016473
    64  H    0.009840
    65  H    0.023567
    66  H    0.012860
    67  H    0.004859
    68  H    0.006846
    69  H    0.004727
    70  H    0.009561
    71  H    0.016300
    72  H    0.029465
    73  H    0.047541
    74  H    0.008634
    75  H    0.046270
    76  H    0.035285
    77  H    0.043257
    78  H    0.046168
    79  H    0.054005
    80  Mg   0.838209
    81  C   -0.016823
    82  C   -0.088181
    83  C   -0.045929
    84  C   -0.063128
    85  N   -0.254519
    86  C   -0.049466
    87  C   -0.015118
    88  C   -0.090572
    89  C    0.045828
    90  C    0.114503
    91  C    0.062598
    92  C   -0.077625
    93  H    0.034521
    94  N   -0.423316
    95  C    0.162748
    96  C   -0.175462
    97  C   -0.008214
    98  C    0.151883
    99  C    0.099778
   100  C    0.014935
   101  O   -0.252998
   102  C    0.061357
   103  N   -0.349824
   104  C    0.037420
   105  C   -0.020433
   106  C   -0.034986
   107  C    0.089024
   108  C    0.072740
   109  C    0.034316
   110  C   -0.007523
   111  N   -0.324386
   112  C    0.078725
   113  C   -0.161883
   114  C    0.002642
   115  C    0.096457
   116  C    0.131371
   117  C    0.042982
   118  O   -0.187561
   119  C    0.000708
   120  C    0.211155
   121  O   -0.251288
   122  O   -0.305538
   123  C    0.152147
   124  H   -0.020595
   125  H   -0.015367
   126  H   -0.039878
   127  H   -0.000674
   128  H   -0.004912
   129  H    0.023091
   130  H    0.014504
   131  H    0.015290
   132  H    0.013773
   133  H    0.037668
   134  H    0.020659
   135  H    0.019257
   136  H    0.008275
   137  H    0.024885
   138  H    0.039312
   139  H    0.037362
   140  H    0.036109
   141  H    0.033777
   142  H    0.014176
   143  H    0.013832
   144  H    0.027343
   145  H    0.010994
   146  H    0.006367
   147  H    0.005781
   148  H    0.003331
   149  H    0.010869
   150  H    0.017387
   151  H    0.030247
   152  H    0.045440
   153  H    0.008220
   154  H    0.050222
   155  H    0.035598
   156  H    0.043805
   157  H    0.049199
   158  H    0.053406
 Sum of Mulliken charges =  -0.00000

 Dipole moment (field-independent basis, Debye):
    X=              2.6994    Y=              3.2004    Z=             -7.7594  Tot=              8.8169
 Quadrupole moment (field-independent basis, Debye-Ang):
   XX=           -491.3856   YY=           -560.7713   ZZ=           -448.4784
   XY=            -13.4984   XZ=             29.0153   YZ=             15.4381

 Normal termination of Gaussian 16 at Fri Sep 10 23:54:47 2021.
