 Gaussian 16, Revision A.03,
 Gaussian 16:  ES64L-G16RevA.03 25-Dec-2016

 -----------------------------------
 #p cam-b3lyp/Def2SVP td=(nstates=5)
 -----------------------------------

 --------------------------------
 TDDFT excited states in gaussian
 --------------------------------
 Symbolic Z-matrix:
 Charge =  0 Multiplicity = 1

                         Standard orientation:
 ---------------------------------------------------------------------
 Center     Atomic      Atomic             Coordinates (Angstroms)
 Number     Number       Type             X           Y           Z
 ---------------------------------------------------------------------
      1         12           0        3.890539    1.421168    0.807455
      2          6           0        4.917774   -1.840701   -0.249526
      3          6           0        5.004147    2.584001   -2.200993
      4          6           0        3.412870    4.363149    1.890600
      5          6           0        3.919892    0.210168    4.075218
      6          7           0        4.821536    0.402472   -0.923483
      7          6           0        5.105756   -0.860328   -1.226346
      8          6           0        5.551528   -1.055403   -2.706416
      9          6           0        6.073501    0.420457   -3.008708
     10          6           0        5.224682    1.187575   -2.010229
     11          6           0        7.544867    0.628688   -2.664868
     12          6           0        4.356594   -1.443115   -3.641050
     13          6           0        4.752539   -1.967472   -5.024391
     14          1           0        3.946211   -3.014388   -5.633612
     15          7           0        3.708901    3.130903   -0.165513
     16          6           0        4.212031    3.424018   -1.388717
     17          6           0        3.807085    4.817586   -1.672740
     18          6           0        3.190582    5.373303   -0.436133
     19          6           0        3.439709    4.306265    0.499144
     20          6           0        3.972275    5.465509   -3.013135
     21          6           0        2.497634    6.665945   -0.141121
     22          8           0        2.244000    7.044547    1.053410
     23          6           0        2.198763    7.529940   -1.297508
     24          7           0        3.905303    2.248683    2.723868
     25          6           0        3.609015    3.537987    2.921076
     26          6           0        3.406193    3.835076    4.377284
     27          6           0        3.386859    2.420852    5.118465
     28          6           0        3.680157    1.511616    3.899640
     29          6           0        4.461869    4.738604    5.029355
     30          6           0        2.149370    2.103113    5.994867
     31          6           0        0.926042    1.949570    5.119086
     32          7           0        4.161156   -0.510323    1.759900
     33          6           0        4.156325   -0.779828    3.136133
     34          6           0        4.487947   -2.207384    3.297938
     35          6           0        4.680172   -2.668288    1.996991
     36          6           0        4.507003   -1.590539    1.082245
     37          6           0        4.634340   -2.893848    4.535584
     38          6           0        5.015771   -3.814957    1.168509
     39          8           0        5.177761   -5.018098    1.377563
     40          6           0        5.302713   -3.297992   -0.310084
     41          6           0        4.544112   -4.186861   -1.257578
     42          8           0        3.296305   -4.185015   -1.276036
     43          8           0        5.396253   -4.717221   -2.148148
     44          6           0        4.703284   -5.586786   -3.135975
     45          1           0        5.530525    3.095963   -3.008930
     46          1           0        3.141726    5.337829    2.301596
     47          1           0        3.864586   -0.257557    5.059916
     48          1           0        6.360601   -1.772450   -2.846656
     49          1           0        5.839184    0.734668   -4.025609
     50          1           0        7.959347   -0.236347   -2.147335
     51          1           0        7.571518    1.507090   -2.019738
     52          1           0        8.116947    0.892929   -3.554630
     53          1           0        3.819864   -0.540029   -3.931600
     54          1           0        3.705050   -2.168984   -3.153269
     55          1           0        5.810491   -2.228404   -5.063920
     56          1           0        4.647419   -1.153090   -5.741281
     57          1           0        4.604050    4.869785   -3.670795
     58          1           0        4.535518    6.385010   -2.855068
     59          1           0        3.013797    5.696836   -3.478043
     60          1           0        3.128051    7.779275   -1.810154
     61          1           0        1.623309    8.368017   -0.905935
     62          1           0        1.595935    6.968113   -2.011579
     63          1           0        2.455279    4.339185    4.544801
     64          1           0        4.231212    2.303733    5.798190
     65          1           0        4.046314    5.634218    5.491842
     66          1           0        5.199697    4.996865    4.270275
     67          1           0        5.083641    4.248345    5.777996
     68          1           0        1.950614    2.924584    6.682346
     69          1           0        2.263163    1.195105    6.587170
     70          1           0        0.597368    2.978521    4.977439
     71          1           0        0.162725    1.362905    5.631319
     72          1           0        1.186324    1.552612    4.137677
     73          1           0        4.125896   -3.850460    4.415803
     74          1           0        4.210005   -2.320113    5.359217
     75          1           0        5.719767   -2.971400    4.596323
     76          1           0        6.379746   -3.363003   -0.461398
     77          1           0        5.184489   -6.564089   -3.096527
     78          1           0        4.721070   -5.052011   -4.085766
     79          1           0        3.672479   -5.855365   -2.902209
     80         12           0       -4.830941   -0.348741   -0.498856
     81          6           0       -2.120897   -2.679490   -0.178974
     82          6           0       -2.578567    1.863940   -1.789376
     83          6           0       -7.092975    1.872879   -0.376244
     84          6           0       -6.579330   -2.276607    1.818947
     85          7           0       -2.658739   -0.504511   -0.885523
     86          6           0       -1.747451   -1.460047   -0.781407
     87          6           0       -0.378679   -1.116667   -1.428012
     88          6           0       -0.479066    0.484934   -1.367274
     89          6           0       -1.998864    0.635365   -1.383599
     90          6           0        0.045057    1.071908   -0.067246
     91          6           0       -0.270734   -1.629761   -2.906902
     92          6           0        1.141739   -1.603804   -3.495115
     93          1           0        1.531129   -2.666652   -4.417731
     94          7           0       -4.971243    1.394373   -1.437179
     95          6           0       -3.956750    2.145545   -1.914467
     96          6           0       -4.582289    3.342216   -2.498282
     97          6           0       -6.035827    3.314215   -2.180249
     98          6           0       -6.087190    2.178557   -1.281506
     99          6           0       -3.824459    4.328836   -3.338352
    100          6           0       -7.186800    4.175764   -2.603547
    101          8           0       -8.325060    4.114400   -2.017514
    102          6           0       -6.915067    5.159058   -3.662224
    103          7           0       -6.496558   -0.098203    0.719873
    104          6           0       -7.346102    0.926108    0.527571
    105          6           0       -8.608183    0.747428    1.337283
    106          6           0       -8.532130   -0.736104    1.929681
    107          6           0       -7.136142   -1.144690    1.410395
    108          6           0       -8.811632    1.741734    2.480233
    109          6           0       -9.734332   -1.674298    1.634413
    110          6           0       -9.788814   -1.994288    0.157925
    111          7           0       -4.528060   -2.245270    0.490832
    112          6           0       -5.373040   -2.854404    1.444277
    113          6           0       -4.689373   -4.076871    1.913969
    114          6           0       -3.474248   -4.081982    1.212594
    115          6           0       -3.396670   -2.932497    0.380628
    116          6           0       -5.179776   -4.976937    2.901651
    117          6           0       -2.234925   -4.792854    0.994789
    118          8           0       -1.779138   -5.875978    1.359248
    119          6           0       -1.248570   -3.850655    0.178858
    120          6           0       -0.661442   -4.656826   -0.947149
    121          8           0       -1.384640   -5.077862   -1.867107
    122          8           0        0.680961   -4.612824   -0.867311
    123          6           0        1.309134   -5.388893   -1.969557
    124          1           0       -1.918020    2.707527   -1.991648
    125          1           0       -7.949378    2.551152   -0.376155
    126          1           0       -7.101319   -2.982936    2.468030
    127          1           0        0.485433   -1.456487   -0.869795
    128          1           0       -0.041153    0.941931   -2.250875
    129          1           0        0.290372    0.304156    0.651449
    130          1           0       -0.747520    1.704461    0.310550
    131          1           0        0.890971    1.735768   -0.267381
    132          1           0       -0.764692   -0.910216   -3.572494
    133          1           0       -0.682478   -2.615966   -2.999028
    134          1           0        1.907652   -1.466118   -2.722220
    135          1           0        1.237739   -0.718443   -4.128312
    136          1           0       -2.741058    4.175790   -3.259542
    137          1           0       -3.991719    5.318102   -2.898767
    138          1           0       -4.159954    4.342560   -4.377543
    139          1           0       -6.118456    5.825536   -3.340233
    140          1           0       -7.879450    5.617276   -3.889993
    141          1           0       -6.543386    4.628171   -4.545759
    142          1           0       -9.486095    0.830120    0.708367
    143          1           0       -8.470583   -0.733655    3.027877
    144          1           0       -9.763644    2.300785    2.408139
    145          1           0       -7.970938    2.422601    2.494046
    146          1           0       -8.776150    1.310558    3.479254
    147          1           0      -10.674427   -1.173427    1.878336
    148          1           0       -9.707555   -2.601028    2.197843
    149          1           0      -10.312368   -1.130499   -0.262624
    150          1           0      -10.343557   -2.914387   -0.014418
    151          1           0       -8.783130   -2.014386   -0.277794
    152          1           0       -4.994489   -5.976497    2.531451
    153          1           0       -6.237603   -4.814412    3.097513
    154          1           0       -4.556065   -4.691135    3.752870
    155          1           0       -0.483886   -3.498184    0.872103
    156          1           0        1.976670   -6.121019   -1.504711
    157          1           0        1.771774   -4.638214   -2.637527
    158          1           0        0.666576   -6.032684   -2.558709
 ---------------------------------------------------------------------

 SCF Done:  E(RCAM-B3LYP) =  -4069.79643405     A.U. after   19 cycles

 Excitation energies and oscillator strengths:

 Excited State   1:      Singlet-A      1.6397 eV  756.13 nm  f=0.0034  <S**2>=0.000
     309 -> 315        0.12372
     310 -> 316       -0.10938
     311 -> 313        0.51213
     312 -> 314       -0.45941
 This state for optimization and/or second-order correction.
 Total Energy, E(TD-HF/TD-DFT) =  -4069.73617539
 Copying the excited state density for this state as the 1-particle RhoCI density.

 Excited State   2:      Singlet-A      1.7054 eV  727.01 nm  f=0.6783  <S**2>=0.000
     309 -> 315        0.12227
     310 -> 316        0.13459
     311 -> 313        0.45653
     312 -> 314        0.50913

 Excited State   3:      Singlet-A      2.1675 eV  572.01 nm  f=0.0105  <S**2>=0.000
     309 -> 313       -0.25053
     310 -> 314       -0.12874
     311 -> 315        0.10861
     312 -> 313        0.63443

 Excited State   4:      Singlet-A      2.1796 eV  568.84 nm  f=0.0904  <S**2>=0.000
     310 -> 314        0.61457
     312 -> 313        0.18894
     312 -> 316       -0.25829

 Excited State   5:      Singlet-A      2.1969 eV  564.37 nm  f=0.0960  <S**2>=0.000
     309 -> 313        0.58354
     310 -> 314       -0.14004
     311 -> 315       -0.25475
     312 -> 313        0.24529

 The electronic state is 1-A.
 Alpha  occ. eigenvalues --  -46.88317 -46.87305 -19.27163 -19.24399 -19.19600
 Alpha  occ. eigenvalues --  -19.19259 -19.18598 -19.18418 -19.17714 -19.17454
 Alpha  occ. eigenvalues --  -14.42928 -14.42159 -14.41896 -14.40998 -14.39895
 Alpha  occ. eigenvalues --  -14.39049 -14.38999 -14.38225 -10.39928 -10.37641
 Alpha  occ. eigenvalues --  -10.35892 -10.35105 -10.34838 -10.33584 -10.32551
 Alpha  occ. eigenvalues --  -10.31871 -10.31431 -10.31036 -10.30960 -10.30934
 Alpha  occ. eigenvalues --  -10.30638 -10.30618 -10.30331 -10.30070 -10.30022
 Alpha  occ. eigenvalues --  -10.29959 -10.29854 -10.29710 -10.29530 -10.29194
 Alpha  occ. eigenvalues --  -10.29133 -10.29033 -10.29006 -10.28956 -10.28860
 Alpha  occ. eigenvalues --  -10.28552 -10.28228 -10.28209 -10.28177 -10.28047
 Alpha  occ. eigenvalues --  -10.27993 -10.27982 -10.27942 -10.27903 -10.27901
 Alpha  occ. eigenvalues --  -10.27833 -10.27782 -10.27699 -10.27632 -10.27359
 Alpha  occ. eigenvalues --  -10.27260 -10.27255 -10.27103 -10.27101 -10.27066
 Alpha  occ. eigenvalues --  -10.27039 -10.26873 -10.26614 -10.26454 -10.26447
 Alpha  occ. eigenvalues --  -10.26202 -10.26176 -10.26163 -10.26096 -10.26079
 Alpha  occ. eigenvalues --  -10.25910 -10.25729 -10.25600 -10.25532 -10.25269
 Alpha  occ. eigenvalues --  -10.25238 -10.25157 -10.24947 -10.24506 -10.24471
 Alpha  occ. eigenvalues --  -10.24320  -3.17003  -3.16056  -1.91886  -1.91474
 Alpha  occ. eigenvalues --   -1.91316  -1.90938  -1.90527  -1.90363  -1.17541
 Alpha  occ. eigenvalues --   -1.14811  -1.09080  -1.07995  -1.07659  -1.07658
 Alpha  occ. eigenvalues --   -1.06677  -1.05431  -1.05063  -1.04213  -1.04128
 Alpha  occ. eigenvalues --   -1.03693  -1.03303  -1.02864  -1.02684  -1.01748
 Alpha  occ. eigenvalues --   -0.92473  -0.91470  -0.89920  -0.89644  -0.89140
 Alpha  occ. eigenvalues --   -0.88825  -0.88664  -0.88253  -0.88126  -0.87900
 Alpha  occ. eigenvalues --   -0.87734  -0.87435  -0.87306  -0.86817  -0.85463
 Alpha  occ. eigenvalues --   -0.84616  -0.84340  -0.83519  -0.83405  -0.83167
 Alpha  occ. eigenvalues --   -0.82649  -0.82245  -0.82215  -0.81119  -0.80730
 Alpha  occ. eigenvalues --   -0.79536  -0.79238  -0.78304  -0.77643  -0.77435
 Alpha  occ. eigenvalues --   -0.76814  -0.76426  -0.76371  -0.75301  -0.75238
 Alpha  occ. eigenvalues --   -0.74255  -0.73197  -0.72347  -0.72120  -0.71186
 Alpha  occ. eigenvalues --   -0.70246  -0.69480  -0.69372  -0.68562  -0.68109
 Alpha  occ. eigenvalues --   -0.67787  -0.67154  -0.66757  -0.65753  -0.65419
 Alpha  occ. eigenvalues --   -0.65120  -0.64739  -0.64661  -0.64382  -0.64025
 Alpha  occ. eigenvalues --   -0.63722  -0.62961  -0.60986  -0.60881  -0.60255
 Alpha  occ. eigenvalues --   -0.60014  -0.59453  -0.59424  -0.59064  -0.58678
 Alpha  occ. eigenvalues --   -0.58404  -0.57915  -0.57765  -0.57071  -0.56948
 Alpha  occ. eigenvalues --   -0.56644  -0.56604  -0.55973  -0.55852  -0.55767
 Alpha  occ. eigenvalues --   -0.55254  -0.55136  -0.54803  -0.54485  -0.54372
 Alpha  occ. eigenvalues --   -0.53775  -0.53706  -0.53619  -0.53567  -0.53496
 Alpha  occ. eigenvalues --   -0.53223  -0.52783  -0.52772  -0.52717  -0.52420
 Alpha  occ. eigenvalues --   -0.52331  -0.52190  -0.52094  -0.51785  -0.51577
 Alpha  occ. eigenvalues --   -0.51480  -0.51205  -0.51024  -0.50647  -0.50385
 Alpha  occ. eigenvalues --   -0.50330  -0.50228  -0.50003  -0.49824  -0.49670
 Alpha  occ. eigenvalues --   -0.49562  -0.49527  -0.49237  -0.49169  -0.48933
 Alpha  occ. eigenvalues --   -0.48865  -0.48737  -0.48669  -0.48170  -0.48092
 Alpha  occ. eigenvalues --   -0.47879  -0.47815  -0.47748  -0.47282  -0.47135
 Alpha  occ. eigenvalues --   -0.47024  -0.46902  -0.46651  -0.46514  -0.46376
 Alpha  occ. eigenvalues --   -0.46253  -0.46167  -0.45890  -0.45596  -0.45434
 Alpha  occ. eigenvalues --   -0.45083  -0.44936  -0.44916  -0.44722  -0.44603
 Alpha  occ. eigenvalues --   -0.44552  -0.44489  -0.44202  -0.44144  -0.43952
 Alpha  occ. eigenvalues --   -0.43844  -0.43796  -0.43665  -0.43513  -0.43412
 Alpha  occ. eigenvalues --   -0.43248  -0.43045  -0.43002  -0.42500  -0.42405
 Alpha  occ. eigenvalues --   -0.42263  -0.42201  -0.42151  -0.41985  -0.41700
 Alpha  occ. eigenvalues --   -0.41560  -0.41336  -0.41268  -0.41186  -0.41094
 Alpha  occ. eigenvalues --   -0.41059  -0.40941  -0.40771  -0.40600  -0.40342
 Alpha  occ. eigenvalues --   -0.40290  -0.40093  -0.39785  -0.39414  -0.39132
 Alpha  occ. eigenvalues --   -0.38855  -0.38115  -0.38033  -0.37733  -0.37658
 Alpha  occ. eigenvalues --   -0.37432  -0.37187  -0.36931  -0.36774  -0.36629
 Alpha  occ. eigenvalues --   -0.36046  -0.34922  -0.34721  -0.33946  -0.33862
 Alpha  occ. eigenvalues --   -0.33549  -0.32930  -0.32398  -0.31784  -0.31480
 Alpha  occ. eigenvalues --   -0.30973  -0.30551  -0.30462  -0.29911  -0.29755
 Alpha  occ. eigenvalues --   -0.29317  -0.28979  -0.28813  -0.24553  -0.23639
 Alpha  occ. eigenvalues --   -0.21577  -0.20774
 Alpha virt. eigenvalues --   -0.09234  -0.08421  -0.02220  -0.01350  -0.00525
 Alpha virt. eigenvalues --    0.00270   0.01768   0.02655   0.03041   0.03641
 Alpha virt. eigenvalues --    0.03979   0.04142   0.04771   0.05393   0.06232

 Mulliken charges:
               1
     1  Mg   0.807005
     2  C   -0.006088
     3  C   -0.093408
     4  C   -0.041970
     5  C   -0.061583
     6  N   -0.252849
     7  C   -0.058260
     8  C    0.004097
     9  C   -0.085947
    10  C    0.044970
    11  C    0.105253
    12  C    0.010696
    13  C   -0.068318
    14  H    0.036034
    15  N   -0.439025
    16  C    0.165588
    17  C   -0.179592
    18  C   -0.005746
    19  C    0.145895
    20  C    0.110626
    21  C    0.011485
    22  O   -0.248240
    23  C    0.063329
    24  N   -0.334825
    25  C    0.038284
    26  C   -0.027991
    27  C   -0.024720
    28  C    0.076204
    29  C    0.075840
    30  C    0.034747
    31  C   -0.005069
    32  N   -0.310557
    33  C    0.080030
    34  C   -0.167931
    35  C    0.009938
    36  C    0.081752
    37  C    0.126413
    38  C    0.049352
    39  O   -0.185629
    40  C   -0.006582
    41  C    0.223193
    42  O   -0.259631
    43  O   -0.300339
    44  C    0.172859
    45  H   -0.017705
    46  H   -0.016504
    47  H   -0.040298
    48  H   -0.002048
    49  H   -0.004098
    50  H    0.025878
    51  H    0.017143
    52  H    0.017468
    53  H    0.015434
    54  H    0.069424
    55  H    0.017080
    56  H    0.018186
    57  H    0.006417
    58  H    0.028004
    59  H    0.037470
    60  H    0.038504
    61  H    0.036770
    62  H    0.028318
    63  H    0.017190
    64  H    0.010457
    65  H    0.024053
    66  H    0.012786
    67  H    0.005617
    68  H    0.007430
    69  H    0.005862
    70  H    0.009164
    71  H    0.019935
    72  H    0.027954
    73  H    0.051355
    74  H    0.010278
    75  H    0.046696
    76  H    0.036596
    77  H    0.046844
    78  H    0.049251
    79  H    0.024386
    80  Mg   0.836587
    81  C   -0.016269
    82  C   -0.087990
    83  C   -0.046157
    84  C   -0.066567
    85  N   -0.253793
    86  C   -0.051875
    87  C   -0.019990
    88  C   -0.094213
    89  C    0.044186
    90  C    0.079956
    91  C    0.090856
    92  C   -0.109318
    93  H    0.032343
    94  N   -0.423261
    95  C    0.161902
    96  C   -0.175094
    97  C   -0.008731
    98  C    0.151821
    99  C    0.100151
   100  C    0.015044
   101  O   -0.254154
   102  C    0.061415
   103  N   -0.350447
   104  C    0.037109
   105  C   -0.019456
   106  C   -0.034842
   107  C    0.089689
   108  C    0.073981
   109  C    0.034932
   110  C   -0.007543
   111  N   -0.324322
   112  C    0.079354
   113  C   -0.164233
   114  C    0.003509
   115  C    0.095352
   116  C    0.131658
   117  C    0.040715
   118  O   -0.184799
   119  C    0.005707
   120  C    0.207598
   121  O   -0.259376
   122  O   -0.297699
   123  C    0.195868
   124  H   -0.020746
   125  H   -0.016632
   126  H   -0.041310
   127  H    0.013416
   128  H   -0.003829
   129  H    0.036709
   130  H    0.016112
   131  H    0.047447
   132  H    0.005710
   133  H    0.038328
   134  H    0.038448
   135  H    0.014853
   136  H    0.006013
   137  H    0.025193
   138  H    0.038026
   139  H    0.037651
   140  H    0.035440
   141  H    0.033098
   142  H    0.013763
   143  H    0.011730
   144  H    0.024369
   145  H    0.011626
   146  H    0.004793
   147  H    0.005574
   148  H    0.003316
   149  H    0.010610
   150  H    0.017401
   151  H    0.030646
   152  H    0.046399
   153  H    0.007590
   154  H    0.046267
   155  H    0.038874
   156  H    0.034745
   157  H    0.049400
   158  H    0.028780
 Sum of Mulliken charges =  -0.00000

 Dipole moment (field-independent basis, Debye):
    X=              4.9001    Y=              6.3256    Z=             -2.8740  Tot=              8.5021
 Quadrupole moment (field-independent basis, Debye-Ang):
   XX=           -497.5415   YY=           -561.0674   ZZ=           -463.3455
   XY=             20.0255   XZ=            -36.2665   YZ=             -8.9009

 Normal termination of Gaussian 16 at Fri Sep 10 01:38:10 2021.
