 Gaussian 16, Revision A.03,
 Gaussian 16:  ES64L-G16RevA.03 25-Dec-2016

 -----------------------------------
 #p cam-b3lyp/Def2SVP td=(nstates=5)
 -----------------------------------

 --------------------------------
 TDDFT excited states in gaussian
 --------------------------------
 Symbolic Z-matrix:
 Charge =  0 Multiplicity = 1

                         Standard orientation:
 ---------------------------------------------------------------------
 Center     Atomic      Atomic             Coordinates (Angstroms)
 Number     Number       Type             X           Y           Z
 ---------------------------------------------------------------------
      1         12           0        6.876618    0.384311    0.659494
      2          6           0        7.149869   -2.659720   -1.203681
      3          6           0        7.973651    2.015515   -2.129548
      4          6           0        7.078310    3.019308    2.412415
      5          6           0        6.905895   -1.557283    3.553456
      6          7           0        7.454107   -0.340019   -1.351102
      7          6           0        7.456933   -1.523771   -1.955995
      8          6           0        7.743580   -1.435648   -3.484864
      9          6           0        8.526061   -0.046823   -3.514630
     10          6           0        7.924201    0.597613   -2.278349
     11          6           0       10.030743   -0.190767   -3.310385
     12          6           0        6.429240   -1.370997   -4.333428
     13          6           0        6.608581   -1.611534   -5.835205
     14          1           0        5.566331   -2.322817   -6.559869
     15          7           0        6.968609    2.281207    0.115278
     16          6           0        7.427934    2.763962   -1.064237
     17          6           0        7.289716    4.234070   -0.984491
     18          6           0        6.890262    4.578655    0.408273
     19          6           0        6.989854    3.292437    1.049447
     20          6           0        7.481077    5.143439   -2.159302
     21          6           0        6.493485    5.865185    1.060608
     22          8           0        6.410037    5.986421    2.330613
     23          6           0        6.288299    7.019140    0.166557
     24          7           0        7.198710    0.714270    2.695426
     25          6           0        7.181546    1.950689    3.205284
     26          6           0        7.150878    1.922623    4.704688
     27          6           0        6.904384    0.398817    5.113356
     28          6           0        6.918733   -0.230288    3.698332
     29          6           0        8.411269    2.442596    5.409709
     30          6           0        5.696915    0.105449    6.038759
     31          6           0        4.406003    0.384660    5.302088
     32          7           0        6.825717   -1.735181    1.124477
     33          6           0        6.869317   -2.320207    2.398258
     34          6           0        6.920029   -3.780597    2.201391
     35          6           0        6.919131   -3.944129    0.817519
     36          6           0        6.897417   -2.666043    0.189573
     37          6           0        7.017756   -4.757435    3.231280
     38          6           0        6.956338   -4.900616   -0.276833
     39          8           0        6.889677   -6.127966   -0.358439
     40          6           0        7.230220   -4.104861   -1.628717
     41          6           0        6.241069   -4.592940   -2.651785
     42          8           0        5.020949   -4.365705   -2.521258
     43          8           0        6.901505   -5.037673   -3.731868
     44          6           0        5.977340   -5.509319   -4.797525
     45          1           0        8.530256    2.603962   -2.861574
     46          1           0        7.038706    3.899834    3.057041
     47          1           0        6.831496   -2.229148    4.410495
     48          1           0        8.380337   -2.230132   -3.874429
     49          1           0        8.284425    0.537469   -4.402287
     50          1           0       10.301241   -1.213677   -3.048839
     51          1           0       10.280231    0.489179   -2.495571
     52          1           0       10.576418    0.172598   -4.181581
     53          1           0        6.063761   -0.344289   -4.352326
     54          1           0        5.683826   -2.065070   -3.943627
     55          1           0        7.587126   -2.038660   -6.056385
     56          1           0        6.615406   -0.644199   -6.337616
     57          1           0        7.930442    4.619732   -3.002123
     58          1           0        8.226871    5.883842   -1.870677
     59          1           0        6.556349    5.645106   -2.444853
     60          1           0        7.207989    7.214956   -0.385145
     61          1           0        5.922639    7.827789    0.798403
     62          1           0        5.534031    6.759992   -0.576996
     63          1           0        6.335011    2.532413    5.090619
     64          1           0        7.756385   -0.024872    5.645573
     65          1           0        8.218596    3.260923    6.103916
     66          1           0        9.127388    2.739688    4.644072
     67          1           0        8.976350    1.685618    5.952926
     68          1           0        5.717944    0.760861    6.908781
     69          1           0        5.670602   -0.923071    6.398905
     70          1           0        4.280006    1.459135    5.430390
     71          1           0        3.581021   -0.162538    5.759459
     72          1           0        4.508102    0.193840    4.233608
     73          1           0        6.320927   -5.552121    2.965058
     74          1           0        6.778990   -4.331098    4.205360
     75          1           0        8.067239   -5.038278    3.144287
     76          1           0        8.258264   -4.321618   -1.917272
     77          1           0        6.255095   -6.537103   -5.031503
     78          1           0        6.031075   -4.775120   -5.601558
     79          1           0        4.933915   -5.638943   -4.508040
     80         12           0       -6.326218    0.634127   -0.230434
     81          6           0       -8.992559   -1.694468    0.358957
     82          6           0       -8.672075    2.776717   -1.471740
     83          6           0       -3.957827    2.522626   -1.174737
     84          6           0       -4.118702   -2.054808   -0.024881
     85          7           0       -8.517210    0.450972   -0.471817
     86          6           0       -9.429274   -0.455927   -0.155561
     87          6           0      -10.896603    0.019712   -0.329593
     88          6           0      -10.648386    1.170654   -1.421648
     89          6           0       -9.200077    1.519165   -1.084586
     90          6           0      -10.696689    0.662618   -2.853045
     91          6           0      -11.496208    0.605919    0.996620
     92          6           0      -13.013655    0.803243    0.984191
     93          1           0      -13.755337    0.575366    2.221301
     94          7           0       -6.335147    2.556428   -0.723627
     95          6           0       -7.380409    3.272394   -1.188486
     96          6           0       -6.866319    4.631246   -1.419569
     97          6           0       -5.393093    4.617427   -1.209502
     98          6           0       -5.163670    3.196078   -1.044528
     99          6           0       -7.759938    5.798670   -1.722861
    100          6           0       -4.359744    5.702477   -1.176883
    101          8           0       -3.105878    5.439587   -1.216184
    102          6           0       -4.859985    7.084874   -1.191854
    103          7           0       -4.351947    0.260236   -0.764079
    104          6           0       -3.519723    1.266801   -1.083737
    105          6           0       -2.089628    0.788176   -1.162117
    106          6           0       -2.104261   -0.704864   -0.589222
    107          6           0       -3.621379   -0.869826   -0.351466
    108          6           0       -1.462281    0.792043   -2.555971
    109          6           0       -1.134032   -1.018609    0.582484
    110          6           0       -1.562730   -0.267890    1.822652
    111          7           0       -6.468517   -1.459163    0.285292
    112          6           0       -5.425786   -2.411414    0.281324
    113          6           0       -6.032181   -3.722343    0.591450
    114          6           0       -7.399925   -3.443391    0.732765
    115          6           0       -7.632542   -2.060022    0.505450
    116          6           0       -5.339476   -4.963923    0.660361
    117          6           0       -8.701296   -4.006519    1.012076
    118          8           0       -9.112311   -5.111383    1.364353
    119          6           0       -9.807860   -2.921858    0.657966
    120          6           0      -10.777923   -2.856161    1.805653
    121          8           0      -10.410251   -2.448128    2.921417
    122          8           0      -12.022254   -3.077399    1.344068
    123          6           0      -13.021399   -3.011465    2.443703
    124          1           0       -9.289584    3.431387   -2.087357
    125          1           0       -3.089057    3.148703   -1.390902
    126          1           0       -3.483801   -2.925212    0.153896
    127          1           0      -11.572809   -0.728623   -0.725209
    128          1           0      -11.296553    2.025811   -1.248535
    129          1           0      -10.772922   -0.413703   -2.896191
    130          1           0       -9.776250    0.995516   -3.314567
    131          1           0      -11.504348    1.156168   -3.401167
    132          1           0      -11.172008    1.648858    1.105831
    133          1           0      -11.216945    0.004240    1.839607
    134          1           0      -13.490773    0.278128    0.147787
    135          1           0      -13.224845    1.858300    0.793722
    136          1           0       -8.775598    5.472124   -1.978203
    137          1           0       -7.383359    6.259123   -2.642666
    138          1           0       -7.759925    6.546946   -0.927400
    139          1           0       -5.460318    7.242031   -2.084803
    140          1           0       -3.977296    7.716354   -1.073692
    141          1           0       -5.528237    7.224412   -0.334778
    142          1           0       -1.443627    1.396551   -0.541098
    143          1           0       -1.825104   -1.439371   -1.358906
    144          1           0       -0.535049    1.392661   -2.615608
    145          1           0       -2.197852    1.157214   -3.260328
    146          1           0       -1.225258   -0.191332   -2.958452
    147          1           0       -0.125913   -0.671720    0.342646
    148          1           0       -1.064130   -2.076200    0.814001
    149          1           0       -1.123110    0.723159    1.675523
    150          1           0       -1.166996   -0.746531    2.716150
    151          1           0       -2.651593   -0.144536    1.851340
    152          1           0       -5.712691   -5.480564    1.534596
    153          1           0       -4.262907   -4.816089    0.714367
    154          1           0       -5.645308   -5.410870   -0.289356
    155          1           0      -10.290254   -3.236330   -0.268312
    156          1           0      -13.572863   -3.956678    2.431412
    157          1           0      -13.602135   -2.087108    2.264650
    158          1           0      -12.647260   -2.998107    3.460703
 ---------------------------------------------------------------------

 SCF Done:  E(RCAM-B3LYP) =  -4069.81205781     A.U. after   19 cycles

 Excitation energies and oscillator strengths:

 Excited State   1:      Singlet-A      1.6642 eV  745.01 nm  f=0.0105  <S**2>=0.000
     309 -> 315       -0.10773
     310 -> 316        0.13302
     311 -> 313       -0.43055
     312 -> 314        0.53493
 This state for optimization and/or second-order correction.
 Total Energy, E(TD-HF/TD-DFT) =  -4069.75090006
 Copying the excited state density for this state as the 1-particle RhoCI density.

 Excited State   2:      Singlet-A      1.6897 eV  733.78 nm  f=0.7302  <S**2>=0.000
     309 -> 315        0.13895
     310 -> 316        0.11109
     311 -> 313        0.53372
     312 -> 314        0.42962

 Excited State   3:      Singlet-A      2.1851 eV  567.42 nm  f=0.1067  <S**2>=0.000
     310 -> 314        0.64255
     312 -> 316       -0.27248

 Excited State   4:      Singlet-A      2.1942 eV  565.06 nm  f=0.0958  <S**2>=0.000
     309 -> 313        0.64045
     311 -> 315       -0.27897

 Excited State   5:      Singlet-A      2.6528 eV  467.37 nm  f=0.0000  <S**2>=0.000
     312 -> 313        0.70681

 The electronic state is 1-A.
 Alpha  occ. eigenvalues --  -46.87819 -46.87529 -19.26344 -19.26259 -19.19091
 Alpha  occ. eigenvalues --  -19.19064 -19.18775 -19.18621 -19.18193 -19.17934
 Alpha  occ. eigenvalues --  -14.42470 -14.42372 -14.41465 -14.41214 -14.39416
 Alpha  occ. eigenvalues --  -14.39225 -14.38612 -14.38467 -10.39145 -10.38992
 Alpha  occ. eigenvalues --  -10.35405 -10.35302 -10.34416 -10.34112 -10.31738
 Alpha  occ. eigenvalues --  -10.31676 -10.31431 -10.31182 -10.30924 -10.30912
 Alpha  occ. eigenvalues --  -10.30591 -10.30521 -10.30262 -10.30227 -10.30208
 Alpha  occ. eigenvalues --  -10.29985 -10.29937 -10.29739 -10.29638 -10.29308
 Alpha  occ. eigenvalues --  -10.29272 -10.29259 -10.28777 -10.28622 -10.28580
 Alpha  occ. eigenvalues --  -10.28579 -10.28381 -10.28286 -10.28139 -10.28040
 Alpha  occ. eigenvalues --  -10.27874 -10.27803 -10.27742 -10.27585 -10.27545
 Alpha  occ. eigenvalues --  -10.27500 -10.27451 -10.27446 -10.27423 -10.27377
 Alpha  occ. eigenvalues --  -10.27359 -10.27344 -10.27279 -10.27192 -10.27182
 Alpha  occ. eigenvalues --  -10.26940 -10.26752 -10.26605 -10.26351 -10.26324
 Alpha  occ. eigenvalues --  -10.26249 -10.26182 -10.26031 -10.25935 -10.25858
 Alpha  occ. eigenvalues --  -10.25832 -10.25770 -10.25669 -10.25424 -10.25214
 Alpha  occ. eigenvalues --  -10.24848 -10.24798 -10.24746 -10.24699 -10.24555
 Alpha  occ. eigenvalues --  -10.24488  -3.16563  -3.16279  -1.91445  -1.91161
 Alpha  occ. eigenvalues --   -1.91031  -1.90873  -1.90750  -1.90587  -1.16694
 Alpha  occ. eigenvalues --   -1.16551  -1.08656  -1.08542  -1.07173  -1.06876
 Alpha  occ. eigenvalues --   -1.06849  -1.06710  -1.04600  -1.04372  -1.03775
 Alpha  occ. eigenvalues --   -1.03531  -1.03249  -1.02898  -1.02427  -1.01976
 Alpha  occ. eigenvalues --   -0.91995  -0.91863  -0.89528  -0.89318  -0.89213
 Alpha  occ. eigenvalues --   -0.89044  -0.88293  -0.88033  -0.87885  -0.87689
 Alpha  occ. eigenvalues --   -0.87650  -0.87553  -0.87257  -0.87014  -0.85002
 Alpha  occ. eigenvalues --   -0.84889  -0.83944  -0.83688  -0.82936  -0.82817
 Alpha  occ. eigenvalues --   -0.82656  -0.82539  -0.81617  -0.81478  -0.80612
 Alpha  occ. eigenvalues --   -0.80324  -0.78793  -0.78514  -0.77229  -0.77017
 Alpha  occ. eigenvalues --   -0.76958  -0.76764  -0.75946  -0.75725  -0.74906
 Alpha  occ. eigenvalues --   -0.74642  -0.72787  -0.72558  -0.71686  -0.71448
 Alpha  occ. eigenvalues --   -0.69913  -0.69541  -0.68887  -0.68713  -0.67651
 Alpha  occ. eigenvalues --   -0.67475  -0.67232  -0.67101  -0.65312  -0.65159
 Alpha  occ. eigenvalues --   -0.64875  -0.64640  -0.64633  -0.64527  -0.64279
 Alpha  occ. eigenvalues --   -0.64022  -0.62334  -0.62155  -0.60433  -0.60214
 Alpha  occ. eigenvalues --   -0.59825  -0.59684  -0.59003  -0.58855  -0.58519
 Alpha  occ. eigenvalues --   -0.58291  -0.57619  -0.57438  -0.57317  -0.57090
 Alpha  occ. eigenvalues --   -0.56319  -0.56075  -0.56016  -0.55779  -0.55514
 Alpha  occ. eigenvalues --   -0.55357  -0.55346  -0.55088  -0.54550  -0.54330
 Alpha  occ. eigenvalues --   -0.53920  -0.53808  -0.53302  -0.53225  -0.53098
 Alpha  occ. eigenvalues --   -0.53026  -0.52940  -0.52783  -0.52739  -0.52576
 Alpha  occ. eigenvalues --   -0.52444  -0.52171  -0.51933  -0.51728  -0.51628
 Alpha  occ. eigenvalues --   -0.51559  -0.51216  -0.51062  -0.50533  -0.50374
 Alpha  occ. eigenvalues --   -0.50031  -0.49907  -0.49868  -0.49698  -0.49517
 Alpha  occ. eigenvalues --   -0.49383  -0.49225  -0.49114  -0.49092  -0.48986
 Alpha  occ. eigenvalues --   -0.48617  -0.48469  -0.48444  -0.48429  -0.48240
 Alpha  occ. eigenvalues --   -0.48213  -0.47701  -0.47470  -0.47299  -0.46993
 Alpha  occ. eigenvalues --   -0.46812  -0.46577  -0.46563  -0.46442  -0.46372
 Alpha  occ. eigenvalues --   -0.46181  -0.46128  -0.45936  -0.45849  -0.45690
 Alpha  occ. eigenvalues --   -0.45206  -0.45052  -0.44600  -0.44501  -0.44404
 Alpha  occ. eigenvalues --   -0.44343  -0.44151  -0.44104  -0.44021  -0.44014
 Alpha  occ. eigenvalues --   -0.43924  -0.43835  -0.43523  -0.43427  -0.43400
 Alpha  occ. eigenvalues --   -0.43261  -0.43042  -0.42819  -0.42767  -0.42739
 Alpha  occ. eigenvalues --   -0.42668  -0.42382  -0.42027  -0.41799  -0.41721
 Alpha  occ. eigenvalues --   -0.41553  -0.41539  -0.41329  -0.41154  -0.40886
 Alpha  occ. eigenvalues --   -0.40864  -0.40797  -0.40626  -0.40580  -0.40570
 Alpha  occ. eigenvalues --   -0.40306  -0.40259  -0.40136  -0.39446  -0.39208
 Alpha  occ. eigenvalues --   -0.38478  -0.38178  -0.37777  -0.37548  -0.37330
 Alpha  occ. eigenvalues --   -0.37288  -0.37106  -0.37077  -0.36759  -0.36655
 Alpha  occ. eigenvalues --   -0.36221  -0.36066  -0.34305  -0.34119  -0.33833
 Alpha  occ. eigenvalues --   -0.33759  -0.33205  -0.33042  -0.31309  -0.31179
 Alpha  occ. eigenvalues --   -0.31048  -0.30844  -0.30056  -0.29838  -0.29452
 Alpha  occ. eigenvalues --   -0.29338  -0.29209  -0.29083  -0.24099  -0.23903
 Alpha  occ. eigenvalues --   -0.21141  -0.20984
 Alpha virt. eigenvalues --   -0.08783  -0.08665  -0.01760  -0.01549  -0.00050
 Alpha virt. eigenvalues --    0.00078   0.02183   0.02337   0.03017   0.03355
 Alpha virt. eigenvalues --    0.04695   0.04850   0.05040   0.05266   0.06142

 Mulliken charges:
               1
     1  Mg   0.837348
     2  C   -0.003444
     3  C   -0.094005
     4  C   -0.045662
     5  C   -0.063997
     6  N   -0.256830
     7  C   -0.052820
     8  C   -0.013884
     9  C   -0.086991
    10  C    0.046224
    11  C    0.104760
    12  C    0.053414
    13  C   -0.071799
    14  H    0.035766
    15  N   -0.433333
    16  C    0.168458
    17  C   -0.176786
    18  C   -0.003551
    19  C    0.148718
    20  C    0.110061
    21  C    0.012954
    22  O   -0.249253
    23  C    0.062134
    24  N   -0.341074
    25  C    0.041209
    26  C   -0.028299
    27  C   -0.023919
    28  C    0.074525
    29  C    0.076107
    30  C    0.035108
    31  C   -0.004518
    32  N   -0.310303
    33  C    0.079780
    34  C   -0.170138
    35  C    0.008250
    36  C    0.082250
    37  C    0.127411
    38  C    0.045631
    39  O   -0.188608
    40  C   -0.005117
    41  C    0.213121
    42  O   -0.258296
    43  O   -0.304529
    44  C    0.157744
    45  H   -0.017377
    46  H   -0.016430
    47  H   -0.041432
    48  H    0.000984
    49  H   -0.003889
    50  H    0.025520
    51  H    0.016575
    52  H    0.016806
    53  H    0.011171
    54  H    0.043294
    55  H    0.018101
    56  H    0.018252
    57  H    0.005797
    58  H    0.026977
    59  H    0.040592
    60  H    0.036995
    61  H    0.036265
    62  H    0.032808
    63  H    0.016917
    64  H    0.009579
    65  H    0.023497
    66  H    0.012557
    67  H    0.004838
    68  H    0.006783
    69  H    0.004761
    70  H    0.009469
    71  H    0.018042
    72  H    0.027913
    73  H    0.047234
    74  H    0.009167
    75  H    0.046158
    76  H    0.035337
    77  H    0.043226
    78  H    0.046528
    79  H    0.053146
    80  Mg   0.837639
    81  C   -0.017080
    82  C   -0.088119
    83  C   -0.045574
    84  C   -0.064696
    85  N   -0.254563
    86  C   -0.049846
    87  C   -0.015096
    88  C   -0.090462
    89  C    0.045666
    90  C    0.114482
    91  C    0.062581
    92  C   -0.077744
    93  H    0.034650
    94  N   -0.423392
    95  C    0.162789
    96  C   -0.175010
    97  C   -0.008150
    98  C    0.152107
    99  C    0.099519
   100  C    0.015380
   101  O   -0.253719
   102  C    0.061291
   103  N   -0.350136
   104  C    0.037536
   105  C   -0.019976
   106  C   -0.035678
   107  C    0.088684
   108  C    0.073860
   109  C    0.035010
   110  C   -0.007869
   111  N   -0.324187
   112  C    0.078532
   113  C   -0.162745
   114  C    0.002139
   115  C    0.096360
   116  C    0.131317
   117  C    0.042453
   118  O   -0.187918
   119  C    0.000893
   120  C    0.211241
   121  O   -0.251071
   122  O   -0.305662
   123  C    0.152092
   124  H   -0.020150
   125  H   -0.016010
   126  H   -0.038581
   127  H   -0.000814
   128  H   -0.004600
   129  H    0.022379
   130  H    0.014362
   131  H    0.015906
   132  H    0.013890
   133  H    0.037672
   134  H    0.020677
   135  H    0.019436
   136  H    0.008533
   137  H    0.025564
   138  H    0.039453
   139  H    0.037900
   140  H    0.035790
   141  H    0.033990
   142  H    0.014133
   143  H    0.014870
   144  H    0.024073
   145  H    0.010493
   146  H    0.007518
   147  H    0.007837
   148  H    0.006252
   149  H    0.010324
   150  H    0.017935
   151  H    0.029043
   152  H    0.045934
   153  H    0.010082
   154  H    0.047107
   155  H    0.034842
   156  H    0.043784
   157  H    0.049353
   158  H    0.053516
 Sum of Mulliken charges =  -0.00000

 Dipole moment (field-independent basis, Debye):
    X=              0.8094    Y=              6.4306    Z=             -4.9513  Tot=              8.1562
 Quadrupole moment (field-independent basis, Debye-Ang):
   XX=           -437.2220   YY=           -546.3477   ZZ=           -480.0508
   XY=            -29.5685   XZ=              5.5090   YZ=            -10.2696

 Normal termination of Gaussian 16 at Sat Sep 11 18:30:15 2021.
