 Gaussian 16, Revision A.03,
 Gaussian 16:  ES64L-G16RevA.03 25-Dec-2016

 -----------------------------------
 #p cam-b3lyp/Def2SVP td=(nstates=5)
 -----------------------------------

 --------------------------------
 TDDFT excited states in gaussian
 --------------------------------
 Symbolic Z-matrix:
 Charge =  0 Multiplicity = 1

                         Standard orientation:
 ---------------------------------------------------------------------
 Center     Atomic      Atomic             Coordinates (Angstroms)
 Number     Number       Type             X           Y           Z
 ---------------------------------------------------------------------
      1         12           0        4.415023    0.536977    1.388938
      2          6           0        5.290131   -2.386323   -0.482083
      3          6           0        6.063468    2.362534   -0.976023
      4          6           0        4.048443    3.077714    3.250898
      5          6           0        3.849282   -1.557879    4.116056
      6          7           0        5.497420   -0.051516   -0.450285
      7          6           0        5.708667   -1.199129   -1.087097
      8          6           0        6.350067   -1.015461   -2.495020
      9          6           0        7.041864    0.403780   -2.273277
     10          6           0        6.126609    0.954117   -1.193758
     11          6           0        8.458491    0.310573   -1.715619
     12          6           0        5.277314   -0.958159   -3.634164
     13          6           0        5.825631   -1.108262   -5.056195
     14          1           0        5.027879   -1.820736   -6.042765
     15          7           0        4.534637    2.463086    0.966272
     16          6           0        5.238288    3.028332   -0.044004
     17          6           0        5.007143    4.484941    0.063435
     18          6           0        4.266252    4.735823    1.330808
     19          6           0        4.276551    3.421475    1.920521
     20          6           0        5.427345    5.464566   -0.988950
     21          6           0        3.656347    5.967232    1.922229
     22          8           0        3.263118    6.014977    3.137822
     23          6           0        3.611648    7.159200    1.056056
     24          7           0        4.219231    0.767474    3.454409
     25          6           0        4.014187    1.972266    3.997931
     26          6           0        3.624771    1.860616    5.442170
     27          6           0        3.368288    0.307841    5.712097
     28          6           0        3.756427   -0.241440    4.317139
     29          6           0        4.648804    2.392242    6.454465
     30          6           0        1.990772   -0.085139    6.302382
     31          6           0        0.902389    0.181030    5.286669
     32          7           0        4.366126   -1.605167    1.735163
     33          6           0        4.132578   -2.257028    2.954674
     34          6           0        4.306619   -3.701090    2.712883
     35          6           0        4.647780   -3.788229    1.364602
     36          6           0        4.710198   -2.479531    0.806296
     37          6           0        4.205061   -4.728222    3.692228
     38          6           0        4.998194   -4.680807    0.271729
     39          8           0        5.018360   -5.903518    0.123186
     40          6           0        5.547048   -3.801420   -0.937098
     41          6           0        4.860796   -4.272641   -2.190221
     42          8           0        3.634877   -4.103082   -2.350658
     43          8           0        5.784596   -4.629930   -3.095473
     44          6           0        5.170708   -5.079756   -4.373343
     45          1           0        6.747994    3.012617   -1.524436
     46          1           0        3.808069    3.919125    3.904109
     47          1           0        3.606375   -2.278307    4.899276
     48          1           0        7.103137   -1.760593   -2.752096
     49          1           0        6.990522    1.025580   -3.166837
     50          1           0        8.711894   -0.713227   -1.440769
     51          1           0        8.467922    0.954362   -0.835881
     52          1           0        9.177889    0.743303   -2.411312
     53          1           0        4.873213    0.052205   -3.696826
     54          1           0        4.497854   -1.702548   -3.467873
     55          1           0        6.849880   -1.482155   -5.051033
     56          1           0        5.901953   -0.115314   -5.499398
     57          1           0        6.093632    5.006807   -1.719062
     58          1           0        6.041291    6.217911   -0.495746
     59          1           0        4.573360    5.942874   -1.468809
     60          1           0        4.625431    7.422536    0.753656
     61          1           0        3.062184    7.916252    1.614457
     62          1           0        3.073544    6.910630    0.140848
     63          1           0        2.708797    2.414352    5.644146
     64          1           0        4.088237   -0.109205    6.416668
     65          1           0        4.251447    3.162607    7.115790
     66          1           0        5.511468    2.760036    5.899641
     67          1           0        5.105730    1.630336    7.085444
     68          1           0        1.766806    0.521785    7.178983
     69          1           0        1.933081   -1.132109    6.600336
     70          1           0        0.692378    1.240768    5.426966
     71          1           0        0.021751   -0.423801    5.505455
     72          1           0        1.268838    0.053553    4.267871
     73          1           0        3.636050   -5.534948    3.230287
     74          1           0        3.716413   -4.366193    4.596530
     75          1           0        5.257972   -4.960645    3.851019
     76          1           0        6.624336   -3.959708   -0.976055
     77          1           0        5.550767   -6.080891   -4.577101
     78          1           0        5.377514   -4.300901   -5.107523
     79          1           0        4.096666   -5.267715   -4.352256
     80         12           0       -4.143024    0.374020   -1.368214
     81          6           0       -6.210395   -1.684041    0.722095
     82          6           0       -6.340005    2.916566   -0.782278
     83          6           0       -2.599520    2.078788   -3.554252
     84          6           0       -2.790258   -2.557934   -2.679455
     85          7           0       -5.997404    0.479915   -0.167248
     86          6           0       -6.652092   -0.347444    0.633497
     87          6           0       -7.799217    0.314315    1.443263
     88          6           0       -8.092677    1.558716    0.471545
     89          6           0       -6.717388    1.690003   -0.179599
     90          6           0       -9.107987    1.247167   -0.615393
     91          6           0       -7.330670    0.791837    2.862577
     92          6           0       -8.463101    1.164658    3.821932
     93          1           0       -8.297935    0.868349    5.242275
     94          7           0       -4.127733    2.331465   -1.694956
     95          6           0       -5.092602    3.217945   -1.371758
     96          6           0       -4.611290    4.525936   -1.842583
     97          6           0       -3.358121    4.313720   -2.616695
     98          6           0       -3.323668    2.865975   -2.670794
     99          6           0       -5.282436    5.818719   -1.479682
    100          6           0       -2.363065    5.257756   -3.220733
    101          8           0       -1.475317    4.857715   -4.054216
    102          6           0       -2.517527    6.679509   -2.879781
    103          7           0       -3.032155   -0.156054   -3.043723
    104          6           0       -2.423470    0.779210   -3.793871
    105          6           0       -1.462473    0.151151   -4.774890
    106          6           0       -1.372591   -1.390959   -4.360890
    107          6           0       -2.410997   -1.407026   -3.217720
    108          6           0       -1.850894    0.260217   -6.249209
    109          6           0        0.044069   -1.963023   -4.080709
    110          6           0        0.617695   -1.332374   -2.832255
    111          7           0       -4.289020   -1.737078   -0.932315
    112          6           0       -3.658519   -2.795989   -1.621705
    113          6           0       -4.152871   -4.056133   -1.030025
    114          6           0       -5.061270   -3.640058   -0.045043
    115          6           0       -5.143487   -2.221361   -0.037990
    116          6           0       -3.793767   -5.368539   -1.448069
    117          6           0       -5.977296   -4.078733    0.983134
    118          8           0       -6.260932   -5.164088    1.488407
    119          6           0       -6.856843   -2.836136    1.440011
    120          6           0       -6.871438   -2.805240    2.943790
    121          8           0       -5.826010   -2.589015    3.581701
    122          8           0       -8.146762   -2.819018    3.372440
    123          6           0       -8.213451   -2.778342    4.857611
    124          1           0       -7.082678    3.712118   -0.848735
    125          1           0       -1.963646    2.621815   -4.257297
    126          1           0       -2.343289   -3.512091   -2.966662
    127          1           0       -8.690009   -0.293274    1.548680
    128          1           0       -8.333240    2.454351    1.038407
    129          1           0       -9.377397    0.201499   -0.627288
    130          1           0       -8.635679    1.526809   -1.547998
    131          1           0       -9.981396    1.897550   -0.512994
    132          1           0       -6.836519    1.767259    2.767105
    133          1           0       -6.695550    0.058813    3.320735
    134          1           0       -9.438160    0.810127    3.466242
    135          1           0       -8.562243    2.252775    3.835568
    136          1           0       -6.272786    5.648170   -1.039762
    137          1           0       -5.488893    6.346036   -2.417325
    138          1           0       -4.658900    6.453895   -0.846902
    139          1           0       -3.505019    7.018550   -3.183711
    140          1           0       -1.661896    7.183455   -3.333462
    141          1           0       -2.470039    6.785156   -1.790196
    142          1           0       -0.478349    0.595558   -4.690655
    143          1           0       -1.764593   -2.048422   -5.150774
    144          1           0       -1.077275    0.751320   -6.869210
    145          1           0       -2.788561    0.795757   -6.316439
    146          1           0       -2.089020   -0.684435   -6.735152
    147          1           0        0.723764   -1.708184   -4.897553
    148          1           0        0.060474   -3.042432   -3.972975
    149          1           0        1.031427   -0.388707   -3.200215
    150          1           0        1.394259   -1.964265   -2.406009
    151          1           0       -0.174595   -1.087630   -2.115287
    152          1           0       -3.622746   -5.945759   -0.549135
    153          1           0       -2.912913   -5.355334   -2.086589
    154          1           0       -4.695239   -5.651542   -1.998074
    155          1           0       -7.855824   -2.971089    1.023599
    156          1           0       -8.804008   -3.643436    5.174721
    157          1           0       -8.609991   -1.777338    5.111550
    158          1           0       -7.292193   -2.938949    5.405267
 ---------------------------------------------------------------------

 SCF Done:  E(RCAM-B3LYP) =  -4069.81436083     A.U. after   19 cycles

 Excitation energies and oscillator strengths:

 Excited State   1:      Singlet-A      1.6451 eV  753.64 nm  f=0.0043  <S**2>=0.000
     309 -> 315       -0.11241
     310 -> 316        0.12242
     311 -> 313       -0.46311
     312 -> 314        0.50847
 This state for optimization and/or second-order correction.
 Total Energy, E(TD-HF/TD-DFT) =  -4069.75390290
 Copying the excited state density for this state as the 1-particle RhoCI density.

 Excited State   2:      Singlet-A      1.7022 eV  728.36 nm  f=0.6976  <S**2>=0.000
     309 -> 315        0.13423
     310 -> 316        0.12122
     311 -> 313        0.50592
     312 -> 314        0.46077

 Excited State   3:      Singlet-A      2.1808 eV  568.51 nm  f=0.0419  <S**2>=0.000
     309 -> 313        0.24805
     310 -> 314        0.59495
     311 -> 315       -0.10229
     312 -> 316       -0.24806

 Excited State   4:      Singlet-A      2.1955 eV  564.73 nm  f=0.1416  <S**2>=0.000
     309 -> 313        0.59084
     310 -> 314       -0.24444
     311 -> 315       -0.25893
     312 -> 316        0.10933

 Excited State   5:      Singlet-A      2.4321 eV  509.78 nm  f=0.0000  <S**2>=0.000
     312 -> 313        0.70691

 The electronic state is 1-A.
 Alpha  occ. eigenvalues --  -46.87675 -46.87394 -19.26525 -19.26201 -19.19380
 Alpha  occ. eigenvalues --  -19.19000 -19.18709 -19.18575 -19.18128 -19.17831
 Alpha  occ. eigenvalues --  -14.42343 -14.42244 -14.41325 -14.41065 -14.39281
 Alpha  occ. eigenvalues --  -14.39099 -14.38471 -14.38330 -10.39360 -10.38924
 Alpha  occ. eigenvalues --  -10.35342 -10.35259 -10.34360 -10.34008 -10.31897
 Alpha  occ. eigenvalues --  -10.31637 -10.31313 -10.31046 -10.30836 -10.30809
 Alpha  occ. eigenvalues --  -10.30457 -10.30391 -10.30125 -10.30081 -10.30058
 Alpha  occ. eigenvalues --  -10.29829 -10.29798 -10.29587 -10.29513 -10.29182
 Alpha  occ. eigenvalues --  -10.29139 -10.29119 -10.28739 -10.28626 -10.28531
 Alpha  occ. eigenvalues --  -10.28520 -10.28273 -10.28172 -10.28066 -10.27939
 Alpha  occ. eigenvalues --  -10.27751 -10.27676 -10.27610 -10.27463 -10.27414
 Alpha  occ. eigenvalues --  -10.27334 -10.27314 -10.27306 -10.27294 -10.27276
 Alpha  occ. eigenvalues --  -10.27237 -10.27223 -10.27196 -10.27040 -10.27019
 Alpha  occ. eigenvalues --  -10.26845 -10.26772 -10.26529 -10.26353 -10.26299
 Alpha  occ. eigenvalues --  -10.26179 -10.25920 -10.25874 -10.25842 -10.25672
 Alpha  occ. eigenvalues --  -10.25591 -10.25482 -10.25351 -10.25305 -10.25154
 Alpha  occ. eigenvalues --  -10.24729 -10.24675 -10.24624 -10.24428 -10.24351
 Alpha  occ. eigenvalues --  -10.23685  -3.16416  -3.16144  -1.91298  -1.91027
 Alpha  occ. eigenvalues --   -1.90885  -1.90727  -1.90615  -1.90452  -1.16879
 Alpha  occ. eigenvalues --   -1.16492  -1.08609  -1.08441  -1.07112  -1.06936
 Alpha  occ. eigenvalues --   -1.06837  -1.06784  -1.04484  -1.04249  -1.03642
 Alpha  occ. eigenvalues --   -1.03397  -1.03114  -1.02755  -1.02294  -1.01840
 Alpha  occ. eigenvalues --   -0.91915  -0.91742  -0.89368  -0.89148  -0.89115
 Alpha  occ. eigenvalues --   -0.88927  -0.88134  -0.87805  -0.87743  -0.87575
 Alpha  occ. eigenvalues --   -0.87508  -0.87420  -0.87143  -0.86916  -0.84938
 Alpha  occ. eigenvalues --   -0.84782  -0.83789  -0.83433  -0.82835  -0.82709
 Alpha  occ. eigenvalues --   -0.82604  -0.82396  -0.81603  -0.81361  -0.80541
 Alpha  occ. eigenvalues --   -0.80208  -0.78669  -0.78392  -0.77114  -0.76900
 Alpha  occ. eigenvalues --   -0.76885  -0.76589  -0.75884  -0.75606  -0.74780
 Alpha  occ. eigenvalues --   -0.74467  -0.72654  -0.72408  -0.71587  -0.71331
 Alpha  occ. eigenvalues --   -0.69707  -0.69205  -0.68814  -0.68588  -0.67560
 Alpha  occ. eigenvalues --   -0.67360  -0.67184  -0.67016  -0.65249  -0.65051
 Alpha  occ. eigenvalues --   -0.64806  -0.64552  -0.64498  -0.64394  -0.64126
 Alpha  occ. eigenvalues --   -0.63784  -0.62343  -0.62034  -0.60313  -0.60097
 Alpha  occ. eigenvalues --   -0.59739  -0.59573  -0.58899  -0.58719  -0.58431
 Alpha  occ. eigenvalues --   -0.58155  -0.57634  -0.57338  -0.57206  -0.56937
 Alpha  occ. eigenvalues --   -0.56255  -0.56034  -0.55947  -0.55684  -0.55445
 Alpha  occ. eigenvalues --   -0.55282  -0.55259  -0.54923  -0.54510  -0.54111
 Alpha  occ. eigenvalues --   -0.53869  -0.53709  -0.53192  -0.53180  -0.52997
 Alpha  occ. eigenvalues --   -0.52939  -0.52878  -0.52668  -0.52658  -0.52507
 Alpha  occ. eigenvalues --   -0.52225  -0.51800  -0.51745  -0.51576  -0.51555
 Alpha  occ. eigenvalues --   -0.51468  -0.51120  -0.50885  -0.50427  -0.50283
 Alpha  occ. eigenvalues --   -0.49893  -0.49799  -0.49767  -0.49504  -0.49403
 Alpha  occ. eigenvalues --   -0.49279  -0.49161  -0.49047  -0.48994  -0.48857
 Alpha  occ. eigenvalues --   -0.48579  -0.48392  -0.48345  -0.48331  -0.48170
 Alpha  occ. eigenvalues --   -0.48055  -0.47616  -0.47344  -0.47204  -0.46886
 Alpha  occ. eigenvalues --   -0.46691  -0.46525  -0.46424  -0.46313  -0.46267
 Alpha  occ. eigenvalues --   -0.46075  -0.45969  -0.45796  -0.45796  -0.45564
 Alpha  occ. eigenvalues --   -0.45071  -0.44858  -0.44540  -0.44411  -0.44316
 Alpha  occ. eigenvalues --   -0.44197  -0.44074  -0.43995  -0.43939  -0.43925
 Alpha  occ. eigenvalues --   -0.43750  -0.43666  -0.43495  -0.43304  -0.43255
 Alpha  occ. eigenvalues --   -0.43129  -0.42948  -0.42817  -0.42716  -0.42638
 Alpha  occ. eigenvalues --   -0.42490  -0.42165  -0.41885  -0.41629  -0.41523
 Alpha  occ. eigenvalues --   -0.41476  -0.41406  -0.41116  -0.41058  -0.40797
 Alpha  occ. eigenvalues --   -0.40749  -0.40736  -0.40570  -0.40431  -0.40424
 Alpha  occ. eigenvalues --   -0.40237  -0.40064  -0.40010  -0.39223  -0.38821
 Alpha  occ. eigenvalues --   -0.38336  -0.37977  -0.37747  -0.37447  -0.37216
 Alpha  occ. eigenvalues --   -0.37187  -0.36983  -0.36889  -0.36868  -0.36562
 Alpha  occ. eigenvalues --   -0.36149  -0.35889  -0.34196  -0.34013  -0.33986
 Alpha  occ. eigenvalues --   -0.33682  -0.33091  -0.32905  -0.31242  -0.31133
 Alpha  occ. eigenvalues --   -0.30947  -0.30716  -0.29997  -0.29733  -0.29327
 Alpha  occ. eigenvalues --   -0.29208  -0.29096  -0.28953  -0.23978  -0.23768
 Alpha  occ. eigenvalues --   -0.21007  -0.20847
 Alpha virt. eigenvalues --   -0.08659  -0.08538  -0.01633  -0.01418   0.00042
 Alpha virt. eigenvalues --    0.00167   0.02283   0.02460   0.02887   0.03852
 Alpha virt. eigenvalues --    0.04728   0.04801   0.04975   0.05339   0.06044

 Mulliken charges:
               1
     1  Mg   0.839180
     2  C   -0.005264
     3  C   -0.093412
     4  C   -0.045726
     5  C   -0.062799
     6  N   -0.256950
     7  C   -0.053049
     8  C   -0.013859
     9  C   -0.087289
    10  C    0.046672
    11  C    0.104795
    12  C    0.050833
    13  C   -0.071603
    14  H    0.033332
    15  N   -0.433225
    16  C    0.169299
    17  C   -0.176050
    18  C   -0.003623
    19  C    0.148907
    20  C    0.109880
    21  C    0.012351
    22  O   -0.250193
    23  C    0.061908
    24  N   -0.341104
    25  C    0.041498
    26  C   -0.028048
    27  C   -0.024146
    28  C    0.074946
    29  C    0.076322
    30  C    0.034913
    31  C   -0.005074
    32  N   -0.310689
    33  C    0.080715
    34  C   -0.168635
    35  C    0.007893
    36  C    0.083452
    37  C    0.127194
    38  C    0.045426
    39  O   -0.188979
    40  C   -0.005485
    41  C    0.215107
    42  O   -0.257767
    43  O   -0.303439
    44  C    0.157471
    45  H   -0.017728
    46  H   -0.016988
    47  H   -0.040492
    48  H    0.000502
    49  H   -0.003700
    50  H    0.025259
    51  H    0.016792
    52  H    0.016639
    53  H    0.013185
    54  H    0.043826
    55  H    0.018482
    56  H    0.019276
    57  H    0.005939
    58  H    0.026138
    59  H    0.042170
    60  H    0.037360
    61  H    0.034392
    62  H    0.033179
    63  H    0.016614
    64  H    0.009205
    65  H    0.022869
    66  H    0.012151
    67  H    0.004733
    68  H    0.005835
    69  H    0.005787
    70  H    0.007390
    71  H    0.023055
    72  H    0.028565
    73  H    0.048170
    74  H    0.010457
    75  H    0.045513
    76  H    0.035566
    77  H    0.044169
    78  H    0.047097
    79  H    0.051822
    80  Mg   0.837561
    81  C   -0.017583
    82  C   -0.088253
    83  C   -0.045970
    84  C   -0.062940
    85  N   -0.254633
    86  C   -0.049807
    87  C   -0.015119
    88  C   -0.090382
    89  C    0.045490
    90  C    0.114568
    91  C    0.062598
    92  C   -0.077496
    93  H    0.033981
    94  N   -0.423194
    95  C    0.162592
    96  C   -0.175086
    97  C   -0.008522
    98  C    0.151836
    99  C    0.099445
   100  C    0.014605
   101  O   -0.255342
   102  C    0.061476
   103  N   -0.350532
   104  C    0.037918
   105  C   -0.018747
   106  C   -0.035570
   107  C    0.090146
   108  C    0.074474
   109  C    0.036313
   110  C   -0.020761
   111  N   -0.324440
   112  C    0.079252
   113  C   -0.161224
   114  C    0.001772
   115  C    0.096737
   116  C    0.130892
   117  C    0.042483
   118  O   -0.188103
   119  C    0.000879
   120  C    0.211276
   121  O   -0.251463
   122  O   -0.305597
   123  C    0.152299
   124  H   -0.020570
   125  H   -0.017000
   126  H   -0.037002
   127  H   -0.001053
   128  H   -0.004805
   129  H    0.022149
   130  H    0.014351
   131  H    0.015610
   132  H    0.014130
   133  H    0.037344
   134  H    0.020603
   135  H    0.019484
   136  H    0.008462
   137  H    0.025050
   138  H    0.039294
   139  H    0.038439
   140  H    0.033481
   141  H    0.034174
   142  H    0.013210
   143  H    0.010891
   144  H    0.022751
   145  H    0.010588
   146  H    0.005126
   147  H    0.001790
   148  H    0.011145
   149  H    0.002989
   150  H    0.043491
   151  H    0.023589
   152  H    0.046889
   153  H    0.012419
   154  H    0.045792
   155  H    0.034539
   156  H    0.043627
   157  H    0.049288
   158  H    0.052990
 Sum of Mulliken charges =  -0.00000

 Dipole moment (field-independent basis, Debye):
    X=              0.5661    Y=              6.6276    Z=             -2.2628  Tot=              7.0261
 Quadrupole moment (field-independent basis, Debye-Ang):
   XX=           -453.5987   YY=           -538.4738   ZZ=           -482.2907
   XY=            -18.2024   XZ=            -20.6911   YZ=              6.5971

 Normal termination of Gaussian 16 at Thu Sep  9 15:52:37 2021.
