 Gaussian 16, Revision A.03,
 Gaussian 16:  ES64L-G16RevA.03 25-Dec-2016

 -----------------------------------
 #p cam-b3lyp/Def2SVP td=(nstates=5)
 -----------------------------------

 --------------------------------
 TDDFT excited states in gaussian
 --------------------------------
 Symbolic Z-matrix:
 Charge =  0 Multiplicity = 1

                         Standard orientation:
 ---------------------------------------------------------------------
 Center     Atomic      Atomic             Coordinates (Angstroms)
 Number     Number       Type             X           Y           Z
 ---------------------------------------------------------------------
      1         12           0        5.338642   -0.571807    0.902328
      2          6           0        5.856472    2.324438   -1.136257
      3          6           0        5.726099    1.454991    3.619869
      4          6           0        5.337736   -3.177471    2.709851
      5          6           0        6.117152   -2.498526   -1.895410
      6          7           0        5.734992    1.598124    1.089281
      7          6           0        5.852833    2.606868    0.231539
      8          6           0        5.896346    4.002924    0.921834
      9          6           0        6.417163    3.556035    2.360945
     10          6           0        5.898900    2.128748    2.374388
     11          6           0        7.937779    3.527552    2.476782
     12          6           0        4.481754    4.668950    1.005902
     13          6           0        4.480802    6.157710    1.364995
     14          1           0        3.481986    7.024008    0.757341
     15          7           0        5.025306   -0.786063    2.841082
     16          6           0        5.220078    0.149643    3.801188
     17          6           0        4.845471   -0.493426    5.079004
     18          6           0        4.598357   -1.936664    4.806808
     19          6           0        5.007981   -2.031013    3.428881
     20          6           0        4.706800    0.256764    6.368088
     21          6           0        4.085837   -3.055787    5.657113
     22          8           0        4.167178   -4.278725    5.293274
     23          6           0        3.559397   -2.685283    6.983247
     24          7           0        5.890151   -2.552120    0.539237
     25          6           0        5.735605   -3.494302    1.475929
     26          6           0        5.927051   -4.868199    0.905233
     27          6           0        6.006425   -4.681844   -0.678662
     28          6           0        5.923648   -3.136597   -0.738911
     29          6           0        7.168352   -5.628301    1.392497
     30          6           0        5.013405   -5.507600   -1.534500
     31          6           0        3.601112   -5.024819   -1.290680
     32          7           0        5.718652   -0.196855   -1.201489
     33          6           0        6.045147   -1.145425   -2.181433
     34          6           0        6.315893   -0.404179   -3.426952
     35          6           0        6.143134    0.933966   -3.078578
     36          6           0        5.812712    1.024651   -1.696228
     37          6           0        6.726927   -0.974881   -4.663797
     38          6           0        6.184933    2.309835   -3.546654
     39          8           0        6.318075    2.847866   -4.646786
     40          6           0        6.120546    3.272316   -2.279645
     41          6           0        5.092217    4.332439   -2.565980
     42          8           0        3.883044    4.040401   -2.665881
     43          8           0        5.655973    5.543742   -2.441615
     44          6           0        4.682020    6.641407   -2.683897
     45          1           0        6.062233    1.944649    4.535943
     46          1           0        5.241645   -4.109931    3.269961
     47          1           0        6.283309   -3.038022   -2.829641
     48          1           0        6.596558    4.709122    0.475278
     49          1           0        5.953543    4.135060    3.159386
     50          1           0        8.414119    3.694865    1.510849
     51          1           0        8.182325    2.534746    2.854970
     52          1           0        8.281653    4.230485    3.236000
     53          1           0        3.947235    4.269842    1.867913
     54          1           0        3.930244    4.521874    0.076638
     55          1           0        5.475623    6.592601    1.264448
     56          1           0        4.249468    6.252994    2.425941
     57          1           0        5.112610    1.264659    6.290563
     58          1           0        5.348730   -0.239286    7.095802
     59          1           0        3.678503    0.264445    6.729860
     60          1           0        4.342590   -2.187008    7.554981
     61          1           0        3.155970   -3.601339    7.413290
     62          1           0        2.761206   -1.953670    6.854474
     63          1           0        5.083334   -5.513205    1.147173
     64          1           0        6.986126   -4.951724   -1.073662
     65          1           0        6.940874   -6.593468    1.845721
     66          1           0        7.704925   -4.985558    2.089822
     67          1           0        7.927000   -5.801411    0.629671
     68          1           0        5.047458   -6.557907   -1.247026
     69          1           0        5.215664   -5.449773   -2.604078
     70          1           0        3.313087   -5.561125   -0.387214
     71          1           0        2.956693   -5.295686   -2.127678
     72          1           0        3.578950   -3.959883   -1.058502
     73          1           0        6.145237   -0.475395   -5.438472
     74          1           0        6.561980   -2.052015   -4.677117
     75          1           0        7.785247   -0.714472   -4.664540
     76          1           0        7.117903    3.692661   -2.154300
     77          1           0        5.094706    7.267955   -3.474695
     78          1           0        4.492717    7.106852   -1.716461
     79          1           0        3.729044    6.351053   -3.127596
     80         12           0       -5.080386   -0.714984   -0.904426
     81          6           0       -7.048652    1.567732    1.043448
     82          6           0       -4.183858    1.945268   -2.841917
     83          6           0       -3.703442   -2.760318   -2.901436
     84          6           0       -6.994512   -3.297188    0.442444
     85          7           0       -5.612307    1.429891   -0.810454
     86          6           0       -6.319205    2.192154    0.010272
     87          6           0       -6.175835    3.716704   -0.244191
     88          6           0       -5.742824    3.662859   -1.789663
     89          6           0       -5.106361    2.274753   -1.816959
     90          6           0       -6.923828    3.665686   -2.745999
     91          6           0       -5.057816    4.368278    0.643212
     92          6           0       -5.071390    5.898183    0.674080
     93          1           0       -4.704665    6.572569    1.916328
     94          7           0       -3.712439   -0.413667   -2.310303
     95          6           0       -3.468906    0.734802   -2.975877
     96          6           0       -2.381002    0.430709   -3.918289
     97          6           0       -2.114298   -1.032608   -3.870483
     98          6           0       -3.204248   -1.471620   -3.022333
     99          6           0       -1.654050    1.492158   -4.691791
    100          6           0       -1.061057   -1.895880   -4.496285
    101          8           0       -1.160111   -3.173673   -4.512898
    102          6           0        0.043036   -1.197881   -5.170993
    103          7           0       -5.448256   -2.711280   -1.353674
    104          6           0       -4.668004   -3.379876   -2.220914
    105          6           0       -4.949678   -4.862811   -2.176801
    106          6           0       -5.915728   -5.079449   -0.920852
    107          6           0       -6.105347   -3.608256   -0.490719
    108          6           0       -5.600650   -5.453772   -3.427154
    109          6           0       -5.459387   -6.109287    0.148663
    110          6           0       -4.227448   -5.600791    0.862203
    111          7           0       -6.598567   -0.892326    0.622578
    112          6           0       -7.286499   -2.063272    1.009525
    113          6           0       -8.303277   -1.662492    2.003488
    114          6           0       -8.150559   -0.271848    2.109624
    115          6           0       -7.125572    0.166039    1.228055
    116          6           0       -9.238096   -2.531278    2.633914
    117          6           0       -8.630573    0.926664    2.759128
    118          8           0       -9.428677    1.163600    3.665005
    119          6           0       -8.024520    2.187600    2.004730
    120          6           0       -7.482252    3.132803    3.041581
    121          8           0       -6.513655    2.805995    3.749837
    122          8           0       -8.052556    4.340461    2.878165
    123          6           0       -7.538461    5.315449    3.876623
    124          1           0       -4.021666    2.664836   -3.644916
    125          1           0       -3.186886   -3.523081   -3.488671
    126          1           0       -7.564776   -4.056592    0.981696
    127          1           0       -7.092446    4.283742   -0.134410
    128          1           0       -5.003655    4.425832   -2.019569
    129          1           0       -7.865416    3.583927   -2.223643
    130          1           0       -6.777149    2.813865   -3.397092
    131          1           0       -6.884557    4.548248   -3.390889
    132          1           0       -4.081603    4.198536    0.171040
    133          1           0       -5.095513    3.986285    1.644854
    134          1           0       -6.006022    6.310241    0.274551
    135          1           0       -4.302453    6.265902   -0.009685
    136          1           0       -2.179750    2.453930   -4.646712
    137          1           0       -1.700620    1.206413   -5.748230
    138          1           0       -0.606709    1.585542   -4.396782
    139          1           0       -0.358102   -0.562604   -5.957109
    140          1           0        0.739945   -1.980524   -5.477019
    141          1           0        0.530967   -0.534279   -4.448372
    142          1           0       -4.037475   -5.425205   -2.019626
    143          1           0       -6.905975   -5.447421   -1.227184
    144          1           0       -5.017373   -6.281326   -3.873259
    145          1           0       -5.743106   -4.658128   -4.146307
    146          1           0       -6.614924   -5.824230   -3.288551
    147          1           0       -5.175328   -7.050353   -0.328692
    148          1           0       -6.225289   -6.338508    0.882030
    149          1           0       -3.415446   -5.886986    0.187047
    150          1           0       -4.121406   -6.080946    1.832896
    151          1           0       -4.233026   -4.506452    0.925800
    152          1           0       -9.262403   -2.256164    3.679965
    153          1           0       -8.961469   -3.575360    2.502956
    154          1           0      -10.146005   -2.274785    2.081489
    155          1           0       -8.828409    2.637679    1.420973
    156          1           0       -8.407576    5.722280    4.402750
    157          1           0       -6.916487    6.029206    3.304381
    158          1           0       -6.954400    4.926335    4.702410
 ---------------------------------------------------------------------

 SCF Done:  E(RCAM-B3LYP) =  -4069.81282041     A.U. after   18 cycles

 Excitation energies and oscillator strengths:

 Excited State   1:      Singlet-A      1.6555 eV  748.91 nm  f=0.0823  <S**2>=0.000
     309 -> 315       -0.11611
     310 -> 316       -0.12328
     311 -> 313        0.46996
     312 -> 314        0.50141
 This state for optimization and/or second-order correction.
 Total Energy, E(TD-HF/TD-DFT) =  -4069.75198117
 Copying the excited state density for this state as the 1-particle RhoCI density.

 Excited State   2:      Singlet-A      1.6979 eV  730.24 nm  f=0.6543  <S**2>=0.000
     309 -> 315       -0.13163
     310 -> 316        0.12258
     311 -> 313        0.49948
     312 -> 314       -0.46835

 Excited State   3:      Singlet-A      2.1869 eV  566.93 nm  f=0.0115  <S**2>=0.000
     309 -> 313       -0.34171
     310 -> 314        0.54499
     311 -> 315       -0.14437
     312 -> 316        0.23132

 Excited State   4:      Singlet-A      2.1958 eV  564.64 nm  f=0.1703  <S**2>=0.000
     309 -> 313        0.54228
     310 -> 314        0.33908
     311 -> 315        0.23785
     312 -> 316        0.14875

 Excited State   5:      Singlet-A      2.5120 eV  493.56 nm  f=0.0000  <S**2>=0.000
     312 -> 313        0.70698

 The electronic state is 1-A.
 Alpha  occ. eigenvalues --  -46.87817 -46.87458 -19.26500 -19.26266 -19.19254
 Alpha  occ. eigenvalues --  -19.19065 -19.18785 -19.18432 -19.18273 -19.17878
 Alpha  occ. eigenvalues --  -14.42477 -14.42297 -14.41454 -14.41161 -14.39417
 Alpha  occ. eigenvalues --  -14.39136 -14.38625 -14.38400 -10.39295 -10.38989
 Alpha  occ. eigenvalues --  -10.35414 -10.35094 -10.34497 -10.34061 -10.31917
 Alpha  occ. eigenvalues --  -10.31707 -10.31453 -10.31122 -10.30940 -10.30805
 Alpha  occ. eigenvalues --  -10.30609 -10.30531 -10.30202 -10.30180 -10.30155
 Alpha  occ. eigenvalues --  -10.29932 -10.29920 -10.29725 -10.29655 -10.29260
 Alpha  occ. eigenvalues --  -10.29199 -10.29167 -10.28815 -10.28650 -10.28553
 Alpha  occ. eigenvalues --  -10.28549 -10.28403 -10.28187 -10.28167 -10.27961
 Alpha  occ. eigenvalues --  -10.27829 -10.27779 -10.27748 -10.27598 -10.27452
 Alpha  occ. eigenvalues --  -10.27448 -10.27446 -10.27422 -10.27395 -10.27351
 Alpha  occ. eigenvalues --  -10.27287 -10.27274 -10.27222 -10.27213 -10.26965
 Alpha  occ. eigenvalues --  -10.26898 -10.26801 -10.26548 -10.26331 -10.26277
 Alpha  occ. eigenvalues --  -10.26022 -10.26015 -10.25987 -10.25961 -10.25905
 Alpha  occ. eigenvalues --  -10.25859 -10.25732 -10.25691 -10.25391 -10.25263
 Alpha  occ. eigenvalues --  -10.24885 -10.24799 -10.24664 -10.24576 -10.24497
 Alpha  occ. eigenvalues --  -10.24432  -3.16560  -3.16208  -1.91442  -1.91090
 Alpha  occ. eigenvalues --   -1.91028  -1.90870  -1.90679  -1.90515  -1.16849
 Alpha  occ. eigenvalues --   -1.16556  -1.08746  -1.08497  -1.07183  -1.06869
 Alpha  occ. eigenvalues --   -1.06848  -1.06687  -1.04613  -1.04293  -1.03771
 Alpha  occ. eigenvalues --   -1.03460  -1.03256  -1.02835  -1.02433  -1.01907
 Alpha  occ. eigenvalues --   -0.92031  -0.91799  -0.89485  -0.89310  -0.89241
 Alpha  occ. eigenvalues --   -0.88978  -0.88246  -0.88047  -0.87917  -0.87698
 Alpha  occ. eigenvalues --   -0.87602  -0.87483  -0.87264  -0.86792  -0.85029
 Alpha  occ. eigenvalues --   -0.84818  -0.83889  -0.83712  -0.82920  -0.82683
 Alpha  occ. eigenvalues --   -0.82651  -0.82402  -0.81687  -0.81448  -0.80645
 Alpha  occ. eigenvalues --   -0.80253  -0.78805  -0.78361  -0.77228  -0.76985
 Alpha  occ. eigenvalues --   -0.76937  -0.76744  -0.75985  -0.75653  -0.74883
 Alpha  occ. eigenvalues --   -0.74629  -0.72795  -0.72494  -0.71700  -0.71398
 Alpha  occ. eigenvalues --   -0.69810  -0.69589  -0.68911  -0.68634  -0.67674
 Alpha  occ. eigenvalues --   -0.67402  -0.67262  -0.66984  -0.65344  -0.65098
 Alpha  occ. eigenvalues --   -0.64907  -0.64652  -0.64588  -0.64481  -0.64238
 Alpha  occ. eigenvalues --   -0.64027  -0.62407  -0.62139  -0.60430  -0.60068
 Alpha  occ. eigenvalues --   -0.59851  -0.59608  -0.59017  -0.58805  -0.58540
 Alpha  occ. eigenvalues --   -0.58236  -0.57703  -0.57403  -0.57316  -0.57026
 Alpha  occ. eigenvalues --   -0.56355  -0.56103  -0.55991  -0.55733  -0.55540
 Alpha  occ. eigenvalues --   -0.55360  -0.55217  -0.55086  -0.54563  -0.54343
 Alpha  occ. eigenvalues --   -0.53953  -0.53738  -0.53311  -0.53260  -0.53027
 Alpha  occ. eigenvalues --   -0.52988  -0.52922  -0.52753  -0.52724  -0.52337
 Alpha  occ. eigenvalues --   -0.52326  -0.52233  -0.51976  -0.51712  -0.51665
 Alpha  occ. eigenvalues --   -0.51438  -0.51234  -0.51025  -0.50526  -0.50119
 Alpha  occ. eigenvalues --   -0.49986  -0.49901  -0.49720  -0.49655  -0.49547
 Alpha  occ. eigenvalues --   -0.49265  -0.49245  -0.49152  -0.48971  -0.48931
 Alpha  occ. eigenvalues --   -0.48675  -0.48484  -0.48433  -0.48384  -0.48213
 Alpha  occ. eigenvalues --   -0.48059  -0.47711  -0.47371  -0.47311  -0.46870
 Alpha  occ. eigenvalues --   -0.46806  -0.46611  -0.46523  -0.46386  -0.46363
 Alpha  occ. eigenvalues --   -0.46192  -0.46053  -0.45911  -0.45911  -0.45673
 Alpha  occ. eigenvalues --   -0.45171  -0.45033  -0.44652  -0.44501  -0.44344
 Alpha  occ. eigenvalues --   -0.44284  -0.44177  -0.44090  -0.44043  -0.43944
 Alpha  occ. eigenvalues --   -0.43879  -0.43658  -0.43585  -0.43414  -0.43404
 Alpha  occ. eigenvalues --   -0.43205  -0.43060  -0.42858  -0.42796  -0.42719
 Alpha  occ. eigenvalues --   -0.42594  -0.42351  -0.41985  -0.41796  -0.41741
 Alpha  occ. eigenvalues --   -0.41568  -0.41488  -0.41283  -0.41170  -0.40888
 Alpha  occ. eigenvalues --   -0.40807  -0.40806  -0.40538  -0.40529  -0.40450
 Alpha  occ. eigenvalues --   -0.40327  -0.40295  -0.40033  -0.39323  -0.39259
 Alpha  occ. eigenvalues --   -0.38439  -0.38185  -0.37815  -0.37498  -0.37320
 Alpha  occ. eigenvalues --   -0.37300  -0.37085  -0.37006  -0.36862  -0.36660
 Alpha  occ. eigenvalues --   -0.36236  -0.36056  -0.34317  -0.34060  -0.33971
 Alpha  occ. eigenvalues --   -0.33746  -0.33220  -0.32975  -0.31318  -0.31061
 Alpha  occ. eigenvalues --   -0.31002  -0.30771  -0.30138  -0.29790  -0.29473
 Alpha  occ. eigenvalues --   -0.29363  -0.29089  -0.28994  -0.24107  -0.23838
 Alpha  occ. eigenvalues --   -0.21148  -0.20905
 Alpha virt. eigenvalues --   -0.08797  -0.08569  -0.01758  -0.01478  -0.00071
 Alpha virt. eigenvalues --    0.00225   0.02144   0.02396   0.03074   0.03436
 Alpha virt. eigenvalues --    0.04678   0.04904   0.04906   0.05277   0.06090

 Mulliken charges:
               1
     1  Mg   0.838749
     2  C   -0.003882
     3  C   -0.093989
     4  C   -0.045403
     5  C   -0.063339
     6  N   -0.256913
     7  C   -0.052719
     8  C   -0.014057
     9  C   -0.087099
    10  C    0.046510
    11  C    0.104758
    12  C    0.053431
    13  C   -0.071522
    14  H    0.034570
    15  N   -0.433303
    16  C    0.168899
    17  C   -0.176604
    18  C   -0.003411
    19  C    0.149001
    20  C    0.110016
    21  C    0.012865
    22  O   -0.249158
    23  C    0.062125
    24  N   -0.341302
    25  C    0.041696
    26  C   -0.028214
    27  C   -0.023957
    28  C    0.075066
    29  C    0.076168
    30  C    0.034878
    31  C   -0.005335
    32  N   -0.309926
    33  C    0.079505
    34  C   -0.171043
    35  C    0.007284
    36  C    0.081690
    37  C    0.127650
    38  C    0.044300
    39  O   -0.189936
    40  C   -0.004750
    41  C    0.213107
    42  O   -0.260066
    43  O   -0.304037
    44  C    0.158242
    45  H   -0.017347
    46  H   -0.016298
    47  H   -0.041039
    48  H    0.000639
    49  H   -0.003768
    50  H    0.025367
    51  H    0.016725
    52  H    0.016843
    53  H    0.011984
    54  H    0.042650
    55  H    0.018056
    56  H    0.018713
    57  H    0.005925
    58  H    0.027067
    59  H    0.040996
    60  H    0.037222
    61  H    0.036196
    62  H    0.032729
    63  H    0.017257
    64  H    0.009183
    65  H    0.023420
    66  H    0.012238
    67  H    0.004805
    68  H    0.006262
    69  H    0.004931
    70  H    0.008192
    71  H    0.023997
    72  H    0.027673
    73  H    0.045781
    74  H    0.009942
    75  H    0.046118
    76  H    0.035403
    77  H    0.043053
    78  H    0.046950
    79  H    0.051569
    80  Mg   0.837295
    81  C   -0.016967
    82  C   -0.086324
    83  C   -0.045757
    84  C   -0.065025
    85  N   -0.254500
    86  C   -0.050543
    87  C   -0.015064
    88  C   -0.090591
    89  C    0.045565
    90  C    0.114381
    91  C    0.062244
    92  C   -0.077371
    93  H    0.033037
    94  N   -0.423745
    95  C    0.163122
    96  C   -0.172895
    97  C   -0.007508
    98  C    0.152127
    99  C    0.097865
   100  C    0.015238
   101  O   -0.255274
   102  C    0.060591
   103  N   -0.350049
   104  C    0.037851
   105  C   -0.019801
   106  C   -0.034548
   107  C    0.088470
   108  C    0.073867
   109  C    0.034898
   110  C   -0.007476
   111  N   -0.323826
   112  C    0.077679
   113  C   -0.163851
   114  C    0.001839
   115  C    0.095594
   116  C    0.131655
   117  C    0.041734
   118  O   -0.189190
   119  C    0.001015
   120  C    0.211245
   121  O   -0.251677
   122  O   -0.305501
   123  C    0.152345
   124  H   -0.018933
   125  H   -0.016044
   126  H   -0.041136
   127  H   -0.001222
   128  H   -0.003741
   129  H    0.022093
   130  H    0.014563
   131  H    0.016192
   132  H    0.015002
   133  H    0.036964
   134  H    0.020584
   135  H    0.020015
   136  H    0.008711
   137  H    0.025695
   138  H    0.049819
   139  H    0.039034
   140  H    0.034165
   141  H    0.040655
   142  H    0.013990
   143  H    0.011923
   144  H    0.024580
   145  H    0.011730
   146  H    0.005383
   147  H    0.005664
   148  H    0.003296
   149  H    0.010720
   150  H    0.017856
   151  H    0.030291
   152  H    0.045198
   153  H    0.008089
   154  H    0.046371
   155  H    0.034648
   156  H    0.043492
   157  H    0.049371
   158  H    0.052823
 Sum of Mulliken charges =  -0.00000

 Dipole moment (field-independent basis, Debye):
    X=              2.7718    Y=              3.0589    Z=              0.5201  Tot=              4.1605
 Quadrupole moment (field-independent basis, Debye-Ang):
   XX=           -523.4679   YY=           -463.0190   ZZ=           -522.9274
   XY=              6.2206   XZ=             53.3228   YZ=             16.7309

 Normal termination of Gaussian 16 at Fri Sep 10 11:24:06 2021.
