 Gaussian 16, Revision A.03,
 Gaussian 16:  ES64L-G16RevA.03 25-Dec-2016

 -----------------------------------
 #p cam-b3lyp/Def2SVP td=(nstates=5)
 -----------------------------------

 --------------------------------
 TDDFT excited states in gaussian
 --------------------------------
 Symbolic Z-matrix:
 Charge =  0 Multiplicity = 1

                         Standard orientation:
 ---------------------------------------------------------------------
 Center     Atomic      Atomic             Coordinates (Angstroms)
 Number     Number       Type             X           Y           Z
 ---------------------------------------------------------------------
      1         12           0       -7.842219    0.646163    0.437611
      2          6           0       -8.197814   -2.113965   -1.813490
      3          6           0       -8.561701   -1.521214    2.972939
      4          6           0       -7.981619    3.143445    2.387169
      5          6           0       -8.275141    2.749744   -2.307054
      6          7           0       -8.301345   -1.519397    0.451698
      7          6           0       -8.347169   -2.473991   -0.472327
      8          6           0       -8.493648   -3.905482    0.124961
      9          6           0       -9.156830   -3.527543    1.524729
     10          6           0       -8.613498   -2.117876    1.678202
     11          6           0      -10.680163   -3.464638    1.479988
     12          6           0       -7.110437   -4.613201    0.318847
     13          6           0       -7.179022   -6.119509    0.586589
     14          1           0       -6.138849   -6.976389    0.037821
     15          7           0       -7.734835    0.740877    2.407979
     16          6           0       -8.051123   -0.242492    3.284467
     17          6           0       -7.802849    0.316244    4.630890
     18          6           0       -7.497982    1.765459    4.473017
     19          6           0       -7.754985    1.949329    3.067485
     20          6           0       -7.819230   -0.509766    5.880366
     21          6           0       -7.056761    2.819972    5.438138
     22          8           0       -7.073091    4.063432    5.141300
     23          6           0       -6.683809    2.360297    6.788194
     24          7           0       -8.310243    2.658149    0.136771
     25          6           0       -8.237806    3.540816    1.139086
     26          6           0       -8.338196    4.949715    0.634245
     27          6           0       -8.250612    4.856271   -0.957405
     28          6           0       -8.193936    3.315310   -1.100568
     29          6           0       -9.608653    5.714034    1.031446
     30          6           0       -7.154376    5.702390   -1.652221
     31          6           0       -5.786828    5.168495   -1.289088
     32          7           0       -8.001460    0.402295   -1.713253
     33          6           0       -8.200902    1.413722   -2.663996
     34          6           0       -8.351451    0.752354   -3.973193
     35          6           0       -8.244983   -0.607671   -3.688871
     36          6           0       -8.067106   -0.785996   -2.287139
     37          6           0       -8.615138    1.403612   -5.210435
     38          6           0       -8.264754   -1.952951   -4.239950
     39          8           0       -8.289946   -2.423525   -5.378115
     40          6           0       -8.357007   -2.987561   -3.032929
     41          6           0       -7.326080   -4.057014   -3.271195
     42          8           0       -6.107375   -3.792531   -3.224582
     43          8           0       -7.924969   -5.257763   -3.279833
     44          6           0       -6.953610   -6.365729   -3.482384
     45          1           0       -9.004503   -2.053093    3.817316
     46          1           0       -7.926987    4.039481    3.008918
     47          1           0       -8.328620    3.345971   -3.219801
     48          1           0       -9.156281   -4.565864   -0.434714
     49          1           0       -8.793895   -4.163508    2.331915
     50          1           0      -11.053224   -3.563619    0.460699
     51          1           0      -10.943299   -2.488789    1.888608
     52          1           0      -11.118218   -4.200206    2.155136
     53          1           0       -6.663559   -4.278529    1.254985
     54          1           0       -6.459249   -4.428287   -0.536189
     55          1           0       -8.166073   -6.520912    0.355254
     56          1           0       -7.065165   -6.281404    1.658516
     57          1           0       -8.235188   -1.500259    5.700236
     58          1           0       -8.525266   -0.038891    6.564106
     59          1           0       -6.836190   -0.565864    6.348144
     60          1           0       -7.534126    1.851551    7.242823
     61          1           0       -6.310041    3.239082    7.312489
     62          1           0       -5.891761    1.615925    6.701478
     63          1           0       -7.512185    5.556828    1.002411
     64          1           0       -9.176332    5.174629   -1.437368
     65          1           0       -9.411248    6.645261    1.563002
     66          1           0      -10.230339    5.047275    1.628295
     67          1           0      -10.277099    5.950834    0.204087
     68          1           0       -7.197335    6.735115   -1.307868
     69          1           0       -7.241585    5.711186   -2.738761
     70          1           0       -5.586570    5.644386   -0.329788
     71          1           0       -5.050643    5.469177   -2.035301
     72          1           0       -5.811881    4.091835   -1.119792
     73          1           0       -7.964003    0.933616   -5.947385
     74          1           0       -8.427388    2.474900   -5.141912
     75          1           0       -9.672418    1.172363   -5.339043
     76          1           0       -9.370571   -3.387270   -3.039455
     77          1           0       -7.291770   -6.934743   -4.348470
     78          1           0       -6.879158   -6.890572   -2.529808
     79          1           0       -5.952619   -6.076383   -3.804308
     80         12           0        8.007834    0.604905   -0.576777
     81          6           0        7.920641   -2.387972    1.401642
     82          6           0        7.317837    2.335349    2.280502
     83          6           0        7.632346    3.202987   -2.359032
     84          6           0        7.553348   -1.405475   -3.387031
     85          7           0        7.683805   -0.053186    1.509888
     86          6           0        7.736087   -1.209316    2.154067
     87          6           0        7.662161   -1.088244    3.699846
     88          6           0        6.910808    0.327877    3.794465
     89          6           0        7.355335    0.929871    2.463060
     90          6           0        5.395983    0.207441    3.782145
     91          6           0        9.082808   -1.030204    4.363471
     92          6           0        9.091822   -1.222867    5.881555
     93          1           0       10.212656   -1.937772    6.485783
     94          7           0        8.029538    2.523717   -0.070551
     95          6           0        7.745437    3.049288    1.139548
     96          6           0        7.884620    4.505969    0.988235
     97          6           0        8.113129    4.808368   -0.450880
     98          6           0        7.908662    3.496485   -1.031605
     99          6           0        7.876529    5.449758    2.155546
    100          6           0        8.446301    6.072008   -1.184647
    101          8           0        8.365103    6.150663   -2.461379
    102          6           0        8.780139    7.241336   -0.358379
    103          7           0        7.434819    0.886780   -2.555295
    104          6           0        7.403488    2.116832   -3.097425
    105          6           0        7.232153    2.048185   -4.596198
    106          6           0        7.398185    0.503920   -4.977308
    107          6           0        7.554922   -0.090927   -3.560631
    108          6           0        5.899660    2.565372   -5.137820
    109          6           0        8.467584    0.154348   -6.048226
    110          6           0        9.851166    0.430820   -5.505414
    111          7           0        7.960571   -1.517195   -0.979906
    112          6           0        7.730675   -2.144149   -2.224148
    113          6           0        7.678407   -3.599411   -1.975326
    114          6           0        7.860007   -3.717685   -0.589137
    115          6           0        7.994365   -2.426111   -0.011816
    116          6           0        7.436970   -4.602842   -2.955615
    117          6           0        7.957969   -4.640890    0.518470
    118          8           0        8.003676   -5.865570    0.627120
    119          6           0        7.875135   -3.814716    1.873814
    120          6           0        8.981161   -4.289844    2.775751
    121          8           0       10.171612   -4.102073    2.468893
    122          8           0        8.453409   -4.690070    3.946937
    123          6           0        9.512510   -5.159969    4.879305
    124          1           0        6.880761    2.949393    3.068421
    125          1           0        7.603090    4.060474   -3.035297
    126          1           0        7.513026   -2.104883   -4.224810
    127          1           0        7.072799   -1.855204    4.187907
    128          1           0        7.286698    0.919737    4.624981
    129          1           0        5.073901   -0.805634    3.592137
    130          1           0        5.054850    0.866853    2.994842
    131          1           0        4.978562    0.606139    4.711196
    132          1           0        9.464957   -0.003094    4.302163
    133          1           0        9.746455   -1.737627    3.905495
    134          1           0        8.138624   -1.618808    6.252461
    135          1           0        9.177105   -0.241908    6.355345
    136          1           0        7.525180    4.955743    3.069821
    137          1           0        7.115124    6.209237    1.947413
    138          1           0        8.838555    5.945038    2.303426
    139          1           0        7.946675    7.466046    0.302925
    140          1           0        9.075398    8.021850   -1.062279
    141          1           0        9.630657    6.985064    0.283155
    142          1           0        8.002306    2.619258   -5.100042
    143          1           0        6.470150    0.084823   -5.393198
    144          1           0        6.016103    3.373697   -5.884223
    145          1           0        5.299526    2.902212   -4.303002
    146          1           0        5.260882    1.809447   -5.591415
    147          1           0        8.345888    0.792100   -6.927213
    148          1           0        8.418471   -0.874858   -6.387797
    149          1           0        9.974623    1.503934   -5.679362
    150          1           0       10.597786   -0.145471   -6.048092
    151          1           0        9.889225    0.265925   -4.422354
    152          1           0        8.139881   -5.402284   -2.762495
    153          1           0        7.548792   -4.208947   -3.963640
    154          1           0        6.397988   -4.853909   -2.725923
    155          1           0        6.889628   -3.992324    2.306031
    156          1           0        9.244770   -6.177531    5.180229
    157          1           0        9.567624   -4.396536    5.677988
    158          1           0       10.505456   -5.313844    4.473303
 ---------------------------------------------------------------------

 SCF Done:  E(RCAM-B3LYP) =  -4069.81180878     A.U. after   19 cycles

 Excitation energies and oscillator strengths:

 Excited State   1:      Singlet-A      1.6742 eV  740.56 nm  f=0.3021  <S**2>=0.000
     310 -> 316        0.15897
     311 -> 313       -0.27304
     312 -> 314        0.62939
 This state for optimization and/or second-order correction.
 Total Energy, E(TD-HF/TD-DFT) =  -4069.75028321
 Copying the excited state density for this state as the 1-particle RhoCI density.

 Excited State   2:      Singlet-A      1.6804 eV  737.82 nm  f=0.4469  <S**2>=0.000
     309 -> 315        0.16100
     311 -> 313        0.62899
     312 -> 314        0.27297

 Excited State   3:      Singlet-A      2.1859 eV  567.21 nm  f=0.0993  <S**2>=0.000
     310 -> 314        0.64191
     312 -> 316       -0.27282

 Excited State   4:      Singlet-A      2.1921 eV  565.59 nm  f=0.1001  <S**2>=0.000
     309 -> 313        0.64016
     311 -> 315       -0.27769

 Excited State   5:      Singlet-A      2.7657 eV  448.30 nm  f=0.0000  <S**2>=0.000
     312 -> 313        0.70710

 The electronic state is 1-A.
 Alpha  occ. eigenvalues --  -46.87835 -46.87592 -19.26325 -19.26291 -19.19128
 Alpha  occ. eigenvalues --  -19.19033 -19.18874 -19.18652 -19.18200 -19.17997
 Alpha  occ. eigenvalues --  -14.42485 -14.42433 -14.41488 -14.41287 -14.39443
 Alpha  occ. eigenvalues --  -14.39285 -14.38624 -14.38532 -10.39093 -10.39056
 Alpha  occ. eigenvalues --  -10.35509 -10.35330 -10.34419 -10.34175 -10.31744
 Alpha  occ. eigenvalues --  -10.31674 -10.31435 -10.31247 -10.30964 -10.30943
 Alpha  occ. eigenvalues --  -10.30605 -10.30547 -10.30329 -10.30295 -10.30249
 Alpha  occ. eigenvalues --  -10.30065 -10.29959 -10.29819 -10.29671 -10.29367
 Alpha  occ. eigenvalues --  -10.29335 -10.29296 -10.28768 -10.28676 -10.28636
 Alpha  occ. eigenvalues --  -10.28534 -10.28402 -10.28342 -10.28138 -10.28093
 Alpha  occ. eigenvalues --  -10.27935 -10.27831 -10.27762 -10.27627 -10.27605
 Alpha  occ. eigenvalues --  -10.27543 -10.27529 -10.27493 -10.27438 -10.27426
 Alpha  occ. eigenvalues --  -10.27421 -10.27408 -10.27401 -10.27286 -10.27182
 Alpha  occ. eigenvalues --  -10.27002 -10.26715 -10.26660 -10.26485 -10.26360
 Alpha  occ. eigenvalues --  -10.26254 -10.26228 -10.26058 -10.26051 -10.25978
 Alpha  occ. eigenvalues --  -10.25876 -10.25860 -10.25772 -10.25477 -10.25288
 Alpha  occ. eigenvalues --  -10.24869 -10.24828 -10.24807 -10.24736 -10.24655
 Alpha  occ. eigenvalues --  -10.24620  -3.16578  -3.16342  -1.91459  -1.91225
 Alpha  occ. eigenvalues --   -1.91046  -1.90888  -1.90813  -1.90650  -1.16641
 Alpha  occ. eigenvalues --   -1.16617  -1.08655  -1.08606  -1.07276  -1.06913
 Alpha  occ. eigenvalues --   -1.06905  -1.06655  -1.04615  -1.04432  -1.03798
 Alpha  occ. eigenvalues --   -1.03596  -1.03273  -1.02968  -1.02449  -1.02043
 Alpha  occ. eigenvalues --   -0.92005  -0.91926  -0.89560  -0.89420  -0.89210
 Alpha  occ. eigenvalues --   -0.89103  -0.88327  -0.88140  -0.87906  -0.87724
 Alpha  occ. eigenvalues --   -0.87706  -0.87620  -0.87322  -0.87058  -0.85008
 Alpha  occ. eigenvalues --   -0.84948  -0.83976  -0.83798  -0.83022  -0.82867
 Alpha  occ. eigenvalues --   -0.82679  -0.82599  -0.81608  -0.81548  -0.80628
 Alpha  occ. eigenvalues --   -0.80388  -0.78840  -0.78571  -0.77252  -0.77085
 Alpha  occ. eigenvalues --   -0.76957  -0.76843  -0.75948  -0.75787  -0.74935
 Alpha  occ. eigenvalues --   -0.74726  -0.72811  -0.72631  -0.71705  -0.71515
 Alpha  occ. eigenvalues --   -0.69949  -0.69677  -0.68902  -0.68774  -0.67678
 Alpha  occ. eigenvalues --   -0.67540  -0.67247  -0.67152  -0.65311  -0.65221
 Alpha  occ. eigenvalues --   -0.64885  -0.64708  -0.64650  -0.64599  -0.64308
 Alpha  occ. eigenvalues --   -0.64129  -0.62318  -0.62231  -0.60488  -0.60272
 Alpha  occ. eigenvalues --   -0.59832  -0.59743  -0.59022  -0.58927  -0.58538
 Alpha  occ. eigenvalues --   -0.58363  -0.57610  -0.57504  -0.57346  -0.57168
 Alpha  occ. eigenvalues --   -0.56346  -0.56142  -0.55995  -0.55844  -0.55561
 Alpha  occ. eigenvalues --   -0.55398  -0.55373  -0.55180  -0.54551  -0.54426
 Alpha  occ. eigenvalues --   -0.53917  -0.53865  -0.53340  -0.53255  -0.53163
 Alpha  occ. eigenvalues --   -0.53088  -0.52944  -0.52850  -0.52798  -0.52613
 Alpha  occ. eigenvalues --   -0.52480  -0.52324  -0.51949  -0.51813  -0.51645
 Alpha  occ. eigenvalues --   -0.51610  -0.51227  -0.51142  -0.50627  -0.50414
 Alpha  occ. eigenvalues --   -0.50073  -0.49962  -0.49921  -0.49790  -0.49549
 Alpha  occ. eigenvalues --   -0.49432  -0.49249  -0.49147  -0.49121  -0.49051
 Alpha  occ. eigenvalues --   -0.48620  -0.48507  -0.48505  -0.48483  -0.48301
 Alpha  occ. eigenvalues --   -0.48279  -0.47730  -0.47536  -0.47334  -0.47053
 Alpha  occ. eigenvalues --   -0.46831  -0.46644  -0.46579  -0.46503  -0.46396
 Alpha  occ. eigenvalues --   -0.46204  -0.46195  -0.46016  -0.45846  -0.45766
 Alpha  occ. eigenvalues --   -0.45241  -0.45130  -0.44608  -0.44547  -0.44460
 Alpha  occ. eigenvalues --   -0.44420  -0.44184  -0.44115  -0.44072  -0.44054
 Alpha  occ. eigenvalues --   -0.44012  -0.43884  -0.43519  -0.43505  -0.43417
 Alpha  occ. eigenvalues --   -0.43327  -0.43060  -0.42887  -0.42840  -0.42728
 Alpha  occ. eigenvalues --   -0.42681  -0.42480  -0.42043  -0.41900  -0.41737
 Alpha  occ. eigenvalues --   -0.41609  -0.41558  -0.41404  -0.41173  -0.40927
 Alpha  occ. eigenvalues --   -0.40901  -0.40871  -0.40668  -0.40643  -0.40608
 Alpha  occ. eigenvalues --   -0.40419  -0.40252  -0.40187  -0.39484  -0.39346
 Alpha  occ. eigenvalues --   -0.38506  -0.38275  -0.37767  -0.37610  -0.37358
 Alpha  occ. eigenvalues --   -0.37289  -0.37195  -0.37144  -0.36733  -0.36730
 Alpha  occ. eigenvalues --   -0.36220  -0.36153  -0.34322  -0.34188  -0.33823
 Alpha  occ. eigenvalues --   -0.33788  -0.33222  -0.33109  -0.31403  -0.31211
 Alpha  occ. eigenvalues --   -0.31072  -0.30908  -0.30058  -0.29902  -0.29492
 Alpha  occ. eigenvalues --   -0.29359  -0.29262  -0.29145  -0.24117  -0.23969
 Alpha  occ. eigenvalues --   -0.21165  -0.21049
 Alpha virt. eigenvalues --   -0.08813  -0.08726  -0.01789  -0.01615  -0.00102
 Alpha virt. eigenvalues --    0.00032   0.02164   0.02271   0.03075   0.03288
 Alpha virt. eigenvalues --    0.04690   0.04789   0.05082   0.05202   0.06167

 Mulliken charges:
               1
     1  Mg   0.838608
     2  C   -0.002912
     3  C   -0.094070
     4  C   -0.046007
     5  C   -0.063982
     6  N   -0.256796
     7  C   -0.052386
     8  C   -0.014002
     9  C   -0.087000
    10  C    0.046312
    11  C    0.104795
    12  C    0.053454
    13  C   -0.072035
    14  H    0.036698
    15  N   -0.433118
    16  C    0.168328
    17  C   -0.177207
    18  C   -0.004179
    19  C    0.148667
    20  C    0.110167
    21  C    0.012056
    22  O   -0.249837
    23  C    0.062591
    24  N   -0.341127
    25  C    0.041237
    26  C   -0.028135
    27  C   -0.023993
    28  C    0.074852
    29  C    0.076170
    30  C    0.035138
    31  C   -0.004496
    32  N   -0.310494
    33  C    0.080457
    34  C   -0.169689
    35  C    0.008420
    36  C    0.083012
    37  C    0.127305
    38  C    0.046145
    39  O   -0.188253
    40  C   -0.005315
    41  C    0.212900
    42  O   -0.257098
    43  O   -0.304796
    44  C    0.157612
    45  H   -0.017535
    46  H   -0.016995
    47  H   -0.041441
    48  H    0.001062
    49  H   -0.003928
    50  H    0.025521
    51  H    0.016379
    52  H    0.016767
    53  H    0.011133
    54  H    0.044169
    55  H    0.017897
    56  H    0.018002
    57  H    0.006029
    58  H    0.026810
    59  H    0.039269
    60  H    0.037519
    61  H    0.035277
    62  H    0.031174
    63  H    0.016347
    64  H    0.009545
    65  H    0.023110
    66  H    0.012591
    67  H    0.004832
    68  H    0.006353
    69  H    0.004855
    70  H    0.008530
    71  H    0.018240
    72  H    0.028950
    73  H    0.047616
    74  H    0.009132
    75  H    0.046111
    76  H    0.035257
    77  H    0.043055
    78  H    0.046569
    79  H    0.053798
    80  Mg   0.838004
    81  C   -0.016909
    82  C   -0.087860
    83  C   -0.045418
    84  C   -0.064424
    85  N   -0.254566
    86  C   -0.049799
    87  C   -0.015097
    88  C   -0.090529
    89  C    0.045788
    90  C    0.114377
    91  C    0.062565
    92  C   -0.077738
    93  H    0.034651
    94  N   -0.423509
    95  C    0.162932
    96  C   -0.174625
    97  C   -0.007803
    98  C    0.152153
    99  C    0.099369
   100  C    0.015542
   101  O   -0.253157
   102  C    0.061214
   103  N   -0.350012
   104  C    0.037685
   105  C   -0.019974
   106  C   -0.034904
   107  C    0.088909
   108  C    0.073456
   109  C    0.034707
   110  C   -0.007660
   111  N   -0.324127
   112  C    0.078424
   113  C   -0.162921
   114  C    0.002203
   115  C    0.096254
   116  C    0.131476
   117  C    0.042401
   118  O   -0.188150
   119  C    0.000871
   120  C    0.211218
   121  O   -0.251033
   122  O   -0.305705
   123  C    0.152101
   124  H   -0.019738
   125  H   -0.015506
   126  H   -0.040162
   127  H   -0.000919
   128  H   -0.004527
   129  H    0.022387
   130  H    0.014844
   131  H    0.015933
   132  H    0.013945
   133  H    0.037644
   134  H    0.020544
   135  H    0.019533
   136  H    0.008669
   137  H    0.026209
   138  H    0.039627
   139  H    0.038272
   140  H    0.036296
   141  H    0.033785
   142  H    0.014262
   143  H    0.013101
   144  H    0.025026
   145  H    0.011852
   146  H    0.006446
   147  H    0.006380
   148  H    0.003771
   149  H    0.010854
   150  H    0.017811
   151  H    0.029950
   152  H    0.045765
   153  H    0.008676
   154  H    0.047405
   155  H    0.034891
   156  H    0.043657
   157  H    0.049378
   158  H    0.053559
 Sum of Mulliken charges =  -0.00000

 Dipole moment (field-independent basis, Debye):
    X=             -3.6255    Y=              1.9211    Z=              6.4398  Tot=              7.6358
 Quadrupole moment (field-independent basis, Debye-Ang):
   XX=           -518.6160   YY=           -514.9983   ZZ=           -483.9006
   XY=             40.0065   XZ=            -10.1204   YZ=            -14.5453

 Normal termination of Gaussian 16 at Sat Sep  4 14:44:42 2021.
