 Gaussian 16, Revision A.03,
 Gaussian 16:  ES64L-G16RevA.03 25-Dec-2016

 -----------------------------------
 #p cam-b3lyp/Def2SVP td=(nstates=5)
 -----------------------------------

 --------------------------------
 TDDFT excited states in gaussian
 --------------------------------
 Symbolic Z-matrix:
 Charge =  0 Multiplicity = 1

                         Standard orientation:
 ---------------------------------------------------------------------
 Center     Atomic      Atomic             Coordinates (Angstroms)
 Number     Number       Type             X           Y           Z
 ---------------------------------------------------------------------
      1         12           0        6.538082   -0.721625    0.470829
      2          6           0        7.032533    1.833942   -1.986163
      3          6           0        7.657341    1.507807    2.798909
      4          6           0        6.542147   -3.090736    2.578889
      5          6           0        6.554396   -3.029473   -2.140537
      6          7           0        7.226456    1.375795    0.304645
      7          6           0        7.310979    2.259055   -0.685244
      8          6           0        7.650487    3.700141   -0.200084
      9          6           0        8.363539    3.339793    1.179663
     10          6           0        7.684085    2.012006    1.464705
     11          6           0        9.864717    3.104765    1.046511
     12          6           0        6.367579    4.568469    0.027697
     13          6           0        6.615300    6.071626    0.184241
     14          1           0        5.637832    7.002740   -0.358837
     15          7           0        6.556189   -0.679145    2.445853
     16          6           0        7.035215    0.316217    3.230119
     17          6           0        6.821186   -0.125201    4.625118
     18          6           0        6.352730   -1.538458    4.588383
     19          6           0        6.491815   -1.838230    3.186181
     20          6           0        7.011390    0.771087    5.810124
     21          6           0        5.868123   -2.474139    5.650357
     22          8           0        5.730799   -3.727919    5.441187
     23          6           0        5.639784   -1.891413    6.985023
     24          7           0        6.766177   -2.788201    0.284096
     25          6           0        6.668318   -3.592216    1.348505
     26          6           0        6.582420   -5.032578    0.938729
     27          6           0        6.396694   -5.030664   -0.647227
     28          6           0        6.495778   -3.505127   -0.894590
     29          6           0        7.787854   -5.907138    1.310329
     30          6           0        5.171177   -5.791487   -1.212626
     31          6           0        3.896757   -5.086608   -0.805074
     32          7           0        6.575045   -0.633360   -1.697555
     33          6           0        6.599481   -1.718729   -2.585277
     34          6           0        6.730121   -1.162280   -3.944455
     35          6           0        6.789670    0.216362   -3.750434
     36          6           0        6.728215    0.501575   -2.356458
     37          6           0        6.837272   -1.915706   -5.146662
     38          6           0        6.915717    1.513546   -4.394859
     39          8           0        6.913272    1.905549   -5.562686
     40          6           0        7.200621    2.605576   -3.271415
     41          6           0        6.276337    3.766091   -3.520840
     42          8           0        5.042369    3.642589   -3.381421
     43          8           0        6.998421    4.889636   -3.650388
     44          6           0        6.139789    6.083961   -3.870598
     45          1           0        8.211288    2.039269    3.575204
     46          1           0        6.434486   -3.934029    3.264238
     47          1           0        6.481135   -3.684394   -3.010689
     48          1           0        8.340216    4.245865   -0.844199
     49          1           0        8.126892    4.061954    1.960818
     50          1           0       10.175640    3.096967    0.001912
     51          1           0       10.049119    2.133432    1.505860
     52          1           0       10.424202    3.828077    1.640288
     53          1           0        5.952498    4.345495    1.010576
     54          1           0        5.643379    4.403670   -0.770866
     55          1           0        7.621526    6.345077   -0.134572
     56          1           0        6.593027    6.312579    1.247089
     57          1           0        7.517770    1.695671    5.535774
     58          1           0        7.708016    0.268570    6.480868
     59          1           0        6.074327    0.965853    6.331960
     60          1           0        6.568804   -1.452937    7.350002
     61          1           0        5.210759   -2.688175    7.591618
     62          1           0        4.927978   -1.070357    6.894746
     63          1           0        5.723247   -5.519354    1.398399
     64          1           0        7.247969   -5.479908   -1.159266
     65          1           0        7.528640   -6.775113    1.917068
     66          1           0        8.516755   -5.277483    1.819769
     67          1           0        8.368919   -6.268756    0.462383
     68          1           0        5.126698   -6.798741   -0.799822
     69          1           0        5.182419   -5.878555   -2.299154
     70          1           0        3.712752   -5.475666    0.195729
     71          1           0        3.083291   -5.349872   -1.481961
     72          1           0        4.048535   -4.010923   -0.713700
     73          1           0        6.191366   -1.423540   -5.873675
     74          1           0        6.540958   -2.952906   -4.991694
     75          1           0        7.901954   -1.812347   -5.355527
     76          1           0        8.248341    2.888590   -3.367895
     77          1           0        6.476930    6.555890   -4.793557
     78          1           0        6.187324    6.672940   -2.954492
     79          1           0        5.093899    5.888255   -4.109664
     80         12           0       -6.604006    0.725081    0.430602
     81          6           0       -6.837037   -1.817541   -2.091275
     82          6           0       -7.526589   -1.649796    2.698510
     83          6           0       -6.846280    3.030363    2.597253
     84          6           0       -6.824907    3.084538   -2.124770
     85          7           0       -7.090918   -1.421229    0.210363
     86          6           0       -7.085672   -2.292971   -0.786826
     87          6           0       -7.283179   -3.769723   -0.351203
     88          6           0       -8.045241   -3.510650    1.038404
     89          6           0       -7.498252   -2.121832    1.361912
     90          6           0       -9.553762   -3.406553    0.887200
     91          6           0       -5.920245   -4.514657   -0.128696
     92          6           0       -6.031642   -6.035784   -0.004036
     93          1           0       -4.959796   -6.859725   -0.556055
     94          7           0       -6.630298    0.627125    2.412593
     95          6           0       -7.012120   -0.422228    3.170444
     96          6           0       -6.867026    0.016294    4.567159
     97          6           0       -6.525607    1.464792    4.570972
     98          6           0       -6.677917    1.775223    3.163669
     99          6           0       -6.971935   -0.926028    5.730964
    100          6           0       -6.139904    2.416391    5.662719
    101          8           0       -6.119270    3.684100    5.474808
    102          6           0       -5.877662    1.826958    6.983814
    103          7           0       -7.018427    2.757303    0.286813
    104          6           0       -7.011225    3.543210    1.377790
    105          6           0       -7.062145    5.003918    0.998160
    106          6           0       -6.860179    5.042927   -0.587803
    107          6           0       -6.814650    3.525982   -0.874494
    108          6           0       -8.349201    5.742201    1.365340
    109          6           0       -5.707370    5.932340   -1.128786
    110          6           0       -4.372607    5.353324   -0.718249
    111          7           0       -6.610621    0.682360   -1.729542
    112          6           0       -6.738036    1.783729   -2.604083
    113          6           0       -6.804276    1.243676   -3.977534
    114          6           0       -6.733401   -0.146746   -3.803774
    115          6           0       -6.650607   -0.452653   -2.418472
    116          6           0       -6.962785    2.010540   -5.166203
    117          6           0       -6.720507   -1.425728   -4.476628
    118          8           0       -6.678807   -1.788871   -5.651410
    119          6           0       -6.914474   -2.570034   -3.390654
    120          6           0       -5.882089   -3.633497   -3.647011
    121          8           0       -4.671681   -3.387315   -3.502347
    122          8           0       -6.500027   -4.817838   -3.807858
    123          6           0       -5.516863   -5.906287   -4.053787
    124          1           0       -8.027546   -2.257271    3.452765
    125          1           0       -6.824855    3.869767    3.296130
    126          1           0       -6.795499    3.759840   -2.982539
    127          1           0       -7.906586   -4.359026   -1.012907
    128          1           0       -7.739138   -4.227075    1.796299
    129          1           0       -9.855680   -3.406191   -0.149613
    130          1           0       -9.833570   -2.475798    1.363060
    131          1           0      -10.045551   -4.197783    1.460289
    132          1           0       -5.538461   -4.271658    0.871269
    133          1           0       -5.219400   -4.265805   -0.901683
    134          1           0       -7.009842   -6.405893   -0.334335
    135          1           0       -5.988293   -6.301261    1.055046
    136          1           0       -7.393173   -1.892863    5.429005
    137          1           0       -7.717288   -0.506925    6.415567
    138          1           0       -6.026734   -1.041996    6.265578
    139          1           0       -6.762101    1.292956    7.323013
    140          1           0       -5.530239    2.652309    7.608303
    141          1           0       -5.080036    1.082526    6.882678
    142          1           0       -6.256501    5.554077    1.468651
    143          1           0       -7.750409    5.433419   -1.102437
    144          1           0       -8.176737    6.628561    2.004633
    145          1           0       -9.015350    5.044170    1.854764
    146          1           0       -8.946766    6.077361    0.519299
    147          1           0       -5.761042    6.931067   -0.688560
    148          1           0       -5.725181    6.054127   -2.206671
    149          1           0       -4.239885    5.735698    0.298242
    150          1           0       -3.582808    5.705536   -1.378716
    151          1           0       -4.420447    4.259964   -0.655511
    152          1           0       -6.274383    1.602314   -5.894190
    153          1           0       -6.772430    3.066568   -4.986399
    154          1           0       -8.015775    1.814796   -5.385630
    155          1           0       -7.930615   -2.952197   -3.495364
    156          1           0       -5.803769   -6.389840   -4.992691
    157          1           0       -5.528656   -6.531345   -3.141139
    158          1           0       -4.494097   -5.618909   -4.267809
 ---------------------------------------------------------------------

 SCF Done:  E(RCAM-B3LYP) =  -4069.81159012     A.U. after   19 cycles

 Excitation energies and oscillator strengths:

 Excited State   1:      Singlet-A      1.6654 eV  744.46 nm  f=0.0089  <S**2>=0.000
     309 -> 315       -0.11044
     310 -> 316        0.13085
     311 -> 313        0.52582
     312 -> 314       -0.44153
 This state for optimization and/or second-order correction.
 Total Energy, E(TD-HF/TD-DFT) =  -4069.75038664
 Copying the excited state density for this state as the 1-particle RhoCI density.

 Excited State   2:      Singlet-A      1.6888 eV  734.17 nm  f=0.7366  <S**2>=0.000
     309 -> 315        0.13608
     310 -> 316        0.11367
     311 -> 313        0.44066
     312 -> 314        0.52464

 Excited State   3:      Singlet-A      2.1847 eV  567.52 nm  f=0.0419  <S**2>=0.000
     309 -> 314        0.20051
     310 -> 313        0.61094
     311 -> 316       -0.25857

 Excited State   4:      Singlet-A      2.1925 eV  565.50 nm  f=0.1481  <S**2>=0.000
     309 -> 314        0.60871
     310 -> 313       -0.19905
     312 -> 315       -0.26469

 Excited State   5:      Singlet-A      2.7063 eV  458.13 nm  f=0.0000  <S**2>=0.000
     312 -> 313        0.70710

 The electronic state is 1-A.
 Alpha  occ. eigenvalues --  -46.87658 -46.87563 -19.26257 -19.26145 -19.19057
 Alpha  occ. eigenvalues --  -19.18869 -19.18717 -19.18652 -19.18025 -19.17949
 Alpha  occ. eigenvalues --  -14.42404 -14.42315 -14.41314 -14.41264 -14.39269
 Alpha  occ. eigenvalues --  -14.39259 -14.38499 -14.38444 -10.38988 -10.38932
 Alpha  occ. eigenvalues --  -10.35353 -10.35332 -10.34245 -10.34126 -10.31676
 Alpha  occ. eigenvalues --  -10.31550 -10.31265 -10.31211 -10.30937 -10.30782
 Alpha  occ. eigenvalues --  -10.30427 -10.30370 -10.30301 -10.30259 -10.30079
 Alpha  occ. eigenvalues --  -10.30052 -10.29797 -10.29782 -10.29495 -10.29346
 Alpha  occ. eigenvalues --  -10.29306 -10.29124 -10.28635 -10.28623 -10.28579
 Alpha  occ. eigenvalues --  -10.28418 -10.28312 -10.28231 -10.28057 -10.27991
 Alpha  occ. eigenvalues --  -10.27905 -10.27656 -10.27594 -10.27577 -10.27455
 Alpha  occ. eigenvalues --  -10.27423 -10.27394 -10.27391 -10.27376 -10.27372
 Alpha  occ. eigenvalues --  -10.27368 -10.27327 -10.27290 -10.27268 -10.27019
 Alpha  occ. eigenvalues --  -10.26954 -10.26606 -10.26574 -10.26379 -10.26341
 Alpha  occ. eigenvalues --  -10.26119 -10.26031 -10.26024 -10.25951 -10.25879
 Alpha  occ. eigenvalues --  -10.25835 -10.25728 -10.25677 -10.25332 -10.25330
 Alpha  occ. eigenvalues --  -10.24774 -10.24692 -10.24657 -10.24598 -10.24589
 Alpha  occ. eigenvalues --  -10.24502  -3.16400  -3.16312  -1.91282  -1.91194
 Alpha  occ. eigenvalues --   -1.90869  -1.90783  -1.90711  -1.90620  -1.16549
 Alpha  occ. eigenvalues --   -1.16492  -1.08555  -1.08481  -1.07121  -1.06907
 Alpha  occ. eigenvalues --   -1.06842  -1.06493  -1.04447  -1.04402  -1.03626
 Alpha  occ. eigenvalues --   -1.03569  -1.03097  -1.02943  -1.02275  -1.02015
 Alpha  occ. eigenvalues --   -0.91891  -0.91834  -0.89395  -0.89380  -0.89065
 Alpha  occ. eigenvalues --   -0.89060  -0.88153  -0.88125  -0.87723  -0.87689
 Alpha  occ. eigenvalues --   -0.87592  -0.87540  -0.87157  -0.87043  -0.84914
 Alpha  occ. eigenvalues --   -0.84855  -0.83798  -0.83777  -0.82861  -0.82861
 Alpha  occ. eigenvalues --   -0.82570  -0.82524  -0.81504  -0.81450  -0.80466
 Alpha  occ. eigenvalues --   -0.80354  -0.78670  -0.78547  -0.77084  -0.77054
 Alpha  occ. eigenvalues --   -0.76808  -0.76803  -0.75792  -0.75750  -0.74770
 Alpha  occ. eigenvalues --   -0.74714  -0.72636  -0.72602  -0.71543  -0.71493
 Alpha  occ. eigenvalues --   -0.69762  -0.69652  -0.68746  -0.68741  -0.67512
 Alpha  occ. eigenvalues --   -0.67512  -0.67120  -0.67098  -0.65182  -0.65154
 Alpha  occ. eigenvalues --   -0.64717  -0.64676  -0.64563  -0.64487  -0.64132
 Alpha  occ. eigenvalues --   -0.64107  -0.62185  -0.62160  -0.60321  -0.60257
 Alpha  occ. eigenvalues --   -0.59708  -0.59673  -0.58899  -0.58853  -0.58369
 Alpha  occ. eigenvalues --   -0.58332  -0.57456  -0.57443  -0.57177  -0.57146
 Alpha  occ. eigenvalues --   -0.56177  -0.56111  -0.55845  -0.55798  -0.55399
 Alpha  occ. eigenvalues --   -0.55371  -0.55202  -0.55151  -0.54391  -0.54384
 Alpha  occ. eigenvalues --   -0.53827  -0.53767  -0.53174  -0.53140  -0.53097
 Alpha  occ. eigenvalues --   -0.53056  -0.52810  -0.52780  -0.52644  -0.52600
 Alpha  occ. eigenvalues --   -0.52290  -0.52288  -0.51772  -0.51760  -0.51577
 Alpha  occ. eigenvalues --   -0.51492  -0.51103  -0.51056  -0.50470  -0.50407
 Alpha  occ. eigenvalues --   -0.49899  -0.49898  -0.49804  -0.49777  -0.49411
 Alpha  occ. eigenvalues --   -0.49394  -0.49115  -0.49083  -0.49015  -0.48968
 Alpha  occ. eigenvalues --   -0.48467  -0.48458  -0.48346  -0.48319  -0.48287
 Alpha  occ. eigenvalues --   -0.48265  -0.47569  -0.47509  -0.47173  -0.47035
 Alpha  occ. eigenvalues --   -0.46660  -0.46614  -0.46470  -0.46429  -0.46223
 Alpha  occ. eigenvalues --   -0.46176  -0.46025  -0.45990  -0.45724  -0.45679
 Alpha  occ. eigenvalues --   -0.45119  -0.45073  -0.44442  -0.44425  -0.44385
 Alpha  occ. eigenvalues --   -0.44383  -0.44041  -0.44010  -0.43982  -0.43964
 Alpha  occ. eigenvalues --   -0.43890  -0.43859  -0.43459  -0.43356  -0.43297
 Alpha  occ. eigenvalues --   -0.43256  -0.42893  -0.42838  -0.42805  -0.42562
 Alpha  occ. eigenvalues --   -0.42511  -0.42457  -0.41866  -0.41863  -0.41575
 Alpha  occ. eigenvalues --   -0.41569  -0.41405  -0.41369  -0.41013  -0.40902
 Alpha  occ. eigenvalues --   -0.40744  -0.40713  -0.40652  -0.40613  -0.40436
 Alpha  occ. eigenvalues --   -0.40397  -0.40148  -0.40110  -0.39316  -0.39291
 Alpha  occ. eigenvalues --   -0.38337  -0.38259  -0.37619  -0.37568  -0.37186
 Alpha  occ. eigenvalues --   -0.37171  -0.37131  -0.37109  -0.36674  -0.36572
 Alpha  occ. eigenvalues --   -0.36122  -0.36055  -0.34157  -0.34148  -0.33759
 Alpha  occ. eigenvalues --   -0.33622  -0.33080  -0.33049  -0.31247  -0.31210
 Alpha  occ. eigenvalues --   -0.30903  -0.30881  -0.29883  -0.29853  -0.29320
 Alpha  occ. eigenvalues --   -0.29238  -0.29180  -0.29111  -0.23944  -0.23940
 Alpha  occ. eigenvalues --   -0.21022  -0.20992
 Alpha virt. eigenvalues --   -0.08699  -0.08641  -0.01618  -0.01592   0.00051
 Alpha virt. eigenvalues --    0.00062   0.02306   0.02341   0.03293   0.03356
 Alpha virt. eigenvalues --    0.04818   0.04849   0.05244   0.05266   0.06262

 Mulliken charges:
               1
     1  Mg   0.839385
     2  C   -0.002859
     3  C   -0.094153
     4  C   -0.045964
     5  C   -0.063692
     6  N   -0.256745
     7  C   -0.052353
     8  C   -0.014060
     9  C   -0.086983
    10  C    0.046277
    11  C    0.104885
    12  C    0.053451
    13  C   -0.071671
    14  H    0.035988
    15  N   -0.433032
    16  C    0.168321
    17  C   -0.177353
    18  C   -0.004288
    19  C    0.148683
    20  C    0.110247
    21  C    0.012036
    22  O   -0.250168
    23  C    0.062585
    24  N   -0.341231
    25  C    0.041262
    26  C   -0.028009
    27  C   -0.024048
    28  C    0.075109
    29  C    0.076319
    30  C    0.035079
    31  C   -0.004503
    32  N   -0.310654
    33  C    0.080884
    34  C   -0.168937
    35  C    0.008485
    36  C    0.083465
    37  C    0.127140
    38  C    0.046557
    39  O   -0.188144
    40  C   -0.005520
    41  C    0.212839
    42  O   -0.256503
    43  O   -0.304950
    44  C    0.157724
    45  H   -0.017907
    46  H   -0.017284
    47  H   -0.041208
    48  H    0.000807
    49  H   -0.004147
    50  H    0.025374
    51  H    0.016337
    52  H    0.016402
    53  H    0.011365
    54  H    0.044401
    55  H    0.017675
    56  H    0.017887
    57  H    0.005816
    58  H    0.026417
    59  H    0.039287
    60  H    0.037309
    61  H    0.034886
    62  H    0.031388
    63  H    0.016262
    64  H    0.009240
    65  H    0.022723
    66  H    0.012388
    67  H    0.004588
    68  H    0.005683
    69  H    0.005072
    70  H    0.007919
    71  H    0.019530
    72  H    0.029614
    73  H    0.048444
    74  H    0.009460
    75  H    0.045672
    76  H    0.034919
    77  H    0.042768
    78  H    0.046184
    79  H    0.053833
    80  Mg   0.838469
    81  C   -0.016748
    82  C   -0.087820
    83  C   -0.045613
    84  C   -0.064685
    85  N   -0.254552
    86  C   -0.049748
    87  C   -0.015126
    88  C   -0.090519
    89  C    0.045747
    90  C    0.114436
    91  C    0.062524
    92  C   -0.077727
    93  H    0.034606
    94  N   -0.423393
    95  C    0.162855
    96  C   -0.174787
    97  C   -0.008066
    98  C    0.152095
    99  C    0.099425
   100  C    0.015342
   101  O   -0.253617
   102  C    0.061297
   103  N   -0.350150
   104  C    0.037527
   105  C   -0.019693
   106  C   -0.034886
   107  C    0.089147
   108  C    0.073781
   109  C    0.034699
   110  C   -0.007696
   111  N   -0.324278
   112  C    0.078910
   113  C   -0.162426
   114  C    0.002340
   115  C    0.096668
   116  C    0.131344
   117  C    0.042819
   118  O   -0.187579
   119  C    0.000723
   120  C    0.211234
   121  O   -0.250448
   122  O   -0.305762
   123  C    0.152099
   124  H   -0.019921
   125  H   -0.015929
   126  H   -0.040168
   127  H   -0.000774
   128  H   -0.004405
   129  H    0.022359
   130  H    0.014334
   131  H    0.016058
   132  H    0.014127
   133  H    0.037905
   134  H    0.020609
   135  H    0.019593
   136  H    0.008721
   137  H    0.025782
   138  H    0.039582
   139  H    0.038219
   140  H    0.035735
   141  H    0.033770
   142  H    0.014203
   143  H    0.012232
   144  H    0.024749
   145  H    0.011474
   146  H    0.005535
   147  H    0.005753
   148  H    0.003965
   149  H    0.010244
   150  H    0.019119
   151  H    0.030627
   152  H    0.046832
   153  H    0.008838
   154  H    0.046628
   155  H    0.034804
   156  H    0.043751
   157  H    0.049249
   158  H    0.053631
 Sum of Mulliken charges =  -0.00000

 Dipole moment (field-independent basis, Debye):
    X=              0.1638    Y=             -0.3134    Z=              7.1663  Tot=              7.1750
 Quadrupole moment (field-independent basis, Debye-Ang):
   XX=           -462.5581   YY=           -461.2986   ZZ=           -540.0068
   XY=             27.3206   XZ=              4.4324   YZ=              0.8188

 Normal termination of Gaussian 16 at Sat Sep 11 07:03:36 2021.
