 Gaussian 16, Revision A.03,
 Gaussian 16:  ES64L-G16RevA.03 25-Dec-2016

 -----------------------------------
 #p cam-b3lyp/Def2SVP td=(nstates=5)
 -----------------------------------

 --------------------------------
 TDDFT excited states in gaussian
 --------------------------------
 Symbolic Z-matrix:
 Charge =  0 Multiplicity = 1

                         Standard orientation:
 ---------------------------------------------------------------------
 Center     Atomic      Atomic             Coordinates (Angstroms)
 Number     Number       Type             X           Y           Z
 ---------------------------------------------------------------------
      1         12           0       -5.176623    0.622997    0.578252
      2          6           0       -5.675537   -2.079242   -1.715480
      3          6           0       -5.748748   -1.606186    3.097474
      4          6           0       -5.190763    3.070799    2.594358
      5          6           0       -5.767605    2.795431   -2.081999
      6          7           0       -5.640671   -1.541525    0.565956
      7          6           0       -5.744962   -2.472567   -0.377152
      8          6           0       -5.859577   -3.918363    0.191981
      9          6           0       -6.436115   -3.574634    1.638166
     10          6           0       -5.880231   -2.170101    1.793732
     11          6           0       -7.959179   -3.508279    1.686902
     12          6           0       -4.469367   -4.632855    0.284432
     13          6           0       -4.526300   -6.145299    0.518159
     14          1           0       -3.523677   -6.989745   -0.113509
     15          7           0       -4.950504    0.668088    2.540314
     16          6           0       -5.216440   -0.336470    3.409466
     17          6           0       -4.885841    0.187932    4.751997
     18          6           0       -4.586613    1.640180    4.612238
     19          6           0       -4.927219    1.859645    3.229776
     20          6           0       -4.829477   -0.669135    5.979193
     21          6           0       -4.084865    2.669468    5.575019
     22          8           0       -4.115246    3.920007    5.310817
     23          6           0       -3.632703    2.175498    6.888253
     24          7           0       -5.655772    2.642615    0.356453
     25          6           0       -5.520423    3.499749    1.374287
     26          6           0       -5.646730    4.921021    0.911719
     27          6           0       -5.655428    4.867399   -0.684151
     28          6           0       -5.612176    3.330428   -0.868867
     29          6           0       -6.888627    5.677093    1.403712
     30          6           0       -4.600443    5.728990   -1.422450
     31          6           0       -3.215145    5.184046   -1.155833
     32          7           0       -5.465828    0.433406   -1.564518
     33          6           0       -5.719069    1.468670   -2.475984
     34          6           0       -5.950193    0.840586   -3.789818
     35          6           0       -5.830947   -0.526307   -3.546446
     36          6           0       -5.569535   -0.740012   -2.162869
     37          6           0       -6.285912    1.523080   -4.992285
     38          6           0       -5.887968   -1.857308   -4.128721
     39          8           0       -5.983082   -2.299142   -5.274683
     40          6           0       -5.910531   -2.921727   -2.944521
     41          6           0       -4.899089   -3.986454   -3.271093
     42          8           0       -3.678987   -3.725103   -3.291433
     43          8           0       -5.501071   -5.185684   -3.273572
     44          6           0       -4.547055   -6.289717   -3.561876
     45          1           0       -6.141524   -2.158395    3.953472
     46          1           0       -5.096059    3.950872    3.233843
     47          1           0       -5.874127    3.414449   -2.974704
     48          1           0       -6.556719   -4.563476   -0.343040
     49          1           0       -6.027178   -4.231207    2.405894
     50          1           0       -8.393238   -3.581084    0.689799
     51          1           0       -8.194256   -2.542582    2.134855
     52          1           0       -8.358029   -4.259875    2.368664
     53          1           0       -3.965912   -4.322461    1.199991
     54          1           0       -3.870283   -4.427555   -0.603418
     55          1           0       -5.526709   -6.539250    0.336793
     56          1           0       -4.348600   -6.334207    1.576902
     57          1           0       -5.258545   -1.654156    5.799807
     58          1           0       -5.491622   -0.214473    6.715777
     59          1           0       -3.820230   -0.738466    6.385327
     60          1           0       -4.455650    1.656819    7.380472
     61          1           0       -3.225365    3.040276    7.410828
     62          1           0       -2.849588    1.432315    6.735416
     63          1           0       -4.798201    5.517433    1.244463
     64          1           0       -6.607393    5.199124   -1.099357
     65          1           0       -6.656735    6.594388    1.945470
     66          1           0       -7.475279    4.996532    2.020127
     67          1           0       -7.604953    5.935604    0.624311
     68          1           0       -4.619439    6.752817   -1.050478
     69          1           0       -4.752889    5.765174   -2.501201
     70          1           0       -2.956038    5.635413   -0.198773
     71          1           0       -2.524314    5.502216   -1.937325
     72          1           0       -3.233243    4.103518   -1.012247
     73          1           0       -5.681768    1.070716   -5.778635
     74          1           0       -6.091109    2.592021   -4.908500
     75          1           0       -7.349717    1.296761   -5.062666
     76          1           0       -6.923863   -3.319583   -2.899916
     77          1           0       -4.938485   -6.836304   -4.419932
     78          1           0       -4.416982   -6.838405   -2.628909
     79          1           0       -3.566386   -5.993930   -3.936226
     80         12           0        5.332746    0.597243   -0.732063
     81          6           0        5.379567   -2.318012    1.360348
     82          6           0        4.808006    2.433927    2.093864
     83          6           0        4.837841    3.124312   -2.585813
     84          6           0        4.719296   -1.520263   -3.431232
     85          7           0        5.138384    0.018603    1.393887
     86          6           0        5.235031   -1.111914    2.077209
     87          6           0        5.253914   -0.932001    3.618915
     88          6           0        4.502785    0.484779    3.704892
     89          6           0        4.863265    1.036552    2.327112
     90          6           0        2.990579    0.360111    3.788781
     91          6           0        6.711712   -0.845025    4.192727
     92          6           0        6.813234   -0.979471    5.713708
     93          1           0        7.971927   -1.667914    6.275801
     94          7           0        5.375654    2.534055   -0.301378
     95          6           0        5.162533    3.104802    0.902827
     96          6           0        5.285273    4.554965    0.688107
     97          6           0        5.425073    4.802698   -0.772647
     98          6           0        5.192314    3.469056   -1.289652
     99          6           0        5.343047    5.542691    1.817052
    100          6           0        5.707252    6.038204   -1.572721
    101          8           0        5.548801    6.067767   -2.844272
    102          6           0        6.084655    7.239110   -0.813197
    103          7           0        4.640051    0.801804   -2.681595
    104          6           0        4.570120    2.010149   -3.267201
    105          6           0        4.309012    1.883808   -4.749171
    106          6           0        4.459219    0.326518   -5.080648
    107          6           0        4.704020   -0.213319   -3.654454
    108          6           0        2.943777    2.376511   -5.228493
    109          6           0        5.463754   -0.061017   -6.200205
    110          6           0        6.876211    0.239503   -5.752955
    111          7           0        5.271534   -1.538832   -1.050626
    112          6           0        4.970036   -2.213489   -2.253964
    113          6           0        4.939924   -3.658299   -1.947294
    114          6           0        5.205391   -3.723009   -0.571124
    115          6           0        5.368074   -2.409977   -0.052507
    116          6           0        4.644646   -4.699079   -2.872328
    117          6           0        5.374473   -4.602942    0.562818
    118          8           0        5.432580   -5.822454    0.714985
    119          6           0        5.369549   -3.725763    1.888307
    120          6           0        6.530262   -4.163238    2.739117
    121          8           0        7.699111   -3.984324    2.353920
    122          8           0        6.076081   -4.519733    3.954439
    123          6           0        7.191763   -4.950947    4.838255
    124          1           0        4.416299    3.076537    2.882857
    125          1           0        4.763682    3.955238   -3.291185
    126          1           0        4.631894   -2.251302   -4.237847
    127          1           0        4.698795   -1.681239    4.170519
    128          1           0        4.925234    1.108921    4.488056
    129          1           0        2.662543   -0.660292    3.657244
    130          1           0        2.599387    0.988067    2.999045
    131          1           0        2.628041    0.792995    4.725537
    132          1           0        7.084486    0.179957    4.069417
    133          1           0        7.349947   -1.567754    3.722674
    134          1           0        5.886073   -1.363364    6.156366
    135          1           0        6.922182    0.019089    6.143846
    136          1           0        5.049903    5.083101    2.769013
    137          1           0        4.566806    6.291720    1.626617
    138          1           0        6.309837    6.045703    1.887551
    139          1           0        5.291534    7.486828   -0.111727
    140          1           0        6.333129    7.992890   -1.562826
    141          1           0        6.973561    7.009727   -0.214997
    142          1           0        5.044591    2.437144   -5.320012
    143          1           0        3.509841   -0.110522   -5.423427
    144          1           0        3.011071    3.156002   -6.010759
    145          1           0        2.393472    2.743509   -4.372330
    146          1           0        2.282469    1.602183   -5.613576
    147          1           0        5.286161    0.542333   -7.093834
    148          1           0        5.399237   -1.102586   -6.496820
    149          1           0        6.983741    1.305506   -5.974727
    150          1           0        7.591507   -0.355207   -6.317489
    151          1           0        6.980330    0.116242   -4.668695
    152          1           0        5.361800   -5.488772   -2.691820
    153          1           0        4.693549   -4.343739   -3.899521
    154          1           0        3.622654   -4.943829   -2.570852
    155          1           0        4.412780   -3.889212    2.385768
    156          1           0        6.947594   -5.956936    5.193281
    157          1           0        7.291256   -4.157389    5.602532
    158          1           0        8.159134   -5.117703    4.379088
 ---------------------------------------------------------------------

 SCF Done:  E(RCAM-B3LYP) =  -4069.81198989     A.U. after   19 cycles

 Excitation energies and oscillator strengths:

 Excited State   1:      Singlet-A      1.6700 eV  742.43 nm  f=0.2818  <S**2>=0.000
     310 -> 316        0.14121
     311 -> 313        0.39215
     312 -> 314        0.56298
 This state for optimization and/or second-order correction.
 Total Energy, E(TD-HF/TD-DFT) =  -4069.75061902
 Copying the excited state density for this state as the 1-particle RhoCI density.

 Excited State   2:      Singlet-A      1.6809 eV  737.62 nm  f=0.4186  <S**2>=0.000
     309 -> 315       -0.14376
     310 -> 316       -0.10043
     311 -> 313        0.56242
     312 -> 314       -0.39197

 Excited State   3:      Singlet-A      2.1852 eV  567.39 nm  f=0.0982  <S**2>=0.000
     310 -> 314        0.64131
     312 -> 316       -0.27234

 Excited State   4:      Singlet-A      2.1910 eV  565.88 nm  f=0.0997  <S**2>=0.000
     309 -> 313        0.63971
     311 -> 315        0.27646

 Excited State   5:      Singlet-A      2.4855 eV  498.84 nm  f=0.0000  <S**2>=0.000
     312 -> 313        0.70708

 The electronic state is 1-A.
 Alpha  occ. eigenvalues --  -46.87879 -46.87503 -19.26313 -19.26313 -19.19102
 Alpha  occ. eigenvalues --  -19.19064 -19.18962 -19.18583 -19.18249 -19.17938
 Alpha  occ. eigenvalues --  -14.42524 -14.42351 -14.41531 -14.41190 -14.39493
 Alpha  occ. eigenvalues --  -14.39199 -14.38669 -14.38442 -10.39124 -10.39028
 Alpha  occ. eigenvalues --  -10.35598 -10.35262 -10.34465 -10.34117 -10.31746
 Alpha  occ. eigenvalues --  -10.31684 -10.31470 -10.31169 -10.30983 -10.30896
 Alpha  occ. eigenvalues --  -10.30648 -10.30597 -10.30297 -10.30238 -10.30205
 Alpha  occ. eigenvalues --  -10.30002 -10.29959 -10.29724 -10.29717 -10.29348
 Alpha  occ. eigenvalues --  -10.29275 -10.29247 -10.28782 -10.28640 -10.28628
 Alpha  occ. eigenvalues --  -10.28495 -10.28451 -10.28263 -10.28156 -10.28051
 Alpha  occ. eigenvalues --  -10.27883 -10.27851 -10.27802 -10.27685 -10.27592
 Alpha  occ. eigenvalues --  -10.27578 -10.27535 -10.27519 -10.27480 -10.27342
 Alpha  occ. eigenvalues --  -10.27326 -10.27316 -10.27286 -10.27220 -10.27163
 Alpha  occ. eigenvalues --  -10.26955 -10.26706 -10.26632 -10.26602 -10.26303
 Alpha  occ. eigenvalues --  -10.26272 -10.26248 -10.26100 -10.25958 -10.25927
 Alpha  occ. eigenvalues --  -10.25923 -10.25751 -10.25652 -10.25519 -10.25145
 Alpha  occ. eigenvalues --  -10.24920 -10.24876 -10.24747 -10.24723 -10.24552
 Alpha  occ. eigenvalues --  -10.24530  -3.16622  -3.16253  -1.91504  -1.91135
 Alpha  occ. eigenvalues --   -1.91090  -1.90933  -1.90724  -1.90561  -1.16665
 Alpha  occ. eigenvalues --   -1.16601  -1.08703  -1.08552  -1.07367  -1.06888
 Alpha  occ. eigenvalues --   -1.06837  -1.06685  -1.04655  -1.04354  -1.03842
 Alpha  occ. eigenvalues --   -1.03508  -1.03320  -1.02873  -1.02495  -1.01952
 Alpha  occ. eigenvalues --   -0.92047  -0.91852  -0.89598  -0.89318  -0.89227
 Alpha  occ. eigenvalues --   -0.89055  -0.88366  -0.88031  -0.87953  -0.87741
 Alpha  occ. eigenvalues --   -0.87630  -0.87536  -0.87388  -0.86978  -0.85033
 Alpha  occ. eigenvalues --   -0.84891  -0.84011  -0.83694  -0.83098  -0.82788
 Alpha  occ. eigenvalues --   -0.82713  -0.82541  -0.81639  -0.81494  -0.80669
 Alpha  occ. eigenvalues --   -0.80322  -0.78896  -0.78485  -0.77287  -0.77017
 Alpha  occ. eigenvalues --   -0.76978  -0.76776  -0.75976  -0.75731  -0.74972
 Alpha  occ. eigenvalues --   -0.74625  -0.72854  -0.72541  -0.71743  -0.71434
 Alpha  occ. eigenvalues --   -0.69979  -0.69567  -0.68935  -0.68715  -0.67728
 Alpha  occ. eigenvalues --   -0.67462  -0.67272  -0.67100  -0.65335  -0.65167
 Alpha  occ. eigenvalues --   -0.64923  -0.64682  -0.64629  -0.64532  -0.64346
 Alpha  occ. eigenvalues --   -0.64028  -0.62349  -0.62176  -0.60547  -0.60185
 Alpha  occ. eigenvalues --   -0.59861  -0.59684  -0.59063  -0.58843  -0.58581
 Alpha  occ. eigenvalues --   -0.58285  -0.57649  -0.57450  -0.57391  -0.57080
 Alpha  occ. eigenvalues --   -0.56395  -0.56065  -0.56020  -0.55800  -0.55616
 Alpha  occ. eigenvalues --   -0.55407  -0.55337  -0.55093  -0.54583  -0.54346
 Alpha  occ. eigenvalues --   -0.53937  -0.53819  -0.53396  -0.53295  -0.53082
 Alpha  occ. eigenvalues --   -0.53027  -0.52986  -0.52850  -0.52791  -0.52551
 Alpha  occ. eigenvalues --   -0.52510  -0.52218  -0.51995  -0.51709  -0.51678
 Alpha  occ. eigenvalues --   -0.51558  -0.51263  -0.51068  -0.50704  -0.50339
 Alpha  occ. eigenvalues --   -0.50109  -0.50023  -0.49860  -0.49686  -0.49591
 Alpha  occ. eigenvalues --   -0.49369  -0.49296  -0.49147  -0.49088  -0.48992
 Alpha  occ. eigenvalues --   -0.48654  -0.48573  -0.48526  -0.48447  -0.48223
 Alpha  occ. eigenvalues --   -0.48189  -0.47770  -0.47465  -0.47381  -0.46968
 Alpha  occ. eigenvalues --   -0.46866  -0.46601  -0.46564  -0.46443  -0.46439
 Alpha  occ. eigenvalues --   -0.46234  -0.46115  -0.45923  -0.45880  -0.45698
 Alpha  occ. eigenvalues --   -0.45280  -0.45029  -0.44652  -0.44593  -0.44405
 Alpha  occ. eigenvalues --   -0.44349  -0.44227  -0.44140  -0.44099  -0.44013
 Alpha  occ. eigenvalues --   -0.43927  -0.43822  -0.43555  -0.43450  -0.43448
 Alpha  occ. eigenvalues --   -0.43257  -0.43099  -0.42844  -0.42763  -0.42760
 Alpha  occ. eigenvalues --   -0.42706  -0.42382  -0.42071  -0.41820  -0.41779
 Alpha  occ. eigenvalues --   -0.41578  -0.41538  -0.41340  -0.41210  -0.40958
 Alpha  occ. eigenvalues --   -0.40907  -0.40856  -0.40640  -0.40610  -0.40582
 Alpha  occ. eigenvalues --   -0.40318  -0.40256  -0.40149  -0.39511  -0.39233
 Alpha  occ. eigenvalues --   -0.38537  -0.38175  -0.37779  -0.37564  -0.37395
 Alpha  occ. eigenvalues --   -0.37311  -0.37104  -0.37070  -0.36764  -0.36690
 Alpha  occ. eigenvalues --   -0.36251  -0.36067  -0.34365  -0.34103  -0.33823
 Alpha  occ. eigenvalues --   -0.33785  -0.33266  -0.33019  -0.31489  -0.31141
 Alpha  occ. eigenvalues --   -0.31116  -0.30825  -0.30105  -0.29845  -0.29551
 Alpha  occ. eigenvalues --   -0.29410  -0.29179  -0.29058  -0.24160  -0.23879
 Alpha  occ. eigenvalues --   -0.21210  -0.20960
 Alpha virt. eigenvalues --   -0.08864  -0.08639  -0.01838  -0.01524  -0.00164
 Alpha virt. eigenvalues --    0.00104   0.02115   0.02350   0.03022   0.03376
 Alpha virt. eigenvalues --    0.04665   0.04861   0.05051   0.05233   0.06170

 Mulliken charges:
               1
     1  Mg   0.838694
     2  C   -0.002881
     3  C   -0.093933
     4  C   -0.046251
     5  C   -0.063964
     6  N   -0.256849
     7  C   -0.052146
     8  C   -0.014012
     9  C   -0.087000
    10  C    0.046333
    11  C    0.104769
    12  C    0.053363
    13  C   -0.072503
    14  H    0.037938
    15  N   -0.433048
    16  C    0.168166
    17  C   -0.177344
    18  C   -0.004548
    19  C    0.148592
    20  C    0.110157
    21  C    0.011411
    22  O   -0.250164
    23  C    0.062866
    24  N   -0.341204
    25  C    0.041354
    26  C   -0.028084
    27  C   -0.024050
    28  C    0.075046
    29  C    0.076180
    30  C    0.035110
    31  C   -0.004530
    32  N   -0.310533
    33  C    0.080600
    34  C   -0.169760
    35  C    0.008362
    36  C    0.083061
    37  C    0.127334
    38  C    0.046027
    39  O   -0.188257
    40  C   -0.005244
    41  C    0.212926
    42  O   -0.257298
    43  O   -0.304735
    44  C    0.157652
    45  H   -0.017413
    46  H   -0.017234
    47  H   -0.041275
    48  H    0.001135
    49  H   -0.003667
    50  H    0.025525
    51  H    0.016268
    52  H    0.016927
    53  H    0.011257
    54  H    0.044186
    55  H    0.017706
    56  H    0.018301
    57  H    0.006371
    58  H    0.026848
    59  H    0.038689
    60  H    0.038000
    61  H    0.034729
    62  H    0.030221
    63  H    0.016045
    64  H    0.009633
    65  H    0.022987
    66  H    0.012595
    67  H    0.004969
    68  H    0.006365
    69  H    0.005082
    70  H    0.007920
    71  H    0.019407
    72  H    0.028776
    73  H    0.047409
    74  H    0.009317
    75  H    0.046263
    76  H    0.035403
    77  H    0.043046
    78  H    0.047051
    79  H    0.053555
    80  Mg   0.838300
    81  C   -0.017100
    82  C   -0.088039
    83  C   -0.045488
    84  C   -0.062732
    85  N   -0.254517
    86  C   -0.049917
    87  C   -0.015037
    88  C   -0.090481
    89  C    0.045592
    90  C    0.114504
    91  C    0.062626
    92  C   -0.077541
    93  H    0.034467
    94  N   -0.423496
    95  C    0.162793
    96  C   -0.174634
    97  C   -0.008017
    98  C    0.152186
    99  C    0.099392
   100  C    0.015334
   101  O   -0.253426
   102  C    0.061266
   103  N   -0.349919
   104  C    0.037915
   105  C   -0.020157
   106  C   -0.035281
   107  C    0.088946
   108  C    0.073125
   109  C    0.034617
   110  C   -0.007584
   111  N   -0.324209
   112  C    0.078379
   113  C   -0.162120
   114  C    0.001990
   115  C    0.096477
   116  C    0.131443
   117  C    0.042346
   118  O   -0.188810
   119  C    0.000897
   120  C    0.211131
   121  O   -0.250965
   122  O   -0.305959
   123  C    0.152141
   124  H   -0.019574
   125  H   -0.015712
   126  H   -0.039340
   127  H   -0.001702
   128  H   -0.004658
   129  H    0.021577
   130  H    0.015638
   131  H    0.015039
   132  H    0.014099
   133  H    0.037648
   134  H    0.019933
   135  H    0.019550
   136  H    0.008776
   137  H    0.026267
   138  H    0.039327
   139  H    0.038206
   140  H    0.035985
   141  H    0.033752
   142  H    0.013885
   143  H    0.015220
   144  H    0.024245
   145  H    0.011567
   146  H    0.008448
   147  H    0.006374
   148  H    0.004078
   149  H    0.010613
   150  H    0.017547
   151  H    0.029722
   152  H    0.045094
   153  H    0.009006
   154  H    0.048606
   155  H    0.034193
   156  H    0.043290
   157  H    0.049247
   158  H    0.053618
 Sum of Mulliken charges =  -0.00000

 Dipole moment (field-independent basis, Debye):
    X=             -3.3321    Y=              1.8119    Z=              6.2510  Tot=              7.3117
 Quadrupole moment (field-independent basis, Debye-Ang):
   XX=           -519.4788   YY=           -511.8667   ZZ=           -487.2484
   XY=             28.5343   XZ=             -4.9815   YZ=            -12.1616

 Normal termination of Gaussian 16 at Sat Sep  4 04:23:55 2021.
