 Gaussian 16, Revision A.03,
 Gaussian 16:  ES64L-G16RevA.03 25-Dec-2016

 -----------------------------------
 #p cam-b3lyp/Def2SVP td=(nstates=5)
 -----------------------------------

 --------------------------------
 TDDFT excited states in gaussian
 --------------------------------
 Symbolic Z-matrix:
 Charge =  0 Multiplicity = 1

                         Standard orientation:
 ---------------------------------------------------------------------
 Center     Atomic      Atomic             Coordinates (Angstroms)
 Number     Number       Type             X           Y           Z
 ---------------------------------------------------------------------
      1         12           0        8.120496   -0.536379    0.292185
      2          6           0        8.303239    2.573464   -1.470682
      3          6           0        8.898240    1.195742    3.127310
      4          6           0        8.411724   -3.320251    1.782777
      5          6           0        8.482503   -2.132558   -2.784636
      6          7           0        8.524267    1.609804    0.654833
      7          6           0        8.503835    2.707301   -0.095002
      8          6           0        8.640525    4.021850    0.730013
      9          6           0        9.375774    3.435670    2.017568
     10          6           0        8.876161    2.003209    1.951495
     11          6           0       10.896636    3.431266    1.901534
     12          6           0        7.249854    4.641013    1.096623
     13          6           0        7.291938    6.082185    1.612960
     14          1           0        6.206444    6.984577    1.259773
     15          7           0        8.104782   -0.964892    2.220650
     16          6           0        8.435135   -0.133244    3.237761
     17          6           0        8.262370   -0.918501    4.478811
     18          6           0        7.987830   -2.329683    4.089853
     19          6           0        8.185628   -2.265791    2.664310
     20          6           0        8.314112   -0.314519    5.848584
     21          6           0        7.617813   -3.545523    4.879125
     22          8           0        7.652491   -4.720056    4.375295
     23          6           0        7.294662   -3.332167    6.301480
     24          7           0        8.625728   -2.452539   -0.364098
     25          6           0        8.621285   -3.493228    0.476098
     26          6           0        8.734734   -4.792974   -0.263990
     27          6           0        8.572902   -4.435867   -1.811904
     28          6           0        8.470428   -2.895501   -1.689264
     29          6           0       10.040980   -5.571098   -0.053622
     30          6           0        7.468361   -5.188498   -2.595457
     31          6           0        6.105429   -4.768560   -2.092299
     32          7           0        8.176021    0.071164   -1.790807
     33          6           0        8.358061   -0.758686   -2.906551
     34          6           0        8.432293    0.118206   -4.089606
     35          6           0        8.304051    1.406723   -3.574705
     36          6           0        8.185243    1.340607   -2.157029
     37          6           0        8.656326   -0.306474   -5.428968
     38          6           0        8.264477    2.825483   -3.889999
     39          8           0        8.226133    3.481500   -4.931952
     40          6           0        8.384734    3.644614   -2.529709
     41          6           0        7.317080    4.704466   -2.541467
     42          8           0        6.108891    4.396024   -2.491372
     43          8           0        7.884067    5.908550   -2.370443
     44          6           0        6.876530    7.002288   -2.342900
     45          1           0        9.365028    1.592150    4.031141
     46          1           0        8.408192   -4.309465    2.245249
     47          1           0        8.509879   -2.564551   -3.786677
     48          1           0        9.260068    4.788425    0.264229
     49          1           0        9.033571    3.914416    2.934858
     50          1           0       11.220568    3.712612    0.899619
     51          1           0       11.202847    2.409736    2.127815
     52          1           0       11.345822    4.056675    2.673461
     53          1           0        6.854469    4.139039    1.979660
     54          1           0        6.565607    4.581378    0.249525
     55          1           0        8.256931    6.549003    1.413513
     56          1           0        7.222570    6.057503    2.700516
     57          1           0        8.696035    0.705284    5.822447
     58          1           0        9.062153   -0.870320    6.413586
     59          1           0        7.352118   -0.370283    6.358280
     60          1           0        8.151381   -2.879557    6.801205
     61          1           0        6.967579   -4.298463    6.683761
     62          1           0        6.480729   -2.610244    6.374208
     63          1           0        7.942011   -5.480197    0.028826
     64          1           0        9.483808   -4.638308   -2.375768
     65          1           0        9.891691   -6.584489    0.319816
     66          1           0       10.671770   -4.994267    0.622145
     67          1           0       10.677164   -5.643163   -0.935378
     68          1           0        7.553240   -6.262475   -2.433242
     69          1           0        7.506541   -5.011400   -3.670366
     70          1           0        5.960991   -5.405457   -1.220329
     71          1           0        5.344182   -4.963356   -2.848452
     72          1           0        6.110575   -3.735527   -1.744013
     73          1           0        7.960726    0.259222   -6.048724
     74          1           0        8.499320   -1.379590   -5.535617
     75          1           0        9.700449   -0.022274   -5.558943
     76          1           0        9.386414    4.072792   -2.509142
     77          1           0        7.160519    7.719768   -3.112839
     78          1           0        6.831836    7.356561   -1.312900
     79          1           0        5.869731    6.738539   -2.668678
     80         12           0       -7.744751   -0.837334   -0.059687
     81          6           0      -10.263706    1.705555    0.200373
     82          6           0       -5.436569    1.671225   -0.178016
     83          6           0       -5.549072   -3.024267   -0.740707
     84          6           0      -10.260721   -3.032155   -1.058859
     85          7           0       -7.947078    1.364084    0.011485
     86          6           0       -8.948839    2.215291    0.173573
     87          6           0       -8.511827    3.688174    0.395406
     88          6           0       -7.070918    3.620372   -0.310318
     89          6           0       -6.775463    2.133979   -0.120464
     90          6           0       -7.116623    3.911654   -1.801085
     91          6           0       -8.389785    4.052784    1.916647
     92          6           0       -8.269273    5.549531    2.211548
     93          1           0       -8.900350    6.073962    3.419526
     94          7           0       -5.766486   -0.756888    0.076633
     95          6           0       -4.992027    0.347439    0.032442
     96          6           0       -3.605408   -0.128438    0.154805
     97          6           0       -3.614211   -1.615907    0.109159
     98          6           0       -5.005214   -1.861468   -0.214715
     99          6           0       -2.444316    0.796575    0.377624
    100          6           0       -2.544565   -2.646386    0.309586
    101          8           0       -2.723810   -3.874223   -0.011534
    102          6           0       -1.249281   -2.158876    0.805647
    103          7           0       -7.844088   -2.691538   -0.994774
    104          6           0       -6.750280   -3.464056   -1.116201
    105          6           0       -7.114372   -4.857767   -1.569386
    106          6           0       -8.710163   -4.930921   -1.493959
    107          6           0       -9.010834   -3.474438   -1.077241
    108          6           0       -6.653453   -5.241818   -2.975256
    109          6           0       -9.322814   -6.082488   -0.650621
    110          6           0       -9.009984   -5.872847    0.813472
    111          7           0       -9.899519   -0.771500   -0.203554
    112          6           0      -10.754761   -1.793104   -0.671479
    113          6           0      -12.124415   -1.239804   -0.689993
    114          6           0      -11.966536    0.083037   -0.249925
    115          6           0      -10.592640    0.342439    0.004274
    116          6           0      -13.293405   -1.926942   -1.122913
    117          6           0      -12.648361    1.322189    0.047219
    118          8           0      -13.825947    1.674597    0.100580
    119          6           0      -11.560299    2.466163    0.231154
    120          6           0      -11.895514    3.229025    1.483426
    121          8           0      -11.833051    2.676581    2.595864
    122          8           0      -12.022229    4.534526    1.183485
    123          6           0      -12.343829    5.334141    2.395518
    124          1           0       -4.654110    2.379604   -0.451598
    125          1           0       -4.846999   -3.847975   -0.889220
    126          1           0      -11.113315   -3.682964   -1.264277
    127          1           0       -9.133292    4.425650   -0.098241
    128          1           0       -6.341471    4.225165    0.222133
    129          1           0       -8.130051    4.000375   -2.163372
    130          1           0       -6.615504    3.079986   -2.278819
    131          1           0       -6.516927    4.797068   -2.030729
    132          1           0       -7.416801    3.708717    2.290367
    133          1           0       -9.207474    3.639285    2.474335
    134          1           0       -8.533930    6.163566    1.342135
    135          1           0       -7.217779    5.783543    2.394857
    136          1           0       -2.723770    1.842617    0.201210
    137          1           0       -1.706651    0.577336   -0.401892
    138          1           0       -1.977256    0.658425    1.355085
    139          1           0       -0.853786   -1.417869    0.115026
    140          1           0       -0.644067   -3.052552    0.969733
    141          1           0       -1.410995   -1.645079    1.759840
    142          1           0       -6.696568   -5.602559   -0.903181
    143          1           0       -9.159007   -5.072361   -2.488125
    144          1           0       -6.020911   -6.149340   -2.994507
    145          1           0       -6.124451   -4.400445   -3.402776
    146          1           0       -7.453572   -5.402011   -3.695916
    147          1           0       -8.872354   -7.037944   -0.930529
    148          1           0      -10.395930   -6.184121   -0.773434
    149          1           0       -8.002233   -6.287279    0.912298
    150          1           0       -9.720800   -6.410374    1.437860
    151          1           0       -8.952400   -4.805062    1.054641
    152          1           0      -14.070343   -1.703014   -0.404071
    153          1           0      -13.119178   -2.998107   -1.200443
    154          1           0      -13.440957   -1.463147   -2.101886
    155          1           0      -11.597373    3.099275   -0.656187
    156          1           0      -13.264299    5.885357    2.179658
    157          1           0      -11.437333    5.931272    2.608671
    158          1           0      -12.625893    4.794246    3.291847
 ---------------------------------------------------------------------

 SCF Done:  E(RCAM-B3LYP) =  -4069.81192872     A.U. after   19 cycles

 Excitation energies and oscillator strengths:

 Excited State   1:      Singlet-A      1.6755 eV  739.97 nm  f=0.4041  <S**2>=0.000
     310 -> 316       -0.17363
     312 -> 314        0.68582
     310 <- 316       -0.10468
 This state for optimization and/or second-order correction.
 Total Energy, E(TD-HF/TD-DFT) =  -4069.75035450
 Copying the excited state density for this state as the 1-particle RhoCI density.

 Excited State   2:      Singlet-A      1.6795 eV  738.21 nm  f=0.3818  <S**2>=0.000
     309 -> 315        0.17570
     311 -> 313        0.68547
     309 <- 315        0.10528

 Excited State   3:      Singlet-A      2.1864 eV  567.06 nm  f=0.0534  <S**2>=0.000
     309 -> 313       -0.15485
     310 -> 314        0.62368
     312 -> 316        0.26520

 Excited State   4:      Singlet-A      2.1936 eV  565.21 nm  f=0.1390  <S**2>=0.000
     309 -> 313        0.62177
     310 -> 314        0.15379
     311 -> 315       -0.27078

 Excited State   5:      Singlet-A      2.7311 eV  453.97 nm  f=0.0000  <S**2>=0.000
     312 -> 313        0.70699

 The electronic state is 1-A.
 Alpha  occ. eigenvalues --  -46.87916 -46.87575 -19.26458 -19.26297 -19.19199
 Alpha  occ. eigenvalues --  -19.19104 -19.18906 -19.18607 -19.18296 -19.17975
 Alpha  occ. eigenvalues --  -14.42571 -14.42412 -14.41558 -14.41275 -14.39520
 Alpha  occ. eigenvalues --  -14.39263 -14.38707 -14.38516 -10.39253 -10.39033
 Alpha  occ. eigenvalues --  -10.35538 -10.35282 -10.34518 -10.34153 -10.31863
 Alpha  occ. eigenvalues --  -10.31714 -10.31529 -10.31225 -10.31034 -10.30933
 Alpha  occ. eigenvalues --  -10.30689 -10.30619 -10.30314 -10.30304 -10.30275
 Alpha  occ. eigenvalues --  -10.30051 -10.30023 -10.29817 -10.29742 -10.29364
 Alpha  occ. eigenvalues --  -10.29343 -10.29309 -10.28893 -10.28721 -10.28641
 Alpha  occ. eigenvalues --  -10.28603 -10.28486 -10.28316 -10.28248 -10.28053
 Alpha  occ. eigenvalues --  -10.27912 -10.27907 -10.27844 -10.27696 -10.27590
 Alpha  occ. eigenvalues --  -10.27576 -10.27568 -10.27525 -10.27517 -10.27444
 Alpha  occ. eigenvalues --  -10.27400 -10.27370 -10.27315 -10.27301 -10.27296
 Alpha  occ. eigenvalues --  -10.26978 -10.26883 -10.26630 -10.26493 -10.26351
 Alpha  occ. eigenvalues --  -10.26281 -10.26225 -10.26123 -10.26074 -10.25944
 Alpha  occ. eigenvalues --  -10.25923 -10.25850 -10.25781 -10.25493 -10.25322
 Alpha  occ. eigenvalues --  -10.24950 -10.24894 -10.24787 -10.24717 -10.24672
 Alpha  occ. eigenvalues --  -10.24605  -3.16660  -3.16325  -1.91542  -1.91208
 Alpha  occ. eigenvalues --   -1.91128  -1.90970  -1.90796  -1.90633  -1.16806
 Alpha  occ. eigenvalues --   -1.16590  -1.08758  -1.08585  -1.07305  -1.06889
 Alpha  occ. eigenvalues --   -1.06859  -1.06819  -1.04703  -1.04409  -1.03871
 Alpha  occ. eigenvalues --   -1.03577  -1.03348  -1.02953  -1.02524  -1.02026
 Alpha  occ. eigenvalues --   -0.92096  -0.91905  -0.89608  -0.89416  -0.89324
 Alpha  occ. eigenvalues --   -0.89069  -0.88371  -0.88143  -0.87983  -0.87792
 Alpha  occ. eigenvalues --   -0.87713  -0.87599  -0.87380  -0.87008  -0.85114
 Alpha  occ. eigenvalues --   -0.84918  -0.84016  -0.83803  -0.83058  -0.82825
 Alpha  occ. eigenvalues --   -0.82772  -0.82564  -0.81724  -0.81527  -0.80720
 Alpha  occ. eigenvalues --   -0.80363  -0.78906  -0.78535  -0.77329  -0.77061
 Alpha  occ. eigenvalues --   -0.77059  -0.76826  -0.76052  -0.75756  -0.74989
 Alpha  occ. eigenvalues --   -0.74724  -0.72884  -0.72614  -0.71784  -0.71498
 Alpha  occ. eigenvalues --   -0.69975  -0.69685  -0.68999  -0.68744  -0.67756
 Alpha  occ. eigenvalues --   -0.67518  -0.67357  -0.67116  -0.65420  -0.65193
 Alpha  occ. eigenvalues --   -0.64975  -0.64739  -0.64690  -0.64577  -0.64361
 Alpha  occ. eigenvalues --   -0.64127  -0.62438  -0.62211  -0.60543  -0.60240
 Alpha  occ. eigenvalues --   -0.59933  -0.59712  -0.59100  -0.58911  -0.58619
 Alpha  occ. eigenvalues --   -0.58344  -0.57722  -0.57483  -0.57413  -0.57152
 Alpha  occ. eigenvalues --   -0.56425  -0.56129  -0.56115  -0.55816  -0.55631
 Alpha  occ. eigenvalues --   -0.55442  -0.55361  -0.55175  -0.54638  -0.54420
 Alpha  occ. eigenvalues --   -0.54033  -0.53832  -0.53406  -0.53346  -0.53141
 Alpha  occ. eigenvalues --   -0.53055  -0.53044  -0.52868  -0.52825  -0.52556
 Alpha  occ. eigenvalues --   -0.52503  -0.52332  -0.52025  -0.51810  -0.51750
 Alpha  occ. eigenvalues --   -0.51571  -0.51311  -0.51124  -0.50670  -0.50357
 Alpha  occ. eigenvalues --   -0.50115  -0.50022  -0.49886  -0.49781  -0.49635
 Alpha  occ. eigenvalues --   -0.49393  -0.49335  -0.49222  -0.49112  -0.49024
 Alpha  occ. eigenvalues --   -0.48721  -0.48558  -0.48550  -0.48478  -0.48300
 Alpha  occ. eigenvalues --   -0.48236  -0.47808  -0.47504  -0.47405  -0.47020
 Alpha  occ. eigenvalues --   -0.46905  -0.46690  -0.46628  -0.46471  -0.46470
 Alpha  occ. eigenvalues --   -0.46273  -0.46182  -0.46009  -0.45949  -0.45752
 Alpha  occ. eigenvalues --   -0.45287  -0.45129  -0.44701  -0.44614  -0.44436
 Alpha  occ. eigenvalues --   -0.44392  -0.44248  -0.44207  -0.44137  -0.44043
 Alpha  occ. eigenvalues --   -0.43995  -0.43842  -0.43626  -0.43501  -0.43486
 Alpha  occ. eigenvalues --   -0.43305  -0.43140  -0.42862  -0.42848  -0.42824
 Alpha  occ. eigenvalues --   -0.42740  -0.42471  -0.42109  -0.41892  -0.41820
 Alpha  occ. eigenvalues --   -0.41662  -0.41589  -0.41381  -0.41254  -0.40988
 Alpha  occ. eigenvalues --   -0.40927  -0.40905  -0.40659  -0.40637  -0.40608
 Alpha  occ. eigenvalues --   -0.40418  -0.40387  -0.40150  -0.39503  -0.39355
 Alpha  occ. eigenvalues --   -0.38561  -0.38275  -0.37896  -0.37583  -0.37416
 Alpha  occ. eigenvalues --   -0.37399  -0.37187  -0.37117  -0.36860  -0.36711
 Alpha  occ. eigenvalues --   -0.36314  -0.36143  -0.34403  -0.34170  -0.33939
 Alpha  occ. eigenvalues --   -0.33800  -0.33304  -0.33091  -0.31436  -0.31168
 Alpha  occ. eigenvalues --   -0.31150  -0.30887  -0.30157  -0.29881  -0.29562
 Alpha  occ. eigenvalues --   -0.29439  -0.29232  -0.29125  -0.24197  -0.23952
 Alpha  occ. eigenvalues --   -0.21241  -0.21030
 Alpha virt. eigenvalues --   -0.08888  -0.08702  -0.01860  -0.01597  -0.00169
 Alpha virt. eigenvalues --    0.00069   0.02084   0.02288   0.02960   0.03299
 Alpha virt. eigenvalues --    0.04590   0.04810   0.04932   0.05226   0.06020

 Mulliken charges:
               1
     1  Mg   0.837852
     2  C   -0.003440
     3  C   -0.094423
     4  C   -0.045659
     5  C   -0.063668
     6  N   -0.256801
     7  C   -0.052737
     8  C   -0.013902
     9  C   -0.086943
    10  C    0.046105
    11  C    0.104752
    12  C    0.053561
    13  C   -0.071605
    14  H    0.035216
    15  N   -0.433235
    16  C    0.168249
    17  C   -0.177281
    18  C   -0.003925
    19  C    0.148576
    20  C    0.110161
    21  C    0.012297
    22  O   -0.249034
    23  C    0.062513
    24  N   -0.341153
    25  C    0.041284
    26  C   -0.028268
    27  C   -0.024069
    28  C    0.074815
    29  C    0.076059
    30  C    0.035016
    31  C   -0.004579
    32  N   -0.310424
    33  C    0.080210
    34  C   -0.169701
    35  C    0.008309
    36  C    0.082681
    37  C    0.127335
    38  C    0.045892
    39  O   -0.188532
    40  C   -0.005261
    41  C    0.213034
    42  O   -0.258094
    43  O   -0.304496
    44  C    0.157825
    45  H   -0.017460
    46  H   -0.016350
    47  H   -0.041137
    48  H    0.001060
    49  H   -0.004162
    50  H    0.025580
    51  H    0.016693
    52  H    0.016827
    53  H    0.010734
    54  H    0.043352
    55  H    0.018356
    56  H    0.018035
    57  H    0.005827
    58  H    0.027192
    59  H    0.039345
    60  H    0.037465
    61  H    0.036192
    62  H    0.031106
    63  H    0.017062
    64  H    0.009621
    65  H    0.023632
    66  H    0.012478
    67  H    0.004928
    68  H    0.006908
    69  H    0.004795
    70  H    0.009407
    71  H    0.019019
    72  H    0.028003
    73  H    0.047427
    74  H    0.009423
    75  H    0.046195
    76  H    0.035375
    77  H    0.043231
    78  H    0.046367
    79  H    0.052957
    80  Mg   0.837630
    81  C   -0.016872
    82  C   -0.087767
    83  C   -0.045395
    84  C   -0.064907
    85  N   -0.254560
    86  C   -0.049976
    87  C   -0.015132
    88  C   -0.090416
    89  C    0.045624
    90  C    0.114272
    91  C    0.062580
    92  C   -0.077715
    93  H    0.034387
    94  N   -0.423568
    95  C    0.162773
    96  C   -0.174129
    97  C   -0.007692
    98  C    0.152135
    99  C    0.098970
   100  C    0.015687
   101  O   -0.253269
   102  C    0.061037
   103  N   -0.350029
   104  C    0.037592
   105  C   -0.019869
   106  C   -0.034729
   107  C    0.088774
   108  C    0.073636
   109  C    0.034795
   110  C   -0.007641
   111  N   -0.324020
   112  C    0.078253
   113  C   -0.163323
   114  C    0.002155
   115  C    0.096034
   116  C    0.131528
   117  C    0.042209
   118  O   -0.188261
   119  C    0.000970
   120  C    0.211204
   121  O   -0.251172
   122  O   -0.305582
   123  C    0.152120
   124  H   -0.018833
   125  H   -0.015540
   126  H   -0.040690
   127  H   -0.000737
   128  H   -0.004317
   129  H    0.022316
   130  H    0.014842
   131  H    0.016624
   132  H    0.013800
   133  H    0.037509
   134  H    0.020855
   135  H    0.019524
   136  H    0.009240
   137  H    0.028170
   138  H    0.039382
   139  H    0.039512
   140  H    0.036611
   141  H    0.033287
   142  H    0.014308
   143  H    0.012318
   144  H    0.025023
   145  H    0.011935
   146  H    0.005590
   147  H    0.006120
   148  H    0.003507
   149  H    0.010903
   150  H    0.017714
   151  H    0.030146
   152  H    0.045759
   153  H    0.008348
   154  H    0.046818
   155  H    0.034984
   156  H    0.043776
   157  H    0.049437
   158  H    0.053417
 Sum of Mulliken charges =  -0.00000

 Dipole moment (field-independent basis, Debye):
    X=              5.8882    Y=              2.5428    Z=              2.8719  Tot=              7.0274
 Quadrupole moment (field-independent basis, Debye-Ang):
   XX=           -561.5774   YY=           -477.1537   ZZ=           -509.8751
   XY=             16.1312   XZ=             50.6782   YZ=             43.4543

 Normal termination of Gaussian 16 at Sun Sep 12 08:45:57 2021.
