 Gaussian 16, Revision A.03,
 Gaussian 16:  ES64L-G16RevA.03 25-Dec-2016

 -----------------------------------
 #p cam-b3lyp/Def2SVP td=(nstates=5)
 -----------------------------------

 --------------------------------
 TDDFT excited states in gaussian
 --------------------------------
 Symbolic Z-matrix:
 Charge =  0 Multiplicity = 1

                         Standard orientation:
 ---------------------------------------------------------------------
 Center     Atomic      Atomic             Coordinates (Angstroms)
 Number     Number       Type             X           Y           Z
 ---------------------------------------------------------------------
      1         12           0        4.736465    0.294552    0.779648
      2          6           0        5.039655   -2.763675   -1.055438
      3          6           0        6.041496    1.884130   -1.943071
      4          6           0        4.902915    2.930875    2.534274
      5          6           0        4.540786   -1.634583    3.675474
      6          7           0        5.413791   -0.453474   -1.190716
      7          6           0        5.421319   -1.639497   -1.791102
      8          6           0        5.801212   -1.565595   -3.300272
      9          6           0        6.620751   -0.198052   -3.286881
     10          6           0        5.963329    0.467397   -2.090679
     11          6           0        8.106144   -0.380780   -2.992401
     12          6           0        4.542209   -1.469948   -4.226282
     13          6           0        4.804657   -1.721638   -5.713940
     14          1           0        3.789096   -2.408293   -6.497833
     15          7           0        4.911312    2.185983    0.236725
     16          6           0        5.453100    2.651330   -0.914450
     17          6           0        5.349526    4.124906   -0.847166
     18          6           0        4.876730    4.485946    0.518194
     19          6           0        4.903501    3.200338    1.167711
     20          6           0        5.634996    5.023809   -2.010880
     21          6           0        4.475992    5.785315    1.142038
     22          8           0        4.319928    5.914213    2.404418
     23          6           0        4.355470    6.940402    0.234132
     24          7           0        4.944778    0.624709    2.830315
     25          6           0        4.930032    1.863349    3.334835
     26          6           0        4.808932    1.842597    4.829774
     27          6           0        4.497956    0.327614    5.227106
     28          6           0        4.580235   -0.307775    3.817219
     29          6           0        6.038250    2.332166    5.607662
     30          6           0        3.229881    0.070234    6.079256
     31          6           0        1.993267    0.380232    5.265753
     32          7           0        4.601441   -1.820823    1.246554
     33          6           0        4.553133   -2.401273    2.522257
     34          6           0        4.576659   -3.863332    2.332791
     35          6           0        4.654248   -4.032777    0.951808
     36          6           0        4.704178   -2.757295    0.320187
     37          6           0        4.586534   -4.837939    3.369361
     38          6           0        4.731430   -4.994644   -0.135717
     39          8           0        4.637136   -6.220150   -0.217807
     40          6           0        5.106820   -4.212261   -1.470927
     41          6           0        4.168045   -4.678485   -2.550115
     42          8           0        2.948779   -4.418558   -2.493596
     43          8           0        4.879880   -5.145172   -3.587436
     44          6           0        4.008938   -5.596870   -4.705284
     45          1           0        6.656383    2.454502   -2.642021
     46          1           0        4.848240    3.814925    3.172949
     47          1           0        4.397367   -2.300531    4.528350
     48          1           0        6.438778   -2.378292   -3.648781
     49          1           0        6.448315    0.388564   -4.189028
     50          1           0        8.333186   -1.409332   -2.712304
     51          1           0        8.324416    0.295866   -2.165963
     52          1           0        8.712465   -0.035725   -3.830309
     53          1           0        4.205967   -0.434041   -4.269873
     54          1           0        3.756593   -2.142407   -3.879969
     55          1           0        5.782975   -2.175402   -5.874883
     56          1           0        4.867283   -0.757006   -6.217689
     57          1           0        6.119910    4.484776   -2.823805
     58          1           0        6.381613    5.745510   -1.680094
     59          1           0        4.742696    5.548470   -2.352733
     60          1           0        5.311420    7.109479   -0.261976
     61          1           0        3.974293    7.761151    0.840699
     62          1           0        3.640434    6.698036   -0.552590
     63          1           0        3.987942    2.475378    5.164423
     64          1           0        5.304995   -0.116109    5.810606
     65          1           0        5.826213    3.158294    6.286821
     66          1           0        6.806567    2.606931    4.885523
     67          1           0        6.549459    1.562896    6.185853
     68          1           0        3.216227    0.728626    6.947173
     69          1           0        3.154697   -0.955663    6.439995
     70          1           0        1.888453    1.458204    5.383323
     71          1           0        1.128119   -0.143011    5.674341
     72          1           0        2.154027    0.182156    4.205843
     73          1           0        3.885992   -5.615098    3.064022
     74          1           0        4.301320   -4.401232    4.326201
     75          1           0        5.631498   -5.146763    3.346214
     76          1           0        6.144160   -4.457328   -1.696734
     77          1           0        4.272753   -6.632632   -4.919370
     78          1           0        4.130223   -4.867836   -5.506661
     79          1           0        2.946977   -5.697649   -4.478522
     80         12           0       -4.182987    0.700658   -0.360727
     81          6           0       -6.943839   -1.513910    0.232913
     82          6           0       -6.438689    2.939793   -1.598722
     83          6           0       -1.738817    2.488011   -1.308805
     84          6           0       -2.089997   -2.078581   -0.158232
     85          7           0       -6.380094    0.609647   -0.598788
     86          6           0       -7.328951   -0.258146   -0.281064
     87          6           0       -8.775280    0.278666   -0.452943
     88          6           0       -8.480610    1.418132   -1.545490
     89          6           0       -7.018431    1.705545   -1.210642
     90          6           0       -8.552363    0.912517   -2.976755
     91          6           0       -9.347735    0.889586    0.874122
     92          6           0      -10.855582    1.150447    0.863957
     93          1           0      -11.604308    0.953956    2.102209
     94          7           0       -4.111939    2.621611   -0.854110
     95          6           0       -5.126919    3.380820   -1.317471
     96          6           0       -4.556581    4.716873   -1.549459
     97          6           0       -3.084919    4.641231   -1.341619
     98          6           0       -2.915115    3.211514   -1.176840
     99          6           0       -5.400850    5.920785   -1.851533
    100          6           0       -2.006873    5.681935   -1.310664
    101          8           0       -0.765214    5.366631   -1.351839
    102          6           0       -2.448652    7.084111   -1.325028
    103          7           0       -2.226956    0.244182   -0.897315
    104          6           0       -1.353689    1.214897   -1.218329
    105          6           0        0.054931    0.676656   -1.298824
    106          6           0       -0.021508   -0.814424   -0.725750
    107          6           0       -1.543855   -0.915545   -0.485685
    108          6           0        0.679783    0.654122   -2.693609
    109          6           0        0.936450   -1.168586    0.444527
    110          6           0        0.541535   -0.400477    1.685264
    111          7           0       -4.412253   -1.384788    0.155418
    112          6           0       -3.410432   -2.379979    0.149979
    113          6           0       -4.070876   -3.664279    0.461154
    114          6           0       -5.425476   -3.328151    0.604499
    115          6           0       -5.600151   -1.936241    0.377397
    116          6           0       -3.430803   -4.933848    0.529150
    117          6           0       -6.748926   -3.836130    0.885838
    118          8           0       -7.205432   -4.922750    1.238838
    119          6           0       -7.809508   -2.705981    0.533272
    120          6           0       -8.774215   -2.599568    1.682417
    121          8           0       -8.388055   -2.207292    2.797587
    122          8           0      -10.027442   -2.768382    1.222738
    123          6           0      -11.021269   -2.660515    2.323866
    124          1           0       -7.029094    3.619792   -2.213472
    125          1           0       -0.844853    3.077060   -1.526339
    126          1           0       -1.491933   -2.974871    0.019672
    127          1           0       -9.482898   -0.440638   -0.847457
    128          1           0       -9.092032    2.299749   -1.371485
    129          1           0       -8.673779   -0.159662   -3.019666
    130          1           0       -7.619446    1.206448   -3.439694
    131          1           0       -9.339413    1.439512   -3.523703
    132          1           0       -8.979873    1.917993    0.982735
    133          1           0       -9.092715    0.276744    1.716746
    134          1           0      -11.355578    0.645796    0.028322
    135          1           0      -11.022580    2.213429    0.673689
    136          1           0       -6.429718    5.637156   -2.105309
    137          1           0       -5.006668    6.364982   -2.771943
    138          1           0       -5.368225    6.668431   -1.056151
    139          1           0       -3.043207    7.266303   -2.217088
    140          1           0       -1.540051    7.677981   -1.208261
    141          1           0       -3.109163    7.251619   -0.466959
    142          1           0        0.726844    1.257400   -0.678838
    143          1           0        0.225405   -1.560039   -1.495774
    144          1           0        1.631327    1.215281   -2.754712
    145          1           0       -0.040867    1.049823   -3.396905
    146          1           0        0.874692   -0.338352   -3.096343
    147          1           0        1.957883   -0.864345    0.203136
    148          1           0        0.962241   -2.228174    0.676042
    149          1           0        1.022151    0.571233    1.537365
    150          1           0        0.918168   -0.895280    2.578216
    151          1           0       -0.541143   -0.231513    1.715581
    152          1           0       -3.824060   -5.434327    1.404006
    153          1           0       -2.348890   -4.831348    0.581524
    154          1           0       -3.756563   -5.367602   -0.420059
    155          1           0       -8.306079   -2.999960   -0.392232
    156          1           0      -11.611952   -3.581739    2.312504
    157          1           0      -11.562950   -1.712598    2.145593
    158          1           0      -10.645366   -2.662831    3.340302
 ---------------------------------------------------------------------

 SCF Done:  E(RCAM-B3LYP) =  -4069.81424618     A.U. after   19 cycles

 Excitation energies and oscillator strengths:

 Excited State   1:      Singlet-A      1.6398 eV  756.08 nm  f=0.0020  <S**2>=0.000
     309 -> 315       -0.11398
     310 -> 316        0.11817
     311 -> 313       -0.47488
     312 -> 314        0.49772
 This state for optimization and/or second-order correction.
 Total Energy, E(TD-HF/TD-DFT) =  -4069.75398344
 Copying the excited state density for this state as the 1-particle RhoCI density.

 Excited State   2:      Singlet-A      1.7043 eV  727.49 nm  f=0.6847  <S**2>=0.000
     309 -> 315        0.13212
     310 -> 316        0.12410
     311 -> 313        0.49514
     312 -> 314        0.47222

 Excited State   3:      Singlet-A      2.1820 eV  568.21 nm  f=0.1115  <S**2>=0.000
     310 -> 314        0.64131
     312 -> 316       -0.26859

 Excited State   4:      Singlet-A      2.1978 eV  564.12 nm  f=0.0906  <S**2>=0.000
     309 -> 313        0.63711
     311 -> 315       -0.27891

 Excited State   5:      Singlet-A      2.3418 eV  529.44 nm  f=0.0002  <S**2>=0.000
     312 -> 313        0.70472

 The electronic state is 1-A.
 Alpha  occ. eigenvalues --  -46.87924 -46.87415 -19.26494 -19.26190 -19.19303
 Alpha  occ. eigenvalues --  -19.18991 -19.18645 -19.18600 -19.18255 -19.17836
 Alpha  occ. eigenvalues --  -14.42536 -14.42259 -14.41498 -14.41090 -14.39461
 Alpha  occ. eigenvalues --  -14.39119 -14.38676 -14.38346 -10.39329 -10.38915
 Alpha  occ. eigenvalues --  -10.35282 -10.35267 -10.34488 -10.34012 -10.31854
 Alpha  occ. eigenvalues --  -10.31618 -10.31520 -10.31062 -10.30968 -10.30825
 Alpha  occ. eigenvalues --  -10.30663 -10.30561 -10.30201 -10.30140 -10.30098
 Alpha  occ. eigenvalues --  -10.29981 -10.29846 -10.29651 -10.29609 -10.29276
 Alpha  occ. eigenvalues --  -10.29190 -10.29156 -10.28858 -10.28667 -10.28541
 Alpha  occ. eigenvalues --  -10.28521 -10.28420 -10.28208 -10.28188 -10.27953
 Alpha  occ. eigenvalues --  -10.27829 -10.27794 -10.27759 -10.27573 -10.27491
 Alpha  occ. eigenvalues --  -10.27460 -10.27431 -10.27422 -10.27336 -10.27307
 Alpha  occ. eigenvalues --  -10.27285 -10.27248 -10.27241 -10.27081 -10.27003
 Alpha  occ. eigenvalues --  -10.26878 -10.26847 -10.26536 -10.26353 -10.26302
 Alpha  occ. eigenvalues --  -10.26086 -10.26063 -10.26038 -10.25893 -10.25855
 Alpha  occ. eigenvalues --  -10.25759 -10.25584 -10.25432 -10.25404 -10.25085
 Alpha  occ. eigenvalues --  -10.24897 -10.24821 -10.24631 -10.24523 -10.24509
 Alpha  occ. eigenvalues --  -10.24449  -3.16633  -3.16165  -1.91520  -1.91101
 Alpha  occ. eigenvalues --   -1.91048  -1.90943  -1.90636  -1.90473  -1.16849
 Alpha  occ. eigenvalues --   -1.16481  -1.08731  -1.08445  -1.07035  -1.06897
 Alpha  occ. eigenvalues --   -1.06858  -1.06774  -1.04659  -1.04264  -1.03807
 Alpha  occ. eigenvalues --   -1.03415  -1.03288  -1.02774  -1.02466  -1.01858
 Alpha  occ. eigenvalues --   -0.92057  -0.91752  -0.89522  -0.89285  -0.89186
 Alpha  occ. eigenvalues --   -0.88952  -0.88281  -0.87939  -0.87907  -0.87734
 Alpha  occ. eigenvalues --   -0.87504  -0.87430  -0.87186  -0.86936  -0.85050
 Alpha  occ. eigenvalues --   -0.84796  -0.83926  -0.83600  -0.82859  -0.82768
 Alpha  occ. eigenvalues --   -0.82618  -0.82458  -0.81685  -0.81380  -0.80637
 Alpha  occ. eigenvalues --   -0.80228  -0.78770  -0.78409  -0.77242  -0.77007
 Alpha  occ. eigenvalues --   -0.76913  -0.76667  -0.75996  -0.75628  -0.74907
 Alpha  occ. eigenvalues --   -0.74532  -0.72815  -0.72430  -0.71724  -0.71337
 Alpha  occ. eigenvalues --   -0.69884  -0.69419  -0.68916  -0.68623  -0.67676
 Alpha  occ. eigenvalues --   -0.67371  -0.67243  -0.67030  -0.65377  -0.65069
 Alpha  occ. eigenvalues --   -0.64928  -0.64675  -0.64516  -0.64425  -0.64275
 Alpha  occ. eigenvalues --   -0.63910  -0.62414  -0.62052  -0.60395  -0.60124
 Alpha  occ. eigenvalues --   -0.59887  -0.59585  -0.59042  -0.58738  -0.58555
 Alpha  occ. eigenvalues --   -0.58181  -0.57714  -0.57337  -0.57315  -0.56983
 Alpha  occ. eigenvalues --   -0.56350  -0.56098  -0.55956  -0.55692  -0.55482
 Alpha  occ. eigenvalues --   -0.55389  -0.55265  -0.54982  -0.54597  -0.54237
 Alpha  occ. eigenvalues --   -0.53990  -0.53720  -0.53328  -0.53200  -0.53020
 Alpha  occ. eigenvalues --   -0.52995  -0.52922  -0.52694  -0.52644  -0.52521
 Alpha  occ. eigenvalues --   -0.52384  -0.52205  -0.51968  -0.51642  -0.51564
 Alpha  occ. eigenvalues --   -0.51476  -0.51258  -0.50976  -0.50396  -0.50318
 Alpha  occ. eigenvalues --   -0.49996  -0.49905  -0.49783  -0.49600  -0.49504
 Alpha  occ. eigenvalues --   -0.49314  -0.49236  -0.49151  -0.49001  -0.48883
 Alpha  occ. eigenvalues --   -0.48669  -0.48481  -0.48355  -0.48346  -0.48189
 Alpha  occ. eigenvalues --   -0.48091  -0.47697  -0.47372  -0.47290  -0.46890
 Alpha  occ. eigenvalues --   -0.46841  -0.46636  -0.46442  -0.46412  -0.46340
 Alpha  occ. eigenvalues --   -0.46220  -0.46003  -0.45920  -0.45803  -0.45563
 Alpha  occ. eigenvalues --   -0.45198  -0.44989  -0.44666  -0.44478  -0.44331
 Alpha  occ. eigenvalues --   -0.44225  -0.44172  -0.44102  -0.43968  -0.43937
 Alpha  occ. eigenvalues --   -0.43838  -0.43751  -0.43575  -0.43435  -0.43338
 Alpha  occ. eigenvalues --   -0.43168  -0.43056  -0.42857  -0.42749  -0.42669
 Alpha  occ. eigenvalues --   -0.42611  -0.42313  -0.42033  -0.41768  -0.41753
 Alpha  occ. eigenvalues --   -0.41551  -0.41439  -0.41265  -0.41179  -0.40893
 Alpha  occ. eigenvalues --   -0.40785  -0.40696  -0.40590  -0.40561  -0.40479
 Alpha  occ. eigenvalues --   -0.40295  -0.40148  -0.40072  -0.39410  -0.39023
 Alpha  occ. eigenvalues --   -0.38478  -0.38054  -0.37847  -0.37462  -0.37350
 Alpha  occ. eigenvalues --   -0.37332  -0.36999  -0.36962  -0.36877  -0.36569
 Alpha  occ. eigenvalues --   -0.36271  -0.35932  -0.34347  -0.34008  -0.33997
 Alpha  occ. eigenvalues --   -0.33677  -0.33252  -0.32921  -0.31218  -0.31159
 Alpha  occ. eigenvalues --   -0.31056  -0.30731  -0.30125  -0.29738  -0.29458
 Alpha  occ. eigenvalues --   -0.29354  -0.29114  -0.28964  -0.24154  -0.23780
 Alpha  occ. eigenvalues --   -0.21174  -0.20866
 Alpha virt. eigenvalues --   -0.08801  -0.08554  -0.01798  -0.01456  -0.00015
 Alpha virt. eigenvalues --    0.00150   0.02137   0.02406   0.02891   0.03582
 Alpha virt. eigenvalues --    0.04627   0.04833   0.04949   0.05348   0.05948

 Mulliken charges:
               1
     1  Mg   0.800296
     2  C   -0.003795
     3  C   -0.092992
     4  C   -0.043942
     5  C   -0.063431
     6  N   -0.252222
     7  C   -0.056019
     8  C   -0.012212
     9  C   -0.087319
    10  C    0.046880
    11  C    0.104632
    12  C    0.048478
    13  C   -0.071688
    14  H    0.035866
    15  N   -0.434513
    16  C    0.169391
    17  C   -0.174303
    18  C   -0.000730
    19  C    0.149591
    20  C    0.109545
    21  C    0.017409
    22  O   -0.249444
    23  C    0.059004
    24  N   -0.336410
    25  C    0.043849
    26  C   -0.028590
    27  C   -0.024236
    28  C    0.073053
    29  C    0.076401
    30  C    0.035496
    31  C   -0.007338
    32  N   -0.310441
    33  C    0.077470
    34  C   -0.172757
    35  C    0.007739
    36  C    0.077402
    37  C    0.127577
    38  C    0.043899
    39  O   -0.188737
    40  C   -0.006092
    41  C    0.214302
    42  O   -0.261670
    43  O   -0.303882
    44  C    0.157371
    45  H   -0.017310
    46  H   -0.016438
    47  H   -0.042867
    48  H    0.000727
    49  H   -0.003454
    50  H    0.025734
    51  H    0.017182
    52  H    0.017112
    53  H    0.013097
    54  H    0.043469
    55  H    0.018400
    56  H    0.018779
    57  H    0.005083
    58  H    0.026686
    59  H    0.045266
    60  H    0.035007
    61  H    0.035348
    62  H    0.041907
    63  H    0.017734
    64  H    0.009330
    65  H    0.023647
    66  H    0.012562
    67  H    0.004884
    68  H    0.006418
    69  H    0.004194
    70  H    0.008020
    71  H    0.019121
    72  H    0.030205
    73  H    0.046388
    74  H    0.009551
    75  H    0.046336
    76  H    0.035929
    77  H    0.043918
    78  H    0.046928
    79  H    0.052989
    80  Mg   0.837467
    81  C   -0.017537
    82  C   -0.088421
    83  C   -0.045123
    84  C   -0.065068
    85  N   -0.254642
    86  C   -0.049676
    87  C   -0.015115
    88  C   -0.090398
    89  C    0.045531
    90  C    0.114599
    91  C    0.062623
    92  C   -0.077587
    93  H    0.034357
    94  N   -0.423225
    95  C    0.162492
    96  C   -0.175443
    97  C   -0.008943
    98  C    0.152131
    99  C    0.099640
   100  C    0.015766
   101  O   -0.256456
   102  C    0.061637
   103  N   -0.349899
   104  C    0.036053
   105  C   -0.024574
   106  C   -0.038665
   107  C    0.088143
   108  C    0.068128
   109  C    0.017554
   110  C   -0.021171
   111  N   -0.324241
   112  C    0.078221
   113  C   -0.162055
   114  C    0.001923
   115  C    0.096602
   116  C    0.131036
   117  C    0.042577
   118  O   -0.187946
   119  C    0.000917
   120  C    0.211203
   121  O   -0.251275
   122  O   -0.305648
   123  C    0.152177
   124  H   -0.020693
   125  H   -0.017144
   126  H   -0.031735
   127  H   -0.000953
   128  H   -0.004886
   129  H    0.022289
   130  H    0.014283
   131  H    0.015531
   132  H    0.013886
   133  H    0.037585
   134  H    0.020601
   135  H    0.019317
   136  H    0.008383
   137  H    0.024771
   138  H    0.039093
   139  H    0.037696
   140  H    0.033893
   141  H    0.034797
   142  H    0.014094
   143  H    0.028187
   144  H    0.027806
   145  H    0.008415
   146  H    0.013334
   147  H    0.027326
   148  H    0.017585
   149  H    0.013064
   150  H    0.036226
   151  H    0.027192
   152  H    0.045136
   153  H    0.013892
   154  H    0.047631
   155  H    0.034697
   156  H    0.043655
   157  H    0.049247
   158  H    0.053361
 Sum of Mulliken charges =  -0.00000

 Dipole moment (field-independent basis, Debye):
    X=              1.1614    Y=              6.4277    Z=             -4.8483  Tot=              8.1345
 Quadrupole moment (field-independent basis, Debye-Ang):
   XX=           -455.2131   YY=           -542.4060   ZZ=           -480.3925
   XY=            -30.0033   XZ=              2.7239   YZ=             -9.6702

 Normal termination of Gaussian 16 at Thu Sep  9 12:56:33 2021.
