 Gaussian 16, Revision A.03,
 Gaussian 16:  ES64L-G16RevA.03 25-Dec-2016

 -----------------------------------
 #p cam-b3lyp/Def2SVP td=(nstates=5)
 -----------------------------------

 --------------------------------
 TDDFT excited states in gaussian
 --------------------------------
 Symbolic Z-matrix:
 Charge =  0 Multiplicity = 1

                         Standard orientation:
 ---------------------------------------------------------------------
 Center     Atomic      Atomic             Coordinates (Angstroms)
 Number     Number       Type             X           Y           Z
 ---------------------------------------------------------------------
      1         12           0       -3.982205    0.365196    0.422790
      2          6           0       -3.124141    3.812946    0.857489
      3          6           0       -4.989609    1.168246   -2.736848
      4          6           0       -5.164579   -2.566612    0.171568
      5          6           0       -3.979813    0.079332    3.896108
      6          7           0       -4.002651    2.281762   -0.684912
      7          6           0       -3.590746    3.518807   -0.425635
      8          6           0       -3.630660    4.456641   -1.669117
      9          6           0       -4.736547    3.691793   -2.525866
     10          6           0       -4.542323    2.289445   -1.976664
     11          6           0       -6.161579    4.144397   -2.224309
     12          6           0       -2.257660    4.506946   -2.420163
     13          6           0       -2.113170    5.638030   -3.442476
     14          1           0       -0.813833    6.272293   -3.606134
     15          7           0       -4.480842   -0.682500   -1.176130
     16          6           0       -4.847657   -0.191300   -2.384209
     17          6           0       -5.118993   -1.368212   -3.237401
     18          6           0       -5.063763   -2.579531   -2.372676
     19          6           0       -4.924985   -1.981373   -1.069478
     20          6           0       -5.345072   -1.278440   -4.715433
     21          6           0       -5.136681   -4.043484   -2.672107
     22          8           0       -5.301895   -4.918056   -1.754282
     23          6           0       -5.097871   -4.425649   -4.095302
     24          7           0       -4.715901   -0.995135    1.825938
     25          6           0       -5.112243   -2.218761    1.459010
     26          6           0       -5.326409   -3.103689    2.651056
     27          6           0       -4.757165   -2.298738    3.907149
     28          6           0       -4.367601   -0.983748    3.187906
     29          6           0       -6.778972   -3.516962    2.925424
     30          6           0       -3.687493   -3.010853    4.772663
     31          6           0       -2.412266   -3.178664    3.977218
     32          7           0       -3.450402    1.637506    2.098934
     33          6           0       -3.549896    1.322063    3.461751
     34          6           0       -3.178446    2.534557    4.214048
     35          6           0       -2.902889    3.482182    3.230218
     36          6           0       -3.115686    2.906364    1.945133
     37          6           0       -3.184814    2.671225    5.630280
     38          6           0       -2.501968    4.854532    2.966070
     39          8           0       -2.100027    5.789421    3.660274
     40          6           0       -2.746724    5.159763    1.422452
     41          6           0       -1.507020    5.823972    0.888346
     42          8           0       -0.430268    5.198316    0.807556
     43          8           0       -1.835870    7.003642    0.339913
     44          6           0       -0.655113    7.701389   -0.235515
     45          1           0       -5.551625    1.344187   -3.656154
     46          1           0       -5.467909   -3.614804    0.130059
     47          1           0       -3.874564    0.040393    4.981861
     48          1           0       -3.959876    5.474676   -1.460201
     49          1           0       -4.513349    3.715375   -3.592331
     50          1           0       -6.191351    4.828080   -1.376010
     51          1           0       -6.714807    3.232673   -1.998052
     52          1           0       -6.630343    4.566420   -3.113653
     53          1           0       -2.179264    3.645875   -3.083844
     54          1           0       -1.431140    4.554816   -1.710305
     55          1           0       -2.892411    6.390374   -3.317293
     56          1           0       -2.291779    5.225677   -4.435584
     57          1           0       -5.492230   -0.247911   -5.036212
     58          1           0       -6.297662   -1.765888   -4.922014
     59          1           0       -4.551945   -1.766262   -5.282277
     60          1           0       -5.930896   -3.954365   -4.617327
     61          1           0       -5.070378   -5.514575   -4.113609
     62          1           0       -4.188592   -4.024541   -4.543937
     63          1           0       -4.777578   -4.038831    2.547519
     64          1           0       -5.543116   -2.038589    4.616569
     65          1           0       -6.928754   -4.596469    2.956021
     66          1           0       -7.409710   -3.056010    2.165829
     67          1           0       -7.206024   -3.106426    3.840029
     68          1           0       -4.026490   -4.008549    5.049484
     69          1           0       -3.450387   -2.474331    5.691453
     70          1           0       -2.598568   -4.088467    3.407672
     71          1           0       -1.560370   -3.304464    4.646291
     72          1           0       -2.280037   -2.367315    3.261178
     73          1           0       -2.268099    3.200631    5.889762
     74          1           0       -3.233828    1.699740    6.121624
     75          1           0       -4.092597    3.257364    5.772503
     76          1           0       -3.617411    5.812341    1.366171
     77          1           0       -0.607628    8.687083    0.227502
     78          1           0       -0.766105    7.656160   -1.319047
     79          1           0        0.321743    7.299402    0.035590
     80         12           0        3.594350   -1.885330   -0.373499
     81          6           0        5.044011    1.378835   -0.023151
     82          6           0        2.130175   -0.763515   -3.242696
     83          6           0        1.946960   -4.595180   -0.474726
     84          6           0        4.214573   -2.372993    3.021092
     85          7           0        3.655374    0.074253   -1.397489
     86          6           0        4.289085    1.221148   -1.204110
     87          6           0        4.168571    2.228613   -2.378868
     88          6           0        2.802778    1.683429   -3.024037
     89          6           0        2.876319    0.230163   -2.560064
     90          6           0        1.558619    2.314752   -2.421682
     91          6           0        5.365215    2.116500   -3.387576
     92          6           0        5.475303    3.271246   -4.385669
     93          1           0        6.805694    3.715771   -4.791782
     94          7           0        2.640788   -2.752989   -1.882282
     95          6           0        2.132886   -2.150692   -2.977982
     96          6           0        1.513109   -3.220973   -3.774558
     97          6           0        1.552216   -4.479167   -2.980741
     98          6           0        2.040080   -3.975626   -1.712473
     99          6           0        1.030669   -3.013411   -5.180826
    100          6           0        1.195816   -5.898335   -3.305012
    101          8           0        1.082114   -6.789708   -2.391044
    102          6           0        0.892510   -6.192751   -4.713145
    103          7           0        2.951638   -3.200653    1.102704
    104          6           0        2.298774   -4.332075    0.783975
    105          6           0        2.181489   -5.249034    1.978056
    106          6           0        3.107117   -4.601099    3.109864
    107          6           0        3.548288   -3.317973    2.372064
    108          6           0        0.769251   -5.447756    2.528033
    109          6           0        4.202755   -5.511318    3.729333
    110          6           0        5.256242   -5.829378    2.692804
    111          7           0        4.629372   -0.810008    1.188708
    112          6           0        4.745734   -1.180560    2.546368
    113          6           0        5.439973   -0.076909    3.240916
    114          6           0        5.660630    0.876749    2.235758
    115          6           0        5.122660    0.409740    1.006127
    116          6           0        5.738233   -0.026331    4.631816
    117          6           0        6.216874    2.176889    1.937590
    118          8           0        6.878103    3.003444    2.564751
    119          6           0        5.730285    2.614640    0.489140
    120          6           0        6.927115    3.117417   -0.270683
    121          8           0        7.856663    2.346539   -0.567811
    122          8           0        6.679001    4.365460   -0.707946
    123          6           0        7.832847    4.903218   -1.476900
    124          1           0        1.444315   -0.448237   -4.029512
    125          1           0        1.484557   -5.584952   -0.476486
    126          1           0        4.532277   -2.490930    4.059281
    127          1           0        4.051435    3.263296   -2.079741
    128          1           0        2.828796    1.739008   -4.109207
    129          1           0        1.794652    2.941295   -1.574411
    130          1           0        0.927678    1.489686   -2.118008
    131          1           0        0.999395    2.854399   -3.191351
    132          1           0        5.173054    1.287075   -4.080312
    133          1           0        6.294689    2.000908   -2.864754
    134          1           0        4.856025    4.128321   -4.094346
    135          1           0        5.052372    2.946925   -5.339591
    136          1           0        0.981376   -1.947650   -5.435998
    137          1           0       -0.011458   -3.349177   -5.214198
    138          1           0        1.608683   -3.581753   -5.912634
    139          1           0        0.062301   -5.571793   -5.041200
    140          1           0        0.748700   -7.273898   -4.761225
    141          1           0        1.757340   -5.910222   -5.323761
    142          1           0        2.553770   -6.238765    1.743644
    143          1           0        2.518916   -4.276366    3.980726
    144          1           0        0.457138   -6.508819    2.556242
    145          1           0        0.083707   -4.865582    1.926679
    146          1           0        0.601121   -5.044888    3.525349
    147          1           0        3.771607   -6.467121    4.037078
    148          1           0        4.681745   -5.078452    4.601222
    149          1           0        4.817493   -6.668331    2.144398
    150          1           0        6.190403   -6.116106    3.171523
    151          1           0        5.375959   -5.000070    1.986003
    152          1           0        6.750194    0.346069    4.719893
    153          1           0        5.631677   -1.004047    5.097102
    154          1           0        4.971109    0.675194    4.970407
    155          1           0        4.972550    3.388455    0.618067
    156          1           0        8.119443    5.847735   -1.004224
    157          1           0        7.495285    4.948716   -2.529392
    158          1           0        8.765287    4.352776   -1.432045
 ---------------------------------------------------------------------

 SCF Done:  E(RCAM-B3LYP) =  -4069.81165777     A.U. after   19 cycles

 Excitation energies and oscillator strengths:

 Excited State   1:      Singlet-A      1.6361 eV  757.79 nm  f=0.0158  <S**2>=0.000
     309 -> 315       -0.11289
     310 -> 316        0.11879
     311 -> 313       -0.47152
     312 -> 314        0.50153
 This state for optimization and/or second-order correction.
 Total Energy, E(TD-HF/TD-DFT) =  -4069.75153087
 Copying the excited state density for this state as the 1-particle RhoCI density.

 Excited State   2:      Singlet-A      1.7110 eV  724.61 nm  f=0.6687  <S**2>=0.000
     309 -> 315        0.13451
     310 -> 316        0.12480
     311 -> 313        0.49802
     312 -> 314        0.46824

 Excited State   3:      Singlet-A      2.1768 eV  569.57 nm  f=0.0100  <S**2>=0.000
     309 -> 313       -0.33920
     310 -> 314        0.55067
     311 -> 315        0.13811
     312 -> 316       -0.22550

 Excited State   4:      Singlet-A      2.1976 eV  564.18 nm  f=0.1577  <S**2>=0.000
     309 -> 313        0.54400
     310 -> 314        0.33290
     311 -> 315       -0.24157
     312 -> 316       -0.14916

 Excited State   5:      Singlet-A      2.2215 eV  558.12 nm  f=0.0000  <S**2>=0.000
     312 -> 313        0.70698

 The electronic state is 1-A.
 Alpha  occ. eigenvalues --  -46.87961 -46.87405 -19.26513 -19.26087 -19.19278
 Alpha  occ. eigenvalues --  -19.18924 -19.18897 -19.18508 -19.18314 -19.17750
 Alpha  occ. eigenvalues --  -14.42634 -14.42228 -14.41612 -14.41112 -14.39563
 Alpha  occ. eigenvalues --  -14.39106 -14.38747 -14.38333 -10.39323 -10.38815
 Alpha  occ. eigenvalues --  -10.35562 -10.35192 -10.34541 -10.33918 -10.31901
 Alpha  occ. eigenvalues --  -10.31599 -10.31544 -10.31111 -10.31024 -10.30760
 Alpha  occ. eigenvalues --  -10.30745 -10.30652 -10.30365 -10.30137 -10.30101
 Alpha  occ. eigenvalues --  -10.30061 -10.29928 -10.29789 -10.29637 -10.29415
 Alpha  occ. eigenvalues --  -10.29207 -10.29159 -10.29024 -10.28951 -10.28535
 Alpha  occ. eigenvalues --  -10.28498 -10.28407 -10.28361 -10.28139 -10.27950
 Alpha  occ. eigenvalues --  -10.27913 -10.27803 -10.27749 -10.27748 -10.27724
 Alpha  occ. eigenvalues --  -10.27644 -10.27582 -10.27566 -10.27426 -10.27414
 Alpha  occ. eigenvalues --  -10.27342 -10.27339 -10.27237 -10.27208 -10.27172
 Alpha  occ. eigenvalues --  -10.27099 -10.26696 -10.26579 -10.26472 -10.26440
 Alpha  occ. eigenvalues --  -10.26345 -10.26310 -10.26182 -10.25990 -10.25960
 Alpha  occ. eigenvalues --  -10.25701 -10.25583 -10.25533 -10.25491 -10.25194
 Alpha  occ. eigenvalues --  -10.24988 -10.24934 -10.24882 -10.24605 -10.24582
 Alpha  occ. eigenvalues --  -10.24432  -3.16703  -3.16156  -1.91584  -1.91172
 Alpha  occ. eigenvalues --   -1.91038  -1.91013  -1.90626  -1.90463  -1.16864
 Alpha  occ. eigenvalues --   -1.16380  -1.08775  -1.08349  -1.07316  -1.06884
 Alpha  occ. eigenvalues --   -1.06758  -1.06681  -1.04768  -1.04223  -1.03924
 Alpha  occ. eigenvalues --   -1.03407  -1.03393  -1.02791  -1.02573  -1.01854
 Alpha  occ. eigenvalues --   -0.92148  -0.91700  -0.89679  -0.89443  -0.89272
 Alpha  occ. eigenvalues --   -0.88841  -0.88438  -0.88022  -0.88006  -0.87872
 Alpha  occ. eigenvalues --   -0.87532  -0.87450  -0.87438  -0.86943  -0.85223
 Alpha  occ. eigenvalues --   -0.84730  -0.84091  -0.83668  -0.83132  -0.82864
 Alpha  occ. eigenvalues --   -0.82771  -0.82398  -0.81781  -0.81343  -0.80783
 Alpha  occ. eigenvalues --   -0.80197  -0.78971  -0.78428  -0.77421  -0.77150
 Alpha  occ. eigenvalues --   -0.76908  -0.76641  -0.76127  -0.75547  -0.75053
 Alpha  occ. eigenvalues --   -0.74574  -0.72940  -0.72448  -0.71846  -0.71305
 Alpha  occ. eigenvalues --   -0.70069  -0.69563  -0.69096  -0.68567  -0.67815
 Alpha  occ. eigenvalues --   -0.67475  -0.67362  -0.66987  -0.65521  -0.65033
 Alpha  occ. eigenvalues --   -0.64997  -0.64815  -0.64520  -0.64430  -0.64399
 Alpha  occ. eigenvalues --   -0.63981  -0.62492  -0.62030  -0.60605  -0.60140
 Alpha  occ. eigenvalues --   -0.60026  -0.59508  -0.59158  -0.58741  -0.58676
 Alpha  occ. eigenvalues --   -0.58173  -0.57772  -0.57473  -0.57259  -0.57003
 Alpha  occ. eigenvalues --   -0.56484  -0.56199  -0.55971  -0.55693  -0.55644
 Alpha  occ. eigenvalues --   -0.55507  -0.55227  -0.55020  -0.54710  -0.54260
 Alpha  occ. eigenvalues --   -0.54150  -0.53630  -0.53469  -0.53434  -0.53121
 Alpha  occ. eigenvalues --   -0.53007  -0.52963  -0.52900  -0.52666  -0.52605
 Alpha  occ. eigenvalues --   -0.52468  -0.52218  -0.52057  -0.51855  -0.51616
 Alpha  occ. eigenvalues --   -0.51414  -0.51374  -0.50948  -0.50769  -0.50339
 Alpha  occ. eigenvalues --   -0.50210  -0.50102  -0.49747  -0.49718  -0.49654
 Alpha  occ. eigenvalues --   -0.49404  -0.49305  -0.49244  -0.48941  -0.48787
 Alpha  occ. eigenvalues --   -0.48772  -0.48607  -0.48597  -0.48287  -0.48164
 Alpha  occ. eigenvalues --   -0.48116  -0.47889  -0.47472  -0.47365  -0.46986
 Alpha  occ. eigenvalues --   -0.46925  -0.46796  -0.46531  -0.46472  -0.46325
 Alpha  occ. eigenvalues --   -0.46293  -0.46057  -0.45999  -0.45844  -0.45555
 Alpha  occ. eigenvalues --   -0.45347  -0.44983  -0.44757  -0.44706  -0.44318
 Alpha  occ. eigenvalues --   -0.44307  -0.44260  -0.44228  -0.44194  -0.43874
 Alpha  occ. eigenvalues --   -0.43835  -0.43706  -0.43681  -0.43585  -0.43303
 Alpha  occ. eigenvalues --   -0.43203  -0.43121  -0.42898  -0.42828  -0.42680
 Alpha  occ. eigenvalues --   -0.42638  -0.42349  -0.42201  -0.41883  -0.41765
 Alpha  occ. eigenvalues --   -0.41743  -0.41391  -0.41320  -0.41215  -0.41098
 Alpha  occ. eigenvalues --   -0.41000  -0.40744  -0.40706  -0.40546  -0.40515
 Alpha  occ. eigenvalues --   -0.40445  -0.40249  -0.39996  -0.39586  -0.39241
 Alpha  occ. eigenvalues --   -0.38641  -0.38131  -0.38039  -0.37486  -0.37485
 Alpha  occ. eigenvalues --   -0.37426  -0.37036  -0.36939  -0.36923  -0.36524
 Alpha  occ. eigenvalues --   -0.36385  -0.35977  -0.34455  -0.34005  -0.33994
 Alpha  occ. eigenvalues --   -0.33597  -0.33357  -0.32923  -0.31455  -0.31203
 Alpha  occ. eigenvalues --   -0.31063  -0.30708  -0.30177  -0.29648  -0.29604
 Alpha  occ. eigenvalues --   -0.29474  -0.29099  -0.28940  -0.24249  -0.23770
 Alpha  occ. eigenvalues --   -0.21296  -0.20864
 Alpha virt. eigenvalues --   -0.08937  -0.08541  -0.01910  -0.01437  -0.00218
 Alpha virt. eigenvalues --    0.00207   0.02044   0.02351   0.02572   0.03578
 Alpha virt. eigenvalues --    0.04480   0.04798   0.05016   0.05443   0.05806

 Mulliken charges:
               1
     1  Mg   0.838500
     2  C   -0.003416
     3  C   -0.096031
     4  C   -0.044382
     5  C   -0.063550
     6  N   -0.256713
     7  C   -0.053364
     8  C   -0.012691
     9  C   -0.086912
    10  C    0.045960
    11  C    0.104794
    12  C    0.048871
    13  C   -0.072281
    14  H    0.034565
    15  N   -0.433322
    16  C    0.168416
    17  C   -0.178693
    18  C   -0.003575
    19  C    0.149719
    20  C    0.110509
    21  C    0.014005
    22  O   -0.247125
    23  C    0.062726
    24  N   -0.340935
    25  C    0.040982
    26  C   -0.028864
    27  C   -0.024054
    28  C    0.074661
    29  C    0.075962
    30  C    0.037187
    31  C   -0.013555
    32  N   -0.310773
    33  C    0.080794
    34  C   -0.169188
    35  C    0.008720
    36  C    0.083339
    37  C    0.127184
    38  C    0.046604
    39  O   -0.187295
    40  C   -0.005976
    41  C    0.213775
    42  O   -0.258652
    43  O   -0.304468
    44  C    0.157183
    45  H   -0.017927
    46  H   -0.015713
    47  H   -0.041212
    48  H    0.001517
    49  H   -0.005146
    50  H    0.025893
    51  H    0.017037
    52  H    0.016740
    53  H    0.010096
    54  H    0.046041
    55  H    0.019722
    56  H    0.017082
    57  H    0.005341
    58  H    0.027630
    59  H    0.036553
    60  H    0.037184
    61  H    0.037652
    62  H    0.027676
    63  H    0.017923
    64  H    0.009863
    65  H    0.023921
    66  H    0.012582
    67  H    0.004881
    68  H    0.006504
    69  H    0.004077
    70  H    0.013819
    71  H    0.019629
    72  H    0.030736
    73  H    0.048380
    74  H    0.009165
    75  H    0.046342
    76  H    0.035529
    77  H    0.044426
    78  H    0.045479
    79  H    0.053774
    80  Mg   0.837683
    81  C   -0.015520
    82  C   -0.088616
    83  C   -0.045212
    84  C   -0.065168
    85  N   -0.254886
    86  C   -0.046779
    87  C   -0.015083
    88  C   -0.092086
    89  C    0.046714
    90  C    0.110309
    91  C    0.062759
    92  C   -0.076949
    93  H    0.033712
    94  N   -0.423493
    95  C    0.162912
    96  C   -0.175760
    97  C   -0.007499
    98  C    0.151316
    99  C    0.100865
   100  C    0.015761
   101  O   -0.252289
   102  C    0.061827
   103  N   -0.350065
   104  C    0.036402
   105  C   -0.019053
   106  C   -0.035026
   107  C    0.089437
   108  C    0.071818
   109  C    0.034817
   110  C   -0.007365
   111  N   -0.324645
   112  C    0.079541
   113  C   -0.162530
   114  C    0.003876
   115  C    0.096363
   116  C    0.130914
   117  C    0.043850
   118  O   -0.187354
   119  C   -0.000154
   120  C    0.210603
   121  O   -0.251964
   122  O   -0.304779
   123  C    0.152368
   124  H   -0.021742
   125  H   -0.015161
   126  H   -0.041097
   127  H    0.001272
   128  H   -0.007310
   129  H    0.037496
   130  H    0.014104
   131  H    0.012191
   132  H    0.013086
   133  H    0.037392
   134  H    0.020355
   135  H    0.018364
   136  H    0.007257
   137  H    0.021458
   138  H    0.039021
   139  H    0.035500
   140  H    0.036381
   141  H    0.033348
   142  H    0.013815
   143  H    0.011121
   144  H    0.024098
   145  H    0.015472
   146  H    0.003907
   147  H    0.005543
   148  H    0.003248
   149  H    0.010807
   150  H    0.017470
   151  H    0.030455
   152  H    0.045585
   153  H    0.007486
   154  H    0.049167
   155  H    0.041230
   156  H    0.043573
   157  H    0.048678
   158  H    0.053014
 Sum of Mulliken charges =  -0.00000

 Dipole moment (field-independent basis, Debye):
    X=             -5.8512    Y=              0.2860    Z=             -6.2545  Tot=              8.5696
 Quadrupole moment (field-independent basis, Debye-Ang):
   XX=           -534.2249   YY=           -533.1299   ZZ=           -457.1655
   XY=            -17.6531   XZ=             -3.7658   YZ=            -52.2548

 Normal termination of Gaussian 16 at Wed Sep  8 16:39:54 2021.
