 Gaussian 16, Revision A.03,
 Gaussian 16:  ES64L-G16RevA.03 25-Dec-2016

 -----------------------------------
 #p cam-b3lyp/Def2SVP td=(nstates=5)
 -----------------------------------

 --------------------------------
 TDDFT excited states in gaussian
 --------------------------------
 Symbolic Z-matrix:
 Charge =  0 Multiplicity = 1

                         Standard orientation:
 ---------------------------------------------------------------------
 Center     Atomic      Atomic             Coordinates (Angstroms)
 Number     Number       Type             X           Y           Z
 ---------------------------------------------------------------------
      1         12           0       -4.368369    0.618890    0.657417
      2          6           0       -4.935859   -2.159215   -1.527143
      3          6           0       -4.816345   -1.532993    3.267357
      4          6           0       -4.322503    3.129760    2.593920
      5          6           0       -5.087727    2.700355   -2.043636
      6          7           0       -4.812585   -1.548515    0.732758
      7          6           0       -4.946819   -2.510052   -0.175316
      8          6           0       -5.024726   -3.937757    0.443525
      9          6           0       -5.544722   -3.552495    1.900637
     10          6           0       -4.995888   -2.139356    1.988639
     11          6           0       -7.065060   -3.496645    2.009968
     12          6           0       -3.625377   -4.637923    0.501176
     13          6           0       -3.658770   -6.142515    0.784796
     14          1           0       -2.675112   -6.998796    0.139389
     15          7           0       -4.062548    0.728523    2.606084
     16          6           0       -4.283423   -0.249779    3.516812
     17          6           0       -3.902987    0.319906    4.827311
     18          6           0       -3.623114    1.769256    4.629453
     19          6           0       -4.022031    1.941677    3.255949
     20          6           0       -3.788548   -0.496983    6.077649
     21          6           0       -3.091872    2.832755    5.537685
     22          8           0       -3.144554    4.073921    5.235518
     23          6           0       -2.581804    2.384644    6.846146
     24          7           0       -4.874768    2.626529    0.391750
     25          6           0       -4.705764    3.516834    1.375507
     26          6           0       -4.863980    4.921536    0.873792
     27          6           0       -4.937503    4.816811   -0.717868
     28          6           0       -4.887701    3.275106   -0.855478
     29          6           0       -6.091604    5.683131    1.392368
     30          6           0       -3.921600    5.662643   -1.525909
     31          6           0       -2.521592    5.137467   -1.299490
     32          7           0       -4.743288    0.358555   -1.464541
     33          6           0       -5.043147    1.362092   -2.397103
     34          6           0       -5.322066    0.690484   -3.679762
     35          6           0       -5.180379   -0.666937   -3.398377
     36          6           0       -4.860593   -0.834191   -2.020677
     37          6           0       -5.712995    1.331481   -4.888370
     38          6           0       -5.248932   -2.016296   -3.935395
     39          8           0       -5.386804   -2.495310   -5.061907
     40          6           0       -5.213201   -3.042424   -2.718180
     41          6           0       -4.206216   -4.109034   -3.052295
     42          8           0       -2.990427   -3.838839   -3.131155
     43          8           0       -4.796729   -5.312447   -2.992014
     44          6           0       -3.845191   -6.417569   -3.284303
     45          1           0       -5.168652   -2.060615    4.155859
     46          1           0       -4.209807    4.030565    3.200789
     47          1           0       -5.236396    3.289631   -2.950335
     48          1           0       -5.737215   -4.605145   -0.041631
     49          1           0       -5.098673   -4.180915    2.671254
     50          1           0       -7.538882   -3.604743    1.034402
     51          1           0       -7.290483   -2.518997    2.436443
     52          1           0       -7.428731   -4.229169    2.731029
     53          1           0       -3.087746   -4.294425    1.384930
     54          1           0       -3.065055   -4.456411   -0.416658
     55          1           0       -4.662095   -6.549957    0.657366
     56          1           0       -3.436148   -6.296041    1.840764
     57          1           0       -4.215513   -1.490598    5.947358
     58          1           0       -4.424143   -0.024229    6.826135
     59          1           0       -2.762926   -0.545310    6.443841
     60          1           0       -3.379103    1.875496    7.388025
     61          1           0       -2.161395    3.268891    7.323863
     62          1           0       -1.798793    1.643160    6.684764
     63          1           0       -4.008068    5.534973    1.152246
     64          1           0       -5.908680    5.127551   -1.103783
     65          1           0       -5.846184    6.619094    1.894810
     66          1           0       -6.646241    5.018029    2.053661
     67          1           0       -6.841583    5.910905    0.635356
     68          1           0       -3.934779    6.697665   -1.186055
     69          1           0       -4.118404    5.663085   -2.598065
     70          1           0       -2.227691    5.621259   -0.368684
     71          1           0       -1.866288    5.435915   -2.118463
     72          1           0       -2.523849    4.061977   -1.121157
     73          1           0       -5.137408    0.858973   -5.684237
     74          1           0       -5.524774    2.404061   -4.846552
     75          1           0       -6.776661    1.094630   -4.907657
     76          1           0       -6.220152   -3.446640   -2.619288
     77          1           0       -4.266369   -6.994406   -4.107773
     78          1           0       -3.671991   -6.935079   -2.340593
     79          1           0       -2.883432   -6.126175   -3.707918
     80         12           0        4.512623    0.631838   -0.821203
     81          6           0        4.641525   -2.346807    1.176317
     82          6           0        4.106552    2.380135    2.079348
     83          6           0        3.945289    3.215096   -2.574017
     84          6           0        3.786282   -1.401073   -3.557155
     85          7           0        4.404883   -0.012349    1.292010
     86          6           0        4.528047   -1.163491    1.935484
     87          6           0        4.610372   -1.031405    3.479938
     88          6           0        3.865198    0.382041    3.640461
     89          6           0        4.169562    0.976213    2.266780
     90          6           0        2.357557    0.254823    3.782436
     91          6           0        6.090597   -0.962228    3.995862
     92          6           0        6.254240   -1.143712    5.506503
     93          1           0        7.434146   -1.849223    5.999006
     94          7           0        4.575614    2.554388   -0.332931
     95          6           0        4.412783    3.087569    0.896081
     96          6           0        4.528455    4.543691    0.721488
     97          6           0        4.608530    4.836544   -0.735404
     98          6           0        4.353071    3.519539   -1.283441
     99          6           0        4.633733    5.495981    1.877117
    100          6           0        4.859213    6.096227   -1.507776
    101          8           0        4.648785    6.165150   -2.770233
    102          6           0        5.268978    7.273036   -0.727593
    103          7           0        3.740807    0.896675   -2.733411
    104          6           0        3.648441    2.122567   -3.277982
    105          6           0        3.326608    2.042176   -4.751193
    106          6           0        3.461118    0.495895   -5.136581
    107          6           0        3.763526   -0.087839   -3.739010
    108          6           0        1.943481    2.549490   -5.158613
    109          6           0        4.418397    0.143214   -6.307867
    110          6           0        5.848387    0.429754   -5.909871
    111          7           0        4.435677   -1.493340   -1.202928
    112          6           0        4.084227   -2.130419   -2.413180
    113          6           0        4.064892   -3.584025   -2.150374
    114          6           0        4.386499   -3.691327   -0.788925
    115          6           0        4.571982   -2.394984   -0.237038
    116          6           0        3.730597   -4.595674   -3.094274
    117          6           0        4.600829   -4.605943    0.309363
    118          8           0        4.663586   -5.829590    0.421200
    119          6           0        4.651384   -3.770237    1.660440
    120          6           0        5.845461   -4.233842    2.448963
    121          8           0        6.997761   -4.043082    2.021841
    122          8           0        5.441061   -4.627794    3.670285
    123          6           0        6.591512   -5.086163    4.493798
    124          1           0        3.748350    2.998005    2.903244
    125          1           0        3.843315    4.067474   -3.249698
    126          1           0        3.664946   -2.106787   -4.381723
    127          1           0        4.077394   -1.797359    4.030416
    128          1           0        4.320203    0.981630    4.424565
    129          1           0        2.023099   -0.761020    3.632966
    130          1           0        1.935090    0.906931    3.029231
    131          1           0        2.034292    0.658487    4.746223
    132          1           0        6.459298    0.066081    3.889136
    133          1           0        6.708093   -1.670054    3.477888
    134          1           0        5.345527   -1.541127    5.974750
    135          1           0        6.382004   -0.158950    5.962493
    136          1           0        4.379293    5.007137    2.825645
    137          1           0        3.851282    6.250544    1.741977
    138          1           0        5.603234    5.996573    1.923424
    139          1           0        4.505610    7.498909    0.013151
    140          1           0        5.487444    8.049673   -1.463113
    141          1           0        6.181385    7.025243   -0.173763
    142          1           0        4.038854    2.612923   -5.334341
    143          1           0        2.497921    0.069677   -5.453471
    144          1           0        1.979619    3.352826   -5.918491
    145          1           0        1.429231    2.889791   -4.269648
    146          1           0        1.265963    1.787447   -5.540000
    147          1           0        4.205055    0.773959   -7.174364
    148          1           0        4.340444   -0.888661   -6.633662
    149          1           0        5.948085    1.502109   -6.102782
    150          1           0        6.539170   -0.147191   -6.521408
    151          1           0        5.996734    0.272975   -4.835127
    152          1           0        4.453554   -5.390577   -2.967865
    153          1           0        3.737771   -4.208701   -4.111116
    154          1           0        2.721520   -4.849632   -2.758832
    155          1           0        3.715628   -3.949009    2.191434
    156          1           0        6.360831   -6.102674    4.827253
    157          1           0        6.723267   -4.316658    5.277539
    158          1           0        7.539030   -5.238627    3.990388
 ---------------------------------------------------------------------

 SCF Done:  E(RCAM-B3LYP) =  -4069.81216121     A.U. after   19 cycles

 Excitation energies and oscillator strengths:

 Excited State   1:      Singlet-A      1.6640 eV  745.08 nm  f=0.2440  <S**2>=0.000
     309 -> 315        0.11155
     310 -> 316       -0.12919
     311 -> 313       -0.44738
     312 -> 314        0.52036
 This state for optimization and/or second-order correction.
 Total Energy, E(TD-HF/TD-DFT) =  -4069.75100873
 Copying the excited state density for this state as the 1-particle RhoCI density.

 Excited State   2:      Singlet-A      1.6826 eV  736.85 nm  f=0.4271  <S**2>=0.000
     309 -> 315       -0.13294
     310 -> 316       -0.11492
     311 -> 313        0.51950
     312 -> 314        0.44692

 Excited State   3:      Singlet-A      2.1848 eV  567.48 nm  f=0.0911  <S**2>=0.000
     309 -> 313       -0.11107
     310 -> 314        0.63287
     312 -> 316        0.26873

 Excited State   4:      Singlet-A      2.1900 eV  566.13 nm  f=0.1052  <S**2>=0.000
     309 -> 313        0.63144
     310 -> 314        0.11003
     311 -> 315        0.27210

 Excited State   5:      Singlet-A      2.3492 eV  527.76 nm  f=0.0000  <S**2>=0.000
     312 -> 313        0.70707

 The electronic state is 1-A.
 Alpha  occ. eigenvalues --  -46.87900 -46.87457 -19.26324 -19.26311 -19.19091
 Alpha  occ. eigenvalues --  -19.19085 -19.19016 -19.18546 -19.18279 -19.17905
 Alpha  occ. eigenvalues --  -14.42543 -14.42310 -14.41549 -14.41140 -14.39518
 Alpha  occ. eigenvalues --  -14.39153 -14.38692 -14.38392 -10.39144 -10.39017
 Alpha  occ. eigenvalues --  -10.35654 -10.35226 -10.34494 -10.34086 -10.31752
 Alpha  occ. eigenvalues --  -10.31684 -10.31486 -10.31126 -10.31004 -10.30865
 Alpha  occ. eigenvalues --  -10.30670 -10.30623 -10.30317 -10.30186 -10.30151
 Alpha  occ. eigenvalues --  -10.30020 -10.29902 -10.29753 -10.29664 -10.29377
 Alpha  occ. eigenvalues --  -10.29221 -10.29192 -10.28784 -10.28638 -10.28632
 Alpha  occ. eigenvalues --  -10.28477 -10.28456 -10.28221 -10.28163 -10.28044
 Alpha  occ. eigenvalues --  -10.27913 -10.27823 -10.27801 -10.27718 -10.27636
 Alpha  occ. eigenvalues --  -10.27580 -10.27543 -10.27501 -10.27472 -10.27301
 Alpha  occ. eigenvalues --  -10.27268 -10.27264 -10.27242 -10.27217 -10.27115
 Alpha  occ. eigenvalues --  -10.26932 -10.26691 -10.26682 -10.26627 -10.26280
 Alpha  occ. eigenvalues --  -10.26272 -10.26226 -10.26119 -10.25980 -10.25956
 Alpha  occ. eigenvalues --  -10.25866 -10.25685 -10.25551 -10.25529 -10.25114
 Alpha  occ. eigenvalues --  -10.24950 -10.24898 -10.24700 -10.24672 -10.24502
 Alpha  occ. eigenvalues --  -10.24486  -3.16642  -3.16207  -1.91524  -1.91110
 Alpha  occ. eigenvalues --   -1.91089  -1.90953  -1.90678  -1.90515  -1.16678
 Alpha  occ. eigenvalues --   -1.16597  -1.08733  -1.08522  -1.07422  -1.06877
 Alpha  occ. eigenvalues --   -1.06802  -1.06705  -1.04675  -1.04315  -1.03862
 Alpha  occ. eigenvalues --   -1.03462  -1.03344  -1.02821  -1.02517  -1.01902
 Alpha  occ. eigenvalues --   -0.92069  -0.91812  -0.89606  -0.89266  -0.89232
 Alpha  occ. eigenvalues --   -0.89040  -0.88374  -0.87982  -0.87981  -0.87757
 Alpha  occ. eigenvalues --   -0.87569  -0.87488  -0.87430  -0.86929  -0.85041
 Alpha  occ. eigenvalues --   -0.84869  -0.84014  -0.83648  -0.83143  -0.82746
 Alpha  occ. eigenvalues --   -0.82725  -0.82515  -0.81653  -0.81465  -0.80690
 Alpha  occ. eigenvalues --   -0.80286  -0.78930  -0.78432  -0.77298  -0.76986
 Alpha  occ. eigenvalues --   -0.76982  -0.76745  -0.75989  -0.75705  -0.74981
 Alpha  occ. eigenvalues --   -0.74586  -0.72875  -0.72489  -0.71760  -0.71399
 Alpha  occ. eigenvalues --   -0.69972  -0.69516  -0.68949  -0.68689  -0.67754
 Alpha  occ. eigenvalues --   -0.67422  -0.67280  -0.67075  -0.65343  -0.65145
 Alpha  occ. eigenvalues --   -0.64940  -0.64693  -0.64587  -0.64499  -0.64354
 Alpha  occ. eigenvalues --   -0.63979  -0.62363  -0.62148  -0.60579  -0.60138
 Alpha  occ. eigenvalues --   -0.59874  -0.59658  -0.59081  -0.58798  -0.58601
 Alpha  occ. eigenvalues --   -0.58244  -0.57671  -0.57422  -0.57411  -0.57035
 Alpha  occ. eigenvalues --   -0.56423  -0.56032  -0.56020  -0.55777  -0.55648
 Alpha  occ. eigenvalues --   -0.55416  -0.55303  -0.55053  -0.54591  -0.54310
 Alpha  occ. eigenvalues --   -0.53943  -0.53806  -0.53430  -0.53315  -0.53039
 Alpha  occ. eigenvalues --   -0.53011  -0.52995  -0.52875  -0.52764  -0.52517
 Alpha  occ. eigenvalues --   -0.52501  -0.52167  -0.52025  -0.51694  -0.51629
 Alpha  occ. eigenvalues --   -0.51532  -0.51276  -0.51028  -0.50754  -0.50296
 Alpha  occ. eigenvalues --   -0.50115  -0.50058  -0.49834  -0.49640  -0.49612
 Alpha  occ. eigenvalues --   -0.49338  -0.49324  -0.49157  -0.49062  -0.48960
 Alpha  occ. eigenvalues --   -0.48673  -0.48612  -0.48542  -0.48418  -0.48189
 Alpha  occ. eigenvalues --   -0.48144  -0.47789  -0.47429  -0.47406  -0.46925
 Alpha  occ. eigenvalues --   -0.46879  -0.46608  -0.46528  -0.46458  -0.46414
 Alpha  occ. eigenvalues --   -0.46252  -0.46066  -0.45897  -0.45873  -0.45659
 Alpha  occ. eigenvalues --   -0.45291  -0.44991  -0.44680  -0.44611  -0.44387
 Alpha  occ. eigenvalues --   -0.44309  -0.44241  -0.44146  -0.44123  -0.43985
 Alpha  occ. eigenvalues --   -0.43885  -0.43787  -0.43573  -0.43457  -0.43424
 Alpha  occ. eigenvalues --   -0.43227  -0.43117  -0.42822  -0.42772  -0.42719
 Alpha  occ. eigenvalues --   -0.42711  -0.42335  -0.42071  -0.41800  -0.41784
 Alpha  occ. eigenvalues --   -0.41582  -0.41504  -0.41311  -0.41226  -0.41001
 Alpha  occ. eigenvalues --   -0.40907  -0.40830  -0.40644  -0.40584  -0.40557
 Alpha  occ. eigenvalues --   -0.40272  -0.40249  -0.40136  -0.39497  -0.39178
 Alpha  occ. eigenvalues --   -0.38541  -0.38135  -0.37779  -0.37548  -0.37405
 Alpha  occ. eigenvalues --   -0.37316  -0.37062  -0.37029  -0.36777  -0.36674
 Alpha  occ. eigenvalues --   -0.36263  -0.36026  -0.34386  -0.34059  -0.33845
 Alpha  occ. eigenvalues --   -0.33766  -0.33289  -0.32969  -0.31542  -0.31138
 Alpha  occ. eigenvalues --   -0.31105  -0.30783  -0.30134  -0.29814  -0.29585
 Alpha  occ. eigenvalues --   -0.29439  -0.29130  -0.29005  -0.24181  -0.23831
 Alpha  occ. eigenvalues --   -0.21233  -0.20911
 Alpha virt. eigenvalues --   -0.08892  -0.08589  -0.01861  -0.01477  -0.00202
 Alpha virt. eigenvalues --    0.00143   0.02086   0.02390   0.02847   0.03482
 Alpha virt. eigenvalues --    0.04656   0.04896   0.05032   0.05248   0.06179

 Mulliken charges:
               1
     1  Mg   0.838868
     2  C   -0.002835
     3  C   -0.093983
     4  C   -0.046290
     5  C   -0.063970
     6  N   -0.256905
     7  C   -0.051929
     8  C   -0.014069
     9  C   -0.087006
    10  C    0.046387
    11  C    0.104774
    12  C    0.053439
    13  C   -0.072954
    14  H    0.039222
    15  N   -0.433016
    16  C    0.168069
    17  C   -0.177502
    18  C   -0.004802
    19  C    0.148552
    20  C    0.110154
    21  C    0.010869
    22  O   -0.250258
    23  C    0.062952
    24  N   -0.341286
    25  C    0.041499
    26  C   -0.028004
    27  C   -0.024107
    28  C    0.075326
    29  C    0.076180
    30  C    0.035023
    31  C   -0.004617
    32  N   -0.310534
    33  C    0.080736
    34  C   -0.170015
    35  C    0.008262
    36  C    0.083151
    37  C    0.127378
    38  C    0.045856
    39  O   -0.188312
    40  C   -0.005176
    41  C    0.212959
    42  O   -0.257607
    43  O   -0.304669
    44  C    0.157703
    45  H   -0.017391
    46  H   -0.017344
    47  H   -0.041181
    48  H    0.001170
    49  H   -0.003563
    50  H    0.025522
    51  H    0.016192
    52  H    0.016991
    53  H    0.011210
    54  H    0.044195
    55  H    0.017490
    56  H    0.018404
    57  H    0.006555
    58  H    0.026909
    59  H    0.038085
    60  H    0.038366
    61  H    0.034527
    62  H    0.029331
    63  H    0.015985
    64  H    0.009623
    65  H    0.022952
    66  H    0.012524
    67  H    0.005038
    68  H    0.006439
    69  H    0.005045
    70  H    0.007706
    71  H    0.020867
    72  H    0.028537
    73  H    0.047081
    74  H    0.009433
    75  H    0.046403
    76  H    0.035501
    77  H    0.043071
    78  H    0.047471
    79  H    0.053275
    80  Mg   0.838068
    81  C   -0.017207
    82  C   -0.088148
    83  C   -0.045555
    84  C   -0.060872
    85  N   -0.254488
    86  C   -0.050079
    87  C   -0.014960
    88  C   -0.090530
    89  C    0.045295
    90  C    0.114697
    91  C    0.062682
    92  C   -0.077437
    93  H    0.034463
    94  N   -0.423435
    95  C    0.162501
    96  C   -0.174495
    97  C   -0.008214
    98  C    0.152125
    99  C    0.099375
   100  C    0.015167
   101  O   -0.253806
   102  C    0.061292
   103  N   -0.349876
   104  C    0.037826
   105  C   -0.020166
   106  C   -0.035654
   107  C    0.088851
   108  C    0.073040
   109  C    0.034557
   110  C   -0.007532
   111  N   -0.324404
   112  C    0.078264
   113  C   -0.160980
   114  C    0.001799
   115  C    0.096674
   116  C    0.131361
   117  C    0.042366
   118  O   -0.189228
   119  C    0.000918
   120  C    0.211070
   121  O   -0.250922
   122  O   -0.306124
   123  C    0.152150
   124  H   -0.019250
   125  H   -0.016065
   126  H   -0.038465
   127  H   -0.002235
   128  H   -0.004773
   129  H    0.021297
   130  H    0.016575
   131  H    0.013381
   132  H    0.014235
   133  H    0.037703
   134  H    0.019473
   135  H    0.019524
   136  H    0.008939
   137  H    0.026519
   138  H    0.039066
   139  H    0.038243
   140  H    0.035747
   141  H    0.033758
   142  H    0.013671
   143  H    0.016793
   144  H    0.023570
   145  H    0.011055
   146  H    0.009100
   147  H    0.006171
   148  H    0.004448
   149  H    0.010404
   150  H    0.017429
   151  H    0.029657
   152  H    0.044415
   153  H    0.009191
   154  H    0.050454
   155  H    0.033674
   156  H    0.043124
   157  H    0.049140
   158  H    0.053675
 Sum of Mulliken charges =  -0.00000

 Dipole moment (field-independent basis, Debye):
    X=             -3.0974    Y=              1.7608    Z=              6.3652  Tot=              7.2945
 Quadrupole moment (field-independent basis, Debye-Ang):
   XX=           -519.6341   YY=           -514.9384   ZZ=           -484.4440
   XY=             22.8970   XZ=             -1.6241   YZ=            -15.3756

 Normal termination of Gaussian 16 at Fri Sep  3 22:18:37 2021.
