 Gaussian 16, Revision A.03,
 Gaussian 16:  ES64L-G16RevA.03 25-Dec-2016

 -----------------------------------
 #p cam-b3lyp/Def2SVP td=(nstates=5)
 -----------------------------------

 --------------------------------
 TDDFT excited states in gaussian
 --------------------------------
 Symbolic Z-matrix:
 Charge =  0 Multiplicity = 1

                         Standard orientation:
 ---------------------------------------------------------------------
 Center     Atomic      Atomic             Coordinates (Angstroms)
 Number     Number       Type             X           Y           Z
 ---------------------------------------------------------------------
      1         12           0        3.259468   -2.130929    0.022553
      2          6           0        5.197423    0.626413   -1.183105
      3          6           0        4.783818   -1.689011    3.043171
      4          6           0        1.904728   -4.833865    0.979339
      5          6           0        2.764013   -3.046154   -3.303488
      6          7           0        4.779320   -0.679479    0.718247
      7          6           0        5.396654    0.364618    0.174251
      8          6           0        6.217453    1.200899    1.201040
      9          6           0        6.461857    0.075814    2.303966
     10          6           0        5.251130   -0.799109    2.030884
     11          6           0        7.724994   -0.745627    2.066857
     12          6           0        5.397268    2.402377    1.780245
     13          6           0        6.219493    3.452000    2.533631
     14          1           0        5.832237    4.850865    2.430877
     15          7           0        2.949069   -2.834317    1.842374
     16          6           0        3.655677   -2.533390    2.958364
     17          6           0        3.037069   -3.309985    4.054222
     18          6           0        2.034785   -4.230947    3.449782
     19          6           0        2.277842   -4.019147    2.045701
     20          6           0        3.374909   -3.106678    5.499310
     21          6           0        1.026306   -5.162999    4.043398
     22          8           0        0.415968   -6.040838    3.342356
     23          6           0        0.833800   -5.079835    5.502531
     24          7           0        2.631026   -3.842068   -0.994648
     25          6           0        2.021957   -4.843357   -0.350102
     26          6           0        1.414399   -5.821769   -1.311103
     27          6           0        1.526115   -5.150177   -2.755484
     28          6           0        2.295611   -3.865852   -2.359686
     29          6           0        2.058422   -7.214648   -1.344752
     30          6           0        0.213987   -5.003549   -3.566186
     31          6           0       -0.698332   -4.004953   -2.889741
     32          7           0        3.707351   -1.274963   -1.921094
     33          6           0        3.429944   -1.838735   -3.174841
     34          6           0        4.016080   -0.944268   -4.189947
     35          6           0        4.611949    0.075707   -3.450734
     36          6           0        4.433440   -0.180029   -2.061121
     37          6           0        4.006068   -1.159983   -5.596291
     38          6           0        5.379194    1.309225   -3.510946
     39          8           0        5.744555    2.059847   -4.416800
     40          6           0        5.894054    1.651206   -2.043365
     41          6           0        5.598961    3.103631   -1.785117
     42          8           0        4.422983    3.510819   -1.692167
     43          8           0        6.735161    3.736078   -1.454056
     44          6           0        6.507642    5.175407   -1.156194
     45          1           0        5.364581   -1.795480    3.961496
     46          1           0        1.336575   -5.722544    1.261986
     47          1           0        2.576482   -3.222903   -4.364169
     48          1           0        7.172845    1.569261    0.826928
     49          1           0        6.416757    0.480368    3.314918
     50          1           0        8.181011   -0.506864    1.106148
     51          1           0        7.403048   -1.786988    2.087128
     52          1           0        8.422754   -0.631508    2.896848
     53          1           0        4.762641    2.046343    2.591756
     54          1           0        4.821969    2.891694    0.993527
     55          1           0        7.286440    3.335908    2.341137
     56          1           0        6.115127    3.264936    3.602423
     57          1           0        4.260850   -2.484473    5.619786
     58          1           0        3.668811   -4.077744    5.897257
     59          1           0        2.530053   -2.717008    6.067384
     60          1           0        1.781736   -5.279678    6.002559
     61          1           0        0.012358   -5.756108    5.736492
     62          1           0        0.558400   -4.057881    5.764665
     63          1           0        0.364765   -5.997411   -1.079061
     64          1           0        2.186355   -5.711094   -3.417397
     65          1           0        1.358549   -8.025669   -1.141954
     66          1           0        2.882738   -7.222099   -0.632193
     67          1           0        2.572992   -7.457981   -2.273958
     68          1           0       -0.318905   -5.953193   -3.600077
     69          1           0        0.377009   -4.677879   -4.593617
     70          1           0       -1.199555   -4.607030   -2.132700
     71          1           0       -1.415602   -3.600049   -3.604436
     72          1           0       -0.129062   -3.234647   -2.369121
     73          1           0        3.762860   -0.199501   -6.050487
     74          1           0        3.281101   -1.924606   -5.874458
     75          1           0        5.034819   -1.481184   -5.758641
     76          1           0        6.963231    1.441941   -2.029561
     77          1           0        7.166467    5.746606   -1.810347
     78          1           0        6.636648    5.293326   -0.080157
     79          1           0        5.535108    5.578650   -1.440645
     80         12           0       -3.410949    2.163700    0.450467
     81          6           0       -5.154145   -0.829734   -0.487468
     82          6           0       -2.412005    2.422258   -2.800664
     83          6           0       -1.503772    4.542249    1.329426
     84          6           0       -3.584818    1.064267    3.753000
     85          7           0       -3.798606    0.898187   -1.321664
     86          6           0       -4.525921   -0.180429   -1.570599
     87          6           0       -4.648977   -0.539917   -3.075655
     88          6           0       -3.314768    0.180352   -3.604786
     89          6           0       -3.178205    1.259773   -2.532942
     90          6           0       -2.085362   -0.710877   -3.544490
     91          6           0       -5.933538    0.075246   -3.734045
     92          6           0       -6.280100   -0.485975   -5.114865
     93          1           0       -7.688125   -0.635598   -5.472034
     94          7           0       -2.547428    3.584774   -0.632794
     95          6           0       -2.235278    3.531469   -1.944661
     96          6           0       -1.598591    4.819776   -2.259387
     97          6           0       -1.411507    5.573133   -0.989679
     98          6           0       -1.803243    4.565197   -0.024957
     99          6           0       -1.304434    5.260452   -3.663920
    100          6           0       -0.943659    6.965551   -0.692184
    101          8           0       -0.631457    7.331586    0.495826
    102          6           0       -0.772624    7.860273   -1.846185
    103          7           0       -2.466653    2.624463    2.244443
    104          6           0       -1.736352    3.746073    2.373127
    105          6           0       -1.385982    4.006000    3.818836
    106          6           0       -2.241137    2.951789    4.664377
    107          6           0       -2.898904    2.171606    3.505045
    108          6           0        0.092790    3.867874    4.180148
    109          6           0       -3.154827    3.522736    5.783247
    110          6           0       -4.279020    4.327111    5.171239
    111          7           0       -4.371180    0.537417    1.499860
    112          6           0       -4.291768    0.247652    2.879643
    113          6           0       -5.017191   -1.020148    3.100722
    114          6           0       -5.452115   -1.394868    1.820518
    115          6           0       -5.010430   -0.439284    0.865910
    116          6           0       -5.158972   -1.690836    4.348199
    117          6           0       -6.175342   -2.387051    1.058141
    118          8           0       -6.846007   -3.379493    1.339215
    119          6           0       -5.906648   -2.131399   -0.487444
    120          6           0       -7.229272   -2.176083   -1.202432
    121          8           0       -8.098193   -1.315006   -0.978535
    122          8           0       -7.168286   -3.093334   -2.184920
    123          6           0       -8.453244   -3.166742   -2.930111
    124          1           0       -1.858054    2.473933   -3.738409
    125          1           0       -0.940755    5.400946    1.702426
    126          1           0       -3.767790    0.705941    4.768282
    127          1           0       -4.610600   -1.600403   -3.293998
    128          1           0       -3.469903    0.630624   -4.581797
    129          1           0       -2.289524   -1.645583   -3.043704
    130          1           0       -1.338872   -0.145983   -3.001642
    131          1           0       -1.678683   -0.860594   -4.548737
    132          1           0       -5.733315    1.120879   -4.001060
    133          1           0       -6.779632   -0.021682   -3.081839
    134          1           0       -5.727559   -1.407274   -5.335906
    135          1           0       -5.936027    0.221409   -5.873305
    136          1           0       -1.399484    4.429968   -4.374315
    137          1           0       -0.242836    5.528064   -3.699370
    138          1           0       -1.897419    6.126112   -3.966689
    139          1           0       -0.056809    7.423719   -2.538638
    140          1           0       -0.519713    8.835246   -1.425084
    141          1           0       -1.726654    7.927932   -2.380838
    142          1           0       -1.673820    5.008027    4.112389
    143          1           0       -1.596069    2.237945    5.197425
    144          1           0        0.518457    4.782626    4.634141
    145          1           0        0.638809    3.597609    3.286084
    146          1           0        0.328962    3.045017    4.852697
    147          1           0       -2.591123    4.210486    6.418379
    148          1           0       -3.575293    2.759185    6.429152
    149          1           0       -3.817796    5.304120    4.998559
    150          1           0       -5.116328    4.402488    5.862089
    151          1           0       -4.566920    3.921253    4.194491
    152          1           0       -6.188493   -2.017402    4.410863
    153          1           0       -4.895561   -1.041797    5.180736
    154          1           0       -4.438279   -2.502314    4.216358
    155          1           0       -5.226877   -2.910300   -0.834997
    156          1           0       -8.784184   -4.209291   -2.894392
    157          1           0       -8.244488   -2.738457   -3.928480
    158          1           0       -9.309838   -2.658203   -2.503408
 ---------------------------------------------------------------------

 SCF Done:  E(RCAM-B3LYP) =  -4069.81135512     A.U. after   19 cycles

 Excitation energies and oscillator strengths:

 Excited State   1:      Singlet-A      1.6437 eV  754.31 nm  f=0.0614  <S**2>=0.000
     309 -> 315        0.11510
     310 -> 316        0.11902
     311 -> 313       -0.47590
     312 -> 314        0.49639
 This state for optimization and/or second-order correction.
 Total Energy, E(TD-HF/TD-DFT) =  -4069.75095084
 Copying the excited state density for this state as the 1-particle RhoCI density.

 Excited State   2:      Singlet-A      1.7058 eV  726.83 nm  f=0.6035  <S**2>=0.000
     309 -> 315       -0.13125
     310 -> 316        0.12570
     311 -> 313        0.49362
     312 -> 314        0.47350

 Excited State   3:      Singlet-A      2.1837 eV  567.78 nm  f=0.0231  <S**2>=0.000
     309 -> 313       -0.41135
     310 -> 314        0.49663
     311 -> 315       -0.17103
     312 -> 316       -0.20702

 Excited State   4:      Singlet-A      2.1972 eV  564.29 nm  f=0.1547  <S**2>=0.000
     309 -> 313        0.49191
     310 -> 314        0.40654
     311 -> 315        0.21761
     312 -> 316       -0.18023

 Excited State   5:      Singlet-A      2.2262 eV  556.94 nm  f=0.0000  <S**2>=0.000
     312 -> 313        0.70703

 The electronic state is 1-A.
 Alpha  occ. eigenvalues --  -46.87929 -46.87388 -19.26389 -19.26179 -19.19146
 Alpha  occ. eigenvalues --  -19.18967 -19.18889 -19.18390 -19.18342 -19.17768
 Alpha  occ. eigenvalues --  -14.42576 -14.42224 -14.41589 -14.41105 -14.39529
 Alpha  occ. eigenvalues --  -14.39056 -14.38736 -14.38326 -10.39204 -10.38893
 Alpha  occ. eigenvalues --  -10.35519 -10.35063 -10.34559 -10.33953 -10.31751
 Alpha  occ. eigenvalues --  -10.31619 -10.31549 -10.31043 -10.31014 -10.30727
 Alpha  occ. eigenvalues --  -10.30723 -10.30651 -10.30341 -10.30130 -10.30078
 Alpha  occ. eigenvalues --  -10.30070 -10.29876 -10.29780 -10.29675 -10.29389
 Alpha  occ. eigenvalues --  -10.29121 -10.29106 -10.28829 -10.28539 -10.28502
 Alpha  occ. eigenvalues --  -10.28496 -10.28482 -10.28215 -10.28098 -10.27946
 Alpha  occ. eigenvalues --  -10.27866 -10.27861 -10.27721 -10.27690 -10.27669
 Alpha  occ. eigenvalues --  -10.27606 -10.27579 -10.27532 -10.27391 -10.27358
 Alpha  occ. eigenvalues --  -10.27295 -10.27249 -10.27211 -10.27141 -10.26962
 Alpha  occ. eigenvalues --  -10.26801 -10.26745 -10.26488 -10.26468 -10.26421
 Alpha  occ. eigenvalues --  -10.26329 -10.26182 -10.26094 -10.26052 -10.26048
 Alpha  occ. eigenvalues --  -10.25691 -10.25689 -10.25622 -10.25530 -10.25338
 Alpha  occ. eigenvalues --  -10.24990 -10.24983 -10.24914 -10.24629 -10.24571
 Alpha  occ. eigenvalues --  -10.24423  -3.16671  -3.16139  -1.91553  -1.91139
 Alpha  occ. eigenvalues --   -1.91021  -1.90982  -1.90610  -1.90446  -1.16742
 Alpha  occ. eigenvalues --   -1.16467  -1.08803  -1.08385  -1.07283  -1.06768
 Alpha  occ. eigenvalues --   -1.06751  -1.06640  -1.04707  -1.04216  -1.03894
 Alpha  occ. eigenvalues --   -1.03390  -1.03375  -1.02771  -1.02552  -1.01836
 Alpha  occ. eigenvalues --   -0.92111  -0.91716  -0.89692  -0.89286  -0.89283
 Alpha  occ. eigenvalues --   -0.88902  -0.88442  -0.88052  -0.88040  -0.87797
 Alpha  occ. eigenvalues --   -0.87525  -0.87414  -0.87394  -0.86753  -0.85080
 Alpha  occ. eigenvalues --   -0.84752  -0.84114  -0.83718  -0.83083  -0.82753
 Alpha  occ. eigenvalues --   -0.82633  -0.82374  -0.81710  -0.81373  -0.80720
 Alpha  occ. eigenvalues --   -0.80188  -0.78937  -0.78308  -0.77373  -0.77052
 Alpha  occ. eigenvalues --   -0.76889  -0.76693  -0.76044  -0.75586  -0.75038
 Alpha  occ. eigenvalues --   -0.74619  -0.72929  -0.72431  -0.71797  -0.71353
 Alpha  occ. eigenvalues --   -0.70125  -0.69606  -0.68983  -0.68570  -0.67770
 Alpha  occ. eigenvalues --   -0.67340  -0.67297  -0.66937  -0.65399  -0.65047
 Alpha  occ. eigenvalues --   -0.64982  -0.64749  -0.64527  -0.64458  -0.64388
 Alpha  occ. eigenvalues --   -0.64002  -0.62424  -0.62068  -0.60568  -0.60039
 Alpha  occ. eigenvalues --   -0.59917  -0.59536  -0.59125  -0.58743  -0.58643
 Alpha  occ. eigenvalues --   -0.58174  -0.57727  -0.57449  -0.57313  -0.56993
 Alpha  occ. eigenvalues --   -0.56455  -0.56083  -0.55927  -0.55669  -0.55640
 Alpha  occ. eigenvalues --   -0.55507  -0.55170  -0.55067  -0.54690  -0.54314
 Alpha  occ. eigenvalues --   -0.53988  -0.53712  -0.53436  -0.53326  -0.53058
 Alpha  occ. eigenvalues --   -0.52983  -0.52880  -0.52852  -0.52671  -0.52653
 Alpha  occ. eigenvalues --   -0.52318  -0.52244  -0.52123  -0.51712  -0.51635
 Alpha  occ. eigenvalues --   -0.51389  -0.51342  -0.50962  -0.50690  -0.50269
 Alpha  occ. eigenvalues --   -0.50119  -0.50023  -0.49709  -0.49640  -0.49593
 Alpha  occ. eigenvalues --   -0.49354  -0.49214  -0.49200  -0.48912  -0.48863
 Alpha  occ. eigenvalues --   -0.48719  -0.48601  -0.48544  -0.48324  -0.48187
 Alpha  occ. eigenvalues --   -0.48026  -0.47817  -0.47420  -0.47341  -0.46939
 Alpha  occ. eigenvalues --   -0.46830  -0.46648  -0.46529  -0.46457  -0.46315
 Alpha  occ. eigenvalues --   -0.46304  -0.45993  -0.45975  -0.45870  -0.45609
 Alpha  occ. eigenvalues --   -0.45342  -0.45023  -0.44736  -0.44624  -0.44309
 Alpha  occ. eigenvalues --   -0.44282  -0.44251  -0.44202  -0.44132  -0.43914
 Alpha  occ. eigenvalues --   -0.43829  -0.43632  -0.43631  -0.43503  -0.43381
 Alpha  occ. eigenvalues --   -0.43214  -0.43131  -0.42805  -0.42740  -0.42721
 Alpha  occ. eigenvalues --   -0.42657  -0.42332  -0.42130  -0.41846  -0.41768
 Alpha  occ. eigenvalues --   -0.41631  -0.41404  -0.41260  -0.41218  -0.40993
 Alpha  occ. eigenvalues --   -0.40899  -0.40755  -0.40706  -0.40489  -0.40411
 Alpha  occ. eigenvalues --   -0.40305  -0.40290  -0.39990  -0.39638  -0.39282
 Alpha  occ. eigenvalues --   -0.38605  -0.38176  -0.37825  -0.37473  -0.37427
 Alpha  occ. eigenvalues --   -0.37360  -0.37051  -0.36938  -0.36824  -0.36589
 Alpha  occ. eigenvalues --   -0.36315  -0.36013  -0.34426  -0.33989  -0.33898
 Alpha  occ. eigenvalues --   -0.33651  -0.33327  -0.32901  -0.31419  -0.31163
 Alpha  occ. eigenvalues --   -0.30959  -0.30699  -0.30201  -0.29682  -0.29586
 Alpha  occ. eigenvalues --   -0.29476  -0.29000  -0.28906  -0.24216  -0.23763
 Alpha  occ. eigenvalues --   -0.21270  -0.20832
 Alpha virt. eigenvalues --   -0.08913  -0.08488  -0.01879  -0.01415  -0.00170
 Alpha virt. eigenvalues --    0.00296   0.02036   0.02383   0.02594   0.03601
 Alpha virt. eigenvalues --    0.04610   0.04970   0.05024   0.05375   0.06101

 Mulliken charges:
               1
     1  Mg   0.839055
     2  C   -0.002296
     3  C   -0.094270
     4  C   -0.045232
     5  C   -0.065120
     6  N   -0.256837
     7  C   -0.052254
     8  C   -0.014166
     9  C   -0.087036
    10  C    0.046802
    11  C    0.104759
    12  C    0.053196
    13  C   -0.072798
    14  H    0.038916
    15  N   -0.433416
    16  C    0.169072
    17  C   -0.177062
    18  C   -0.003266
    19  C    0.149531
    20  C    0.110160
    21  C    0.012934
    22  O   -0.247742
    23  C    0.062193
    24  N   -0.341150
    25  C    0.041171
    26  C   -0.029065
    27  C   -0.025699
    28  C    0.074802
    29  C    0.076091
    30  C    0.047414
    31  C   -0.026030
    32  N   -0.310136
    33  C    0.079501
    34  C   -0.172183
    35  C    0.007714
    36  C    0.082455
    37  C    0.127838
    38  C    0.044871
    39  O   -0.189661
    40  C   -0.004925
    41  C    0.212254
    42  O   -0.257367
    43  O   -0.304722
    44  C    0.157883
    45  H   -0.017206
    46  H   -0.015713
    47  H   -0.042807
    48  H    0.000997
    49  H   -0.003811
    50  H    0.025560
    51  H    0.016415
    52  H    0.017013
    53  H    0.010891
    54  H    0.045367
    55  H    0.017511
    56  H    0.017595
    57  H    0.006024
    58  H    0.027530
    59  H    0.039247
    60  H    0.037342
    61  H    0.037193
    62  H    0.030660
    63  H    0.017923
    64  H    0.009792
    65  H    0.024358
    66  H    0.012818
    67  H    0.004719
    68  H    0.006328
    69  H    0.002482
    70  H    0.011684
    71  H    0.022435
    72  H    0.033923
    73  H    0.045160
    74  H    0.007926
    75  H    0.046695
    76  H    0.035424
    77  H    0.042570
    78  H    0.047556
    79  H    0.053562
    80  Mg   0.836728
    81  C   -0.016995
    82  C   -0.086113
    83  C   -0.043358
    84  C   -0.065914
    85  N   -0.254566
    86  C   -0.050837
    87  C   -0.014023
    88  C   -0.092400
    89  C    0.044805
    90  C    0.107241
    91  C    0.063738
    92  C   -0.077348
    93  H    0.034178
    94  N   -0.424550
    95  C    0.162704
    96  C   -0.167989
    97  C   -0.005720
    98  C    0.153428
    99  C    0.096799
   100  C    0.017631
   101  O   -0.254577
   102  C    0.060217
   103  N   -0.350079
   104  C    0.037283
   105  C   -0.019721
   106  C   -0.034070
   107  C    0.088414
   108  C    0.073566
   109  C    0.035124
   110  C   -0.007497
   111  N   -0.323948
   112  C    0.077732
   113  C   -0.163580
   114  C    0.002570
   115  C    0.095410
   116  C    0.130920
   117  C    0.042593
   118  O   -0.188691
   119  C    0.000742
   120  C    0.211084
   121  O   -0.251265
   122  O   -0.305816
   123  C    0.152184
   124  H   -0.016155
   125  H   -0.016082
   126  H   -0.042548
   127  H   -0.001968
   128  H   -0.004981
   129  H    0.029360
   130  H    0.017263
   131  H    0.015025
   132  H    0.014035
   133  H    0.037222
   134  H    0.019412
   135  H    0.019634
   136  H    0.009377
   137  H    0.034312
   138  H    0.038167
   139  H    0.041978
   140  H    0.034677
   141  H    0.032912
   142  H    0.013917
   143  H    0.009671
   144  H    0.023627
   145  H    0.014300
   146  H    0.002354
   147  H    0.004816
   148  H    0.002679
   149  H    0.010687
   150  H    0.017326
   151  H    0.031082
   152  H    0.045304
   153  H    0.006615
   154  H    0.047717
   155  H    0.034996
   156  H    0.043356
   157  H    0.049118
   158  H    0.053420
 Sum of Mulliken charges =  -0.00000

 Dipole moment (field-independent basis, Debye):
    X=              4.9259    Y=             -0.2063    Z=              0.5964  Tot=              4.9662
 Quadrupole moment (field-independent basis, Debye-Ang):
   XX=           -532.8024   YY=           -528.9040   ZZ=           -458.7444
   XY=            -18.5274   XZ=             51.4312   YZ=             17.8529

 Normal termination of Gaussian 16 at Fri Sep  3 12:54:58 2021.
