 Gaussian 16, Revision A.03,
 Gaussian 16:  ES64L-G16RevA.03 25-Dec-2016

 -----------------------------------
 #p cam-b3lyp/Def2SVP td=(nstates=5)
 -----------------------------------

 --------------------------------
 TDDFT excited states in gaussian
 --------------------------------
 Symbolic Z-matrix:
 Charge =  0 Multiplicity = 1

                         Standard orientation:
 ---------------------------------------------------------------------
 Center     Atomic      Atomic             Coordinates (Angstroms)
 Number     Number       Type             X           Y           Z
 ---------------------------------------------------------------------
      1         12           0        3.756894    0.553418    1.586539
      2          6           0        4.836566   -2.354368   -0.199883
      3          6           0        5.611400    2.403034   -0.600422
      4          6           0        3.187649    3.083108    3.412258
      5          6           0        2.947033   -1.557599    4.238593
      6          7           0        5.018656   -0.018002   -0.140332
      7          6           0        5.301323   -1.161079   -0.757297
      8          6           0        6.075192   -0.965996   -2.095371
      9          6           0        6.729229    0.458258   -1.802564
     10          6           0        5.708189    0.996137   -0.815606
     11          6           0        8.085551    0.375024   -1.109769
     12          6           0        5.118088   -0.913262   -3.333474
     13          6           0        5.803713   -1.052682   -4.695764
     14          1           0        5.112379   -1.767938   -5.757750
     15          7           0        3.899713    2.482235    1.183899
     16          6           0        4.693333    3.057764    0.248902
     17          6           0        4.439660    4.511853    0.338097
     18          6           0        3.576547    4.751021    1.528025
     19          6           0        3.541206    3.434369    2.111597
     20          6           0        4.951550    5.499458   -0.665076
     21          6           0        2.900801    5.974620    2.061226
     22          8           0        2.390562    6.013893    3.232844
     23          6           0        2.929955    7.169751    1.198756
     24          7           0        3.358668    0.773609    3.623832
     25          6           0        3.090748    1.974305    4.148745
     26          6           0        2.563462    1.853271    5.547766
     27          6           0        2.295941    0.297220    5.786282
     28          6           0        2.823128   -0.242863    4.434004
     29          6           0        3.479119    2.389543    6.656817
     30          6           0        0.871065   -0.110150    6.238165
     31          6           0       -0.115512    0.150792    5.122068
     32          7           0        3.693855   -1.590492    1.919285
     33          6           0        3.348472   -2.249424    3.108063
     34          6           0        3.558295   -3.690903    2.879630
     35          6           0        4.030003   -3.769467    1.570751
     36          6           0        4.134701   -2.457964    1.025508
     37          6           0        3.371067   -4.722945    3.841019
     38          6           0        4.493309   -4.654415    0.514309
     39          8           0        4.538908   -5.876276    0.364409
     40          6           0        5.149386   -3.765276   -0.632348
     41          6           0        4.592811   -4.237214   -1.947950
     42          8           0        3.386881   -4.077629   -2.226575
     43          8           0        5.603627   -4.582704   -2.760003
     44          6           0        5.121288   -5.032516   -4.093109
     45          1           0        6.340208    3.061309   -1.077343
     46          1           0        2.877165    3.919676    4.041695
     47          1           0        2.635476   -2.283360    4.992023
     48          1           0        6.856436   -1.703490   -2.280262
     49          1           0        6.759594    1.083303   -2.694819
     50          1           0        8.320206   -0.647674   -0.814901
     51          1           0        8.003381    1.015204   -0.231184
     52          1           0        8.865381    0.816871   -1.730584
     53          1           0        4.712900    0.093811   -3.431902
     54          1           0        4.332893   -1.665071   -3.246419
     55          1           0        6.825922   -1.417694   -4.592007
     56          1           0        5.913885   -0.057273   -5.126140
     57          1           0        5.689929    5.050540   -1.328260
     58          1           0        5.507673    6.256042   -0.111888
     59          1           0        4.144106    5.972332   -1.224323
     60          1           0        3.965961    7.443128    0.997497
     61          1           0        2.321867    7.919677    1.703423
     62          1           0        2.485873    6.920334    0.234634
     63          1           0        1.627197    2.398194    5.661307
     64          1           0        2.947539   -0.116494    6.556304
     65          1           0        3.012257    3.153673    7.278790
     66          1           0        4.388387    2.767112    6.189951
     67          1           0        3.879247    1.629009    7.326820
     68          1           0        0.557259    0.491155    7.090752
     69          1           0        0.794078   -1.158812    6.525622
     70          1           0       -0.347767    1.208075    5.244716
     71          1           0       -1.007777   -0.462561    5.251965
     72          1           0        0.349617    0.030741    4.143433
     73          1           0        2.857100   -5.532647    3.323149
     74          1           0        2.793364   -4.368936    4.694565
     75          1           0        4.405549   -4.946884    4.100933
     76          1           0        6.226729   -3.914050   -0.566618
     77          1           0        5.528430   -6.029460   -4.262144
     78          1           0        5.391610   -4.248847   -4.801059
     79          1           0        4.052047   -5.229871   -4.177448
     80         12           0       -3.519112    0.354852   -1.570166
     81          6           0       -5.664171   -1.711134    0.432199
     82          6           0       -5.728945    2.899583   -1.045170
     83          6           0       -1.895120    2.069642   -3.689023
     84          6           0       -2.128369   -2.572167   -2.852363
     85          7           0       -5.414434    0.458018   -0.434669
     86          6           0       -6.099065   -0.372768    0.336967
     87          6           0       -7.272373    0.286838    1.110168
     88          6           0       -7.528209    1.538397    0.137007
     89          6           0       -6.130456    1.670148   -0.464352
     90          6           0       -8.505314    1.236802   -0.987111
     91          6           0       -6.852987    0.753746    2.548260
     92          6           0       -8.017609    1.123403    3.469547
     93          1           0       -7.903411    0.817321    4.892833
     94          7           0       -3.487337    2.314351   -1.883130
     95          6           0       -4.460752    3.201365   -1.588273
     96          6           0       -3.959814    4.511079   -2.033122
     97          6           0       -2.680650    4.300475   -2.763942
     98          6           0       -2.647986    2.853028   -2.826433
     99          6           0       -4.640066    5.803308   -1.685518
    100          6           0       -1.662512    5.245693   -3.326219
    101          8           0       -0.746929    4.848666   -4.130526
    102          6           0       -1.825296    6.665598   -2.981479
    103          7           0       -2.351158   -0.167286   -3.208946
    104          6           0       -1.714023    0.771180   -3.930918
    105          6           0       -0.720606    0.146911   -4.881601
    106          6           0       -0.649300   -1.398130   -4.474952
    107          6           0       -1.727440   -1.418811   -3.369250
    108          6           0       -1.056486    0.266722   -6.367944
    109          6           0        0.755135   -1.975935   -4.148792
    110          6           0        1.285952   -1.355079   -2.876722
    111          7           0       -3.685750   -1.758643   -1.153743
    112          6           0       -3.034015   -2.814754   -1.827501
    113          6           0       -3.552122   -4.077370   -1.262011
    114          6           0       -4.493663   -3.665252   -0.306943
    115          6           0       -4.572473   -2.246416   -0.293346
    116          6           0       -3.181829   -5.387999   -1.675859
    117          6           0       -5.446501   -4.108120    0.685358
    118          8           0       -5.750544   -5.195973    1.173082
    119          6           0       -6.338470   -2.866120    1.119186
    120          6           0       -6.406039   -2.845046    2.621692
    121          8           0       -5.383224   -2.635913    3.297501
    122          8           0       -7.695714   -2.858106    3.004996
    123          6           0       -7.814671   -2.826987    4.487126
    124          1           0       -6.466790    3.697609   -1.132482
    125          1           0       -1.233463    2.615517   -4.365570
    126          1           0       -1.673967   -3.525651   -3.129976
    127          1           0       -8.167868   -0.318950    1.180051
    128          1           0       -7.786339    2.430957    0.700978
    129          1           0       -8.776786    0.191977   -1.015465
    130          1           0       -7.999682    1.521241   -1.900612
    131          1           0       -9.380138    1.888920   -0.911253
    132          1           0       -6.353305    1.728399    2.476774
    133          1           0       -6.236286    0.015968    3.023649
    134          1           0       -8.980402    0.773913    3.077334
    135          1           0       -8.114411    2.211675    3.486917
    136          1           0       -5.645745    5.632629   -1.281935
    137          1           0       -4.811972    6.337337   -2.626336
    138          1           0       -4.037631    6.432586   -1.026930
    139          1           0       -2.800584    7.009359   -3.317774
    140          1           0       -0.952916    7.170137   -3.401341
    141          1           0       -1.816022    6.763964   -1.890219
    142          1           0        0.261062    0.588034   -4.759752
    143          1           0       -1.014853   -2.049297   -5.282528
    144          1           0       -0.260232    0.759732   -6.956990
    145          1           0       -1.989836    0.805280   -6.464631
    146          1           0       -1.279713   -0.674062   -6.868249
    147          1           0        1.463873   -1.717629   -4.939444
    148          1           0        0.764988   -3.056064   -4.047732
    149          1           0        1.714804   -0.410172   -3.223577
    150          1           0        2.045388   -1.991904   -2.427567
    151          1           0        0.469487   -1.112853   -2.186532
    152          1           0       -3.044096   -5.971567   -0.775316
    153          1           0       -2.278964   -5.373053   -2.282810
    154          1           0       -4.064055   -5.664886   -2.259184
    155          1           0       -7.322468   -2.995575    0.666910
    156          1           0       -8.418238   -3.692503    4.777441
    157          1           0       -8.217375   -1.826575    4.733572
    158          1           0       -6.913708   -2.993738    5.065846
 ---------------------------------------------------------------------

 SCF Done:  E(RCAM-B3LYP) =  -4069.81580535     A.U. after   19 cycles

 Excitation energies and oscillator strengths:

 Excited State   1:      Singlet-A      1.6342 eV  758.66 nm  f=0.0035  <S**2>=0.000
     309 -> 315       -0.11201
     310 -> 316        0.11887
     311 -> 313       -0.46989
     312 -> 314        0.50306
 This state for optimization and/or second-order correction.
 Total Energy, E(TD-HF/TD-DFT) =  -4069.75574784
 Copying the excited state density for this state as the 1-particle RhoCI density.

 Excited State   2:      Singlet-A      1.7079 eV  725.95 nm  f=0.6812  <S**2>=0.000
     309 -> 315        0.13375
     310 -> 316        0.12376
     311 -> 313        0.49984
     312 -> 314        0.46679

 Excited State   3:      Singlet-A      2.1784 eV  569.16 nm  f=0.0350  <S**2>=0.000
     309 -> 313        0.27501
     310 -> 314        0.58406
     311 -> 315       -0.11209
     312 -> 316       -0.24117

 Excited State   4:      Singlet-A      2.1968 eV  564.39 nm  f=0.1430  <S**2>=0.000
     309 -> 313        0.57878
     310 -> 314       -0.27015
     311 -> 315       -0.25463
     312 -> 316        0.12171

 Excited State   5:      Singlet-A      2.3265 eV  532.93 nm  f=0.0000  <S**2>=0.000
     312 -> 313        0.70687

 The electronic state is 1-A.
 Alpha  occ. eigenvalues --  -46.87668 -46.87327 -19.26726 -19.26192 -19.19672
 Alpha  occ. eigenvalues --  -19.18991 -19.18723 -19.18549 -19.18166 -19.17784
 Alpha  occ. eigenvalues --  -14.42334 -14.42177 -14.41320 -14.40984 -14.39276
 Alpha  occ. eigenvalues --  -14.39035 -14.38466 -14.38260 -10.39600 -10.38910
 Alpha  occ. eigenvalues --  -10.35356 -10.35236 -10.34407 -10.33962 -10.32041
 Alpha  occ. eigenvalues --  -10.31638 -10.31316 -10.30977 -10.30854 -10.30757
 Alpha  occ. eigenvalues --  -10.30454 -10.30388 -10.30053 -10.30038 -10.30005
 Alpha  occ. eigenvalues --  -10.29791 -10.29736 -10.29510 -10.29499 -10.29112
 Alpha  occ. eigenvalues --  -10.29105 -10.29069 -10.28760 -10.28671 -10.28502
 Alpha  occ. eigenvalues --  -10.28490 -10.28283 -10.28116 -10.28073 -10.27890
 Alpha  occ. eigenvalues --  -10.27688 -10.27671 -10.27598 -10.27461 -10.27353
 Alpha  occ. eigenvalues --  -10.27345 -10.27289 -10.27275 -10.27273 -10.27271
 Alpha  occ. eigenvalues --  -10.27224 -10.27174 -10.27160 -10.26905 -10.26884
 Alpha  occ. eigenvalues --  -10.26805 -10.26789 -10.26500 -10.26362 -10.26326
 Alpha  occ. eigenvalues --  -10.26185 -10.25856 -10.25843 -10.25797 -10.25639
 Alpha  occ. eigenvalues --  -10.25484 -10.25379 -10.25290 -10.25077 -10.25072
 Alpha  occ. eigenvalues --  -10.24732 -10.24675 -10.24562 -10.24357 -10.24233
 Alpha  occ. eigenvalues --  -10.23218  -3.16409  -3.16078  -1.91290  -1.90960
 Alpha  occ. eigenvalues --   -1.90877  -1.90719  -1.90548  -1.90385  -1.17092
 Alpha  occ. eigenvalues --   -1.16482  -1.08665  -1.08398  -1.07210  -1.07127
 Alpha  occ. eigenvalues --   -1.06814  -1.06772  -1.04483  -1.04185  -1.03635
 Alpha  occ. eigenvalues --   -1.03326  -1.03108  -1.02677  -1.02288  -1.01767
 Alpha  occ. eigenvalues --   -0.91947  -0.91682  -0.89351  -0.89157  -0.89018
 Alpha  occ. eigenvalues --   -0.88858  -0.88111  -0.87732  -0.87669  -0.87570
 Alpha  occ. eigenvalues --   -0.87433  -0.87345  -0.87138  -0.86866  -0.84955
 Alpha  occ. eigenvalues --   -0.84729  -0.83778  -0.83306  -0.82833  -0.82659
 Alpha  occ. eigenvalues --   -0.82631  -0.82304  -0.81663  -0.81306  -0.80563
 Alpha  occ. eigenvalues --   -0.80149  -0.78662  -0.78329  -0.77110  -0.76928
 Alpha  occ. eigenvalues --   -0.76827  -0.76496  -0.75907  -0.75546  -0.74772
 Alpha  occ. eigenvalues --   -0.74361  -0.72646  -0.72328  -0.71595  -0.71263
 Alpha  occ. eigenvalues --   -0.69660  -0.69047  -0.68819  -0.68518  -0.67574
 Alpha  occ. eigenvalues --   -0.67298  -0.67200  -0.66977  -0.65277  -0.65001
 Alpha  occ. eigenvalues --   -0.64849  -0.64560  -0.64435  -0.64322  -0.64107
 Alpha  occ. eigenvalues --   -0.63643  -0.62422  -0.61974  -0.60307  -0.60034
 Alpha  occ. eigenvalues --   -0.59748  -0.59518  -0.58914  -0.58646  -0.58460
 Alpha  occ. eigenvalues --   -0.58085  -0.57741  -0.57296  -0.57204  -0.56855
 Alpha  occ. eigenvalues --   -0.56350  -0.56074  -0.55884  -0.55642  -0.55500
 Alpha  occ. eigenvalues --   -0.55332  -0.55218  -0.54858  -0.54579  -0.54012
 Alpha  occ. eigenvalues --   -0.53893  -0.53663  -0.53227  -0.53195  -0.53036
 Alpha  occ. eigenvalues --   -0.52949  -0.52795  -0.52675  -0.52601  -0.52476
 Alpha  occ. eigenvalues --   -0.52169  -0.51804  -0.51605  -0.51554  -0.51427
 Alpha  occ. eigenvalues --   -0.51417  -0.51136  -0.50782  -0.50417  -0.50245
 Alpha  occ. eigenvalues --   -0.49935  -0.49774  -0.49719  -0.49581  -0.49306
 Alpha  occ. eigenvalues --   -0.49227  -0.49131  -0.49035  -0.48950  -0.48785
 Alpha  occ. eigenvalues --   -0.48602  -0.48418  -0.48322  -0.48300  -0.48134
 Alpha  occ. eigenvalues --   -0.47951  -0.47630  -0.47278  -0.47211  -0.46827
 Alpha  occ. eigenvalues --   -0.46696  -0.46552  -0.46368  -0.46291  -0.46225
 Alpha  occ. eigenvalues --   -0.46075  -0.45883  -0.45838  -0.45712  -0.45501
 Alpha  occ. eigenvalues --   -0.45062  -0.44752  -0.44577  -0.44413  -0.44274
 Alpha  occ. eigenvalues --   -0.44130  -0.44111  -0.44001  -0.43928  -0.43885
 Alpha  occ. eigenvalues --   -0.43707  -0.43643  -0.43514  -0.43310  -0.43190
 Alpha  occ. eigenvalues --   -0.43086  -0.42935  -0.42849  -0.42653  -0.42571
 Alpha  occ. eigenvalues --   -0.42461  -0.42057  -0.41868  -0.41640  -0.41484
 Alpha  occ. eigenvalues --   -0.41405  -0.41327  -0.41064  -0.40946  -0.40805
 Alpha  occ. eigenvalues --   -0.40751  -0.40687  -0.40543  -0.40397  -0.40370
 Alpha  occ. eigenvalues --   -0.40266  -0.40026  -0.39833  -0.39169  -0.38608
 Alpha  occ. eigenvalues --   -0.38317  -0.37864  -0.37734  -0.37407  -0.37222
 Alpha  occ. eigenvalues --   -0.37176  -0.37016  -0.36926  -0.36757  -0.36525
 Alpha  occ. eigenvalues --   -0.36161  -0.35775  -0.34320  -0.34132  -0.33918
 Alpha  occ. eigenvalues --   -0.33659  -0.33091  -0.32830  -0.31256  -0.31107
 Alpha  occ. eigenvalues --   -0.30955  -0.30646  -0.30040  -0.29687  -0.29324
 Alpha  occ. eigenvalues --   -0.29205  -0.29037  -0.28888  -0.23982  -0.23695
 Alpha  occ. eigenvalues --   -0.20998  -0.20773
 Alpha virt. eigenvalues --   -0.08658  -0.08471  -0.01629  -0.01347   0.00034
 Alpha virt. eigenvalues --    0.00212   0.02261   0.02460   0.02533   0.04432
 Alpha virt. eigenvalues --    0.04547   0.04746   0.05038   0.05357   0.05866

 Mulliken charges:
               1
     1  Mg   0.838566
     2  C   -0.004906
     3  C   -0.092887
     4  C   -0.045636
     5  C   -0.062009
     6  N   -0.256747
     7  C   -0.053010
     8  C   -0.010970
     9  C   -0.087819
    10  C    0.047332
    11  C    0.104838
    12  C    0.043766
    13  C   -0.071503
    14  H    0.033123
    15  N   -0.433315
    16  C    0.169851
    17  C   -0.175461
    18  C   -0.003664
    19  C    0.148884
    20  C    0.109816
    21  C    0.012066
    22  O   -0.250349
    23  C    0.061785
    24  N   -0.340957
    25  C    0.041496
    26  C   -0.027935
    27  C   -0.024183
    28  C    0.074858
    29  C    0.076354
    30  C    0.034805
    31  C   -0.005594
    32  N   -0.310835
    33  C    0.081241
    34  C   -0.168179
    35  C    0.006998
    36  C    0.083029
    37  C    0.127144
    38  C    0.047276
    39  O   -0.188811
    40  C   -0.008723
    41  C    0.221569
    42  O   -0.255473
    43  O   -0.303076
    44  C    0.156516
    45  H   -0.017771
    46  H   -0.017069
    47  H   -0.039968
    48  H   -0.000371
    49  H   -0.003440
    50  H    0.025148
    51  H    0.016944
    52  H    0.016681
    53  H    0.017460
    54  H    0.042188
    55  H    0.018166
    56  H    0.019639
    57  H    0.006147
    58  H    0.025819
    59  H    0.043314
    60  H    0.037674
    61  H    0.033933
    62  H    0.032969
    63  H    0.016546
    64  H    0.009080
    65  H    0.022723
    66  H    0.012030
    67  H    0.004759
    68  H    0.005365
    69  H    0.006369
    70  H    0.006238
    71  H    0.026642
    72  H    0.028063
    73  H    0.048457
    74  H    0.011149
    75  H    0.045285
    76  H    0.035451
    77  H    0.045035
    78  H    0.047980
    79  H    0.052174
    80  Mg   0.836771
    81  C   -0.018003
    82  C   -0.088302
    83  C   -0.046370
    84  C   -0.061463
    85  N   -0.254689
    86  C   -0.049809
    87  C   -0.015108
    88  C   -0.090364
    89  C    0.045400
    90  C    0.114607
    91  C    0.062587
    92  C   -0.077339
    93  H    0.033470
    94  N   -0.423214
    95  C    0.162569
    96  C   -0.175140
    97  C   -0.008667
    98  C    0.151748
    99  C    0.099412
   100  C    0.014018
   101  O   -0.255862
   102  C    0.061331
   103  N   -0.350749
   104  C    0.038278
   105  C   -0.018698
   106  C   -0.035068
   107  C    0.090267
   108  C    0.074905
   109  C    0.037933
   110  C   -0.030840
   111  N   -0.324621
   112  C    0.079350
   113  C   -0.160462
   114  C    0.001460
   115  C    0.096871
   116  C    0.130718
   117  C    0.042354
   118  O   -0.188347
   119  C    0.000917
   120  C    0.211367
   121  O   -0.252095
   122  O   -0.305458
   123  C    0.152423
   124  H   -0.020816
   125  H   -0.017381
   126  H   -0.035393
   127  H   -0.001203
   128  H   -0.004912
   129  H    0.022035
   130  H    0.014382
   131  H    0.015442
   132  H    0.014332
   133  H    0.036955
   134  H    0.020604
   135  H    0.019576
   136  H    0.008429
   137  H    0.024729
   138  H    0.039283
   139  H    0.038782
   140  H    0.032541
   141  H    0.033953
   142  H    0.013023
   143  H    0.009974
   144  H    0.022031
   145  H    0.010251
   146  H    0.004876
   147  H   -0.003173
   148  H    0.012594
   149  H   -0.000790
   150  H    0.056128
   151  H    0.019525
   152  H    0.046920
   153  H    0.013968
   154  H    0.045306
   155  H    0.034429
   156  H    0.043608
   157  H    0.049314
   158  H    0.052509
 Sum of Mulliken charges =  -0.00000

 Dipole moment (field-independent basis, Debye):
    X=              0.8540    Y=              6.4239    Z=             -1.9220  Tot=              6.7594
 Quadrupole moment (field-independent basis, Debye-Ang):
   XX=           -455.6666   YY=           -538.1283   ZZ=           -485.5672
   XY=            -17.0418   XZ=            -19.9637   YZ=              6.3493

 Normal termination of Gaussian 16 at Wed Sep  8 17:14:49 2021.
