 Gaussian 16, Revision A.03,
 Gaussian 16:  ES64L-G16RevA.03 25-Dec-2016

 -----------------------------------
 #p cam-b3lyp/Def2SVP td=(nstates=5)
 -----------------------------------

 --------------------------------
 TDDFT excited states in gaussian
 --------------------------------
 Symbolic Z-matrix:
 Charge =  0 Multiplicity = 1

                         Standard orientation:
 ---------------------------------------------------------------------
 Center     Atomic      Atomic             Coordinates (Angstroms)
 Number     Number       Type             X           Y           Z
 ---------------------------------------------------------------------
      1         12           0        4.169333   -0.345223   -0.132718
      2          6           0        3.436560   -3.753653   -0.943807
      3          6           0        4.887045    0.130453   -3.434488
      4          6           0        5.254321    2.535340    0.630028
      5          6           0        4.493740   -1.359074    3.185795
      6          7           0        4.127488   -1.714709   -1.871511
      7          6           0        3.770960   -2.981616   -2.058608
      8          6           0        3.712922   -3.391746   -3.560540
      9          6           0        4.713569   -2.303474   -4.157504
     10          6           0        4.540719   -1.215418   -3.112429
     11          6           0        6.171006   -2.753319   -4.161805
     12          6           0        2.275699   -3.240110   -4.163140
     13          6           0        2.059834   -3.921523   -5.517552
     14          1           0        0.765737   -4.523890   -5.800069
     15          7           0        4.487949    1.244215   -1.261886
     16          6           0        4.748331    1.254148   -2.591317
     17          6           0        4.909356    2.675941   -2.964487
     18          6           0        4.909503    3.478460   -1.709873
     19          6           0        4.910255    2.435588   -0.715994
     20          6           0        4.994536    3.149779   -4.382927
     21          6           0        4.919621    4.951401   -1.448201
     22          8           0        5.151986    5.434432   -0.287485
     23          6           0        4.735604    5.827902   -2.619066
     24          7           0        5.002801    0.442268    1.611651
     25          6           0        5.333819    1.735477    1.695460
     26          6           0        5.640977    2.129930    3.109673
     27          6           0        5.213605    0.887973    4.017775
     28          6           0        4.787186   -0.089669    2.894987
     29          6           0        7.103266    2.495187    3.400035
     30          6           0        4.215834    1.169136    5.169217
     31          6           0        2.866623    1.545101    4.598798
     32          7           0        3.830296   -2.173426    0.987003
     33          6           0        4.052845   -2.376864    2.356586
     34          6           0        3.783329   -3.800230    2.631286
     35          6           0        3.436507   -4.333035    1.391255
     36          6           0        3.511665   -3.313347    0.399852
     37          6           0        3.928743   -4.448197    3.889629
     38          6           0        3.043787   -5.532135    0.668906
     39          8           0        2.731962   -6.678233    0.995584
     40          6           0        3.146219   -5.233025   -0.891820
     41          6           0        1.876597   -5.723372   -1.532859
     42          8           0        0.782945   -5.174383   -1.288111
     43          8           0        2.178362   -6.597397   -2.505258
     44          6           0        0.964206   -7.100290   -3.201733
     45          1           0        5.362131    0.337728   -4.395357
     46          1           0        5.528053    3.540617    0.957024
     47          1           0        4.492319   -1.728748    4.212826
     48          1           0        4.084021   -4.394636   -3.772486
     49          1           0        4.389644   -1.945368   -5.134518
     50          1           0        6.297793   -3.698443   -3.633991
     51          1           0        6.722257   -1.959042   -3.658080
     52          1           0        6.561838   -2.790751   -5.178970
     53          1           0        2.114161   -2.201127   -4.450335
     54          1           0        1.522449   -3.593027   -3.457881
     55          1           0        2.864606   -4.621378   -5.744386
     56          1           0        2.132759   -3.162992   -6.296982
     57          1           0        5.133914    2.319971   -5.074691
     58          1           0        5.911425    3.732478   -4.469452
     59          1           0        4.139645    3.766004   -4.661784
     60          1           0        5.525307    5.630256   -3.344224
     61          1           0        4.681417    6.843583   -2.228803
     62          1           0        3.796939    5.569065   -3.109844
     63          1           0        5.063359    3.004578    3.405940
     64          1           0        6.069798    0.430114    4.513732
     65          1           0        7.230400    3.494222    3.817734
     66          1           0        7.668631    2.383082    2.475327
     67          1           0        7.625469    1.801763    4.058735
     68          1           0        4.556774    2.012367    5.768940
     69          1           0        4.080423    0.319410    5.838456
     70          1           0        2.976403    2.609727    4.395447
     71          1           0        2.080208    1.366920    5.332973
     72          1           0        2.684994    1.048316    3.645539
     73          1           0        3.053598   -5.087269    4.006578
     74          1           0        4.002310   -3.724810    4.701357
     75          1           0        4.859239   -4.992766    3.730005
     76          1           0        4.022277   -5.768266   -1.256734
     77          1           0        0.984088   -8.188205   -3.136308
     78          1           0        0.969618   -6.653001   -4.195870
     79          1           0        0.008886   -6.882750   -2.722798
     80         12           0       -3.501041    1.607751    0.585530
     81          6           0       -5.883665   -1.070289    0.411565
     82          6           0       -4.578836    2.567980   -2.504935
     83          6           0       -1.114079    3.696850    0.511369
     84          6           0       -1.861870   -0.197749    3.075305
     85          7           0       -5.038974    0.776505   -0.769489
     86          6           0       -5.924064   -0.206616   -0.702821
     87          6           0       -6.959889   -0.219000   -1.858876
     88          6           0       -6.102678    0.577997   -2.958361
     89          6           0       -5.203671    1.388496   -2.026926
     90          6           0       -5.221989   -0.325322   -3.805546
     91          6           0       -8.276988    0.549679   -1.489576
     92          6           0       -9.447557    0.316830   -2.447332
     93          1           0      -10.799509    0.275045   -1.896915
     94          7           0       -3.239642    3.219579   -0.542424
     95          6           0       -3.770303    3.454979   -1.760722
     96          6           0       -3.257377    4.769830   -2.175739
     97          6           0       -2.250374    5.217500   -1.175614
     98          6           0       -2.144810    4.026622   -0.356619
     99          6           0       -3.783361    5.507666   -3.372560
    100          6           0       -1.496458    6.500117   -0.994790
    101          8           0       -0.495540    6.586359   -0.198829
    102          6           0       -1.905617    7.626702   -1.846191
    103          7           0       -1.627219    1.640170    1.485579
    104          6           0       -0.804033    2.691988    1.330772
    105          6           0        0.362904    2.616639    2.286275
    106          6           0        0.022992    1.415285    3.285662
    107          6           0       -1.297452    0.924972    2.652096
    108          6           0        1.730784    2.375838    1.648072
    109          6           0        0.038779    1.737861    4.804994
    110          6           0       -1.095388    2.677837    5.144834
    111          7           0       -3.889767   -0.194836    1.711403
    112          6           0       -3.058785   -0.786531    2.687850
    113          6           0       -3.694272   -2.058964    3.087244
    114          6           0       -4.848251   -2.130975    2.292491
    115          6           0       -4.915933   -0.994245    1.442328
    116          6           0       -3.173599   -2.988564    4.031095
    117          6           0       -6.018982   -2.915353    1.971837
    118          8           0       -6.534728   -3.933746    2.430774
    119          6           0       -6.675636   -2.325934    0.649803
    120          6           0       -8.154360   -2.187069    0.887743
    121          8           0       -8.585815   -1.382776    1.732475
    122          8           0       -8.819627   -2.862867   -0.066765
    123          6           0      -10.290425   -2.745900    0.120061
    124          1           0       -4.681700    2.818034   -3.561231
    125          1           0       -0.319430    4.440793    0.603952
    126          1           0       -1.463975   -0.770387    3.915800
    127          1           0       -7.215352   -1.204515   -2.229366
    128          1           0       -6.733310    1.237560   -3.548831
    129          1           0       -5.229008   -1.344536   -3.448765
    130          1           0       -4.225289    0.091200   -3.741216
    131          1           0       -5.511014   -0.254170   -4.858038
    132          1           0       -8.119224    1.624915   -1.643616
    133          1           0       -8.580988    0.324302   -0.485872
    134          1           0       -9.274986   -0.541322   -3.108196
    135          1           0       -9.514473    1.169571   -3.127309
    136          1           0       -4.399916    4.858416   -4.006389
    137          1           0       -2.920118    5.758043   -3.998644
    138          1           0       -4.304200    6.429177   -3.103858
    139          1           0       -1.808188    7.343366   -2.891513
    140          1           0       -1.312047    8.478602   -1.508829
    141          1           0       -2.968519    7.828446   -1.672564
    142          1           0        0.455473    3.532729    2.856636
    143          1           0        0.743166    0.589435    3.189882
    144          1           0        2.472124    3.158715    1.896253
    145          1           0        1.599415    2.302493    0.576672
    146          1           0        2.191537    1.419678    1.890322
    147          1           0        0.962601    2.256683    5.072415
    148          1           0       -0.029535    0.856809    5.434337
    149          1           0       -0.684808    3.660614    4.894529
    150          1           0       -1.344087    2.611610    6.202105
    151          1           0       -1.958732    2.505213    4.491776
    152          1           0       -4.004096   -3.303033    4.649055
    153          1           0       -2.378331   -2.546327    4.627544
    154          1           0       -2.798553   -3.762493    3.356089
    155          1           0       -6.455060   -3.019267   -0.162740
    156          1           0      -10.687614   -3.764239    0.173950
    157          1           0      -10.647468   -2.109298   -0.711197
    158          1           0      -10.645299   -2.330667    1.056070
 ---------------------------------------------------------------------

 SCF Done:  E(RCAM-B3LYP) =  -4069.78447866     A.U. after   19 cycles

 Excitation energies and oscillator strengths:

 Excited State   1:      Singlet-A      1.6330 eV  759.25 nm  f=0.0008  <S**2>=0.000
     309 -> 315       -0.11310
     310 -> 316       -0.11736
     311 -> 313       -0.47573
     312 -> 314        0.49764
 This state for optimization and/or second-order correction.
 Total Energy, E(TD-HF/TD-DFT) =  -4069.72446786
 Copying the excited state density for this state as the 1-particle RhoCI density.

 Excited State   2:      Singlet-A      1.7111 eV  724.57 nm  f=0.6701  <S**2>=0.000
     309 -> 315        0.13338
     310 -> 316       -0.12601
     311 -> 313        0.49423
     312 -> 314        0.47241

 Excited State   3:      Singlet-A      2.1781 eV  569.24 nm  f=0.0494  <S**2>=0.000
     309 -> 313       -0.33159
     310 -> 314        0.55458
     311 -> 315        0.13594
     312 -> 316        0.22729

 Excited State   4:      Singlet-A      2.1962 eV  564.54 nm  f=0.1344  <S**2>=0.000
     309 -> 313        0.54582
     310 -> 314        0.32334
     311 -> 315       -0.24198
     312 -> 316        0.14724

 Excited State   5:      Singlet-A      2.2266 eV  556.82 nm  f=0.0015  <S**2>=0.000
     312 -> 313        0.70294

 The electronic state is 1-A.
 Alpha  occ. eigenvalues --  -46.87854 -46.87394 -19.26310 -19.26138 -19.19049
 Alpha  occ. eigenvalues --  -19.18938 -19.18724 -19.18493 -19.18217 -19.17762
 Alpha  occ. eigenvalues --  -14.42538 -14.42237 -14.41560 -14.41106 -14.39467
 Alpha  occ. eigenvalues --  -14.39092 -14.38690 -14.38313 -10.39113 -10.38861
 Alpha  occ. eigenvalues --  -10.35351 -10.35178 -10.34440 -10.33937 -10.31694
 Alpha  occ. eigenvalues --  -10.31574 -10.31510 -10.31031 -10.30970 -10.30798
 Alpha  occ. eigenvalues --  -10.30670 -10.30588 -10.30327 -10.30109 -10.30066
 Alpha  occ. eigenvalues --  -10.30043 -10.29919 -10.29695 -10.29627 -10.29334
 Alpha  occ. eigenvalues --  -10.29188 -10.29117 -10.28822 -10.28627 -10.28510
 Alpha  occ. eigenvalues --  -10.28505 -10.28431 -10.28198 -10.28148 -10.27925
 Alpha  occ. eigenvalues --  -10.27859 -10.27821 -10.27728 -10.27629 -10.27612
 Alpha  occ. eigenvalues --  -10.27600 -10.27508 -10.27486 -10.27418 -10.27318
 Alpha  occ. eigenvalues --  -10.27273 -10.27222 -10.27221 -10.27210 -10.27205
 Alpha  occ. eigenvalues --  -10.26780 -10.26774 -10.26513 -10.26307 -10.26291
 Alpha  occ. eigenvalues --  -10.26227 -10.26214 -10.26170 -10.25946 -10.25815
 Alpha  occ. eigenvalues --  -10.25654 -10.25536 -10.25411 -10.25309 -10.25256
 Alpha  occ. eigenvalues --  -10.24902 -10.24894 -10.24581 -10.24460 -10.24423
 Alpha  occ. eigenvalues --  -10.24341  -3.16608  -3.16143  -1.91489  -1.91076
 Alpha  occ. eigenvalues --   -1.91025  -1.90917  -1.90614  -1.90450  -1.16660
 Alpha  occ. eigenvalues --   -1.16428  -1.08674  -1.08366  -1.07106  -1.06752
 Alpha  occ. eigenvalues --   -1.06721  -1.06671  -1.04664  -1.04237  -1.03860
 Alpha  occ. eigenvalues --   -1.03402  -1.03319  -1.02775  -1.02504  -1.01846
 Alpha  occ. eigenvalues --   -0.92051  -0.91717  -0.89748  -0.89298  -0.89246
 Alpha  occ. eigenvalues --   -0.88937  -0.88482  -0.88029  -0.87957  -0.87767
 Alpha  occ. eigenvalues --   -0.87482  -0.87425  -0.87278  -0.86905  -0.85056
 Alpha  occ. eigenvalues --   -0.84783  -0.84160  -0.83677  -0.82987  -0.82756
 Alpha  occ. eigenvalues --   -0.82676  -0.82444  -0.81655  -0.81350  -0.80660
 Alpha  occ. eigenvalues --   -0.80203  -0.78846  -0.78386  -0.77416  -0.77059
 Alpha  occ. eigenvalues --   -0.76907  -0.76683  -0.76019  -0.75607  -0.75118
 Alpha  occ. eigenvalues --   -0.74659  -0.72951  -0.72451  -0.71769  -0.71451
 Alpha  occ. eigenvalues --   -0.70954  -0.69106  -0.68836  -0.68573  -0.67702
 Alpha  occ. eigenvalues --   -0.67365  -0.67254  -0.66997  -0.65402  -0.65125
 Alpha  occ. eigenvalues --   -0.64961  -0.64785  -0.64600  -0.64461  -0.64373
 Alpha  occ. eigenvalues --   -0.64040  -0.62368  -0.62101  -0.60489  -0.60127
 Alpha  occ. eigenvalues --   -0.59880  -0.59563  -0.59085  -0.58756  -0.58593
 Alpha  occ. eigenvalues --   -0.58204  -0.57648  -0.57416  -0.57292  -0.57046
 Alpha  occ. eigenvalues --   -0.56374  -0.56032  -0.56024  -0.55821  -0.55658
 Alpha  occ. eigenvalues --   -0.55507  -0.55223  -0.55109  -0.54753  -0.54248
 Alpha  occ. eigenvalues --   -0.53974  -0.53709  -0.53430  -0.53233  -0.53053
 Alpha  occ. eigenvalues --   -0.53001  -0.52925  -0.52734  -0.52715  -0.52619
 Alpha  occ. eigenvalues --   -0.52474  -0.52268  -0.51992  -0.51654  -0.51508
 Alpha  occ. eigenvalues --   -0.51445  -0.51364  -0.51030  -0.50540  -0.50323
 Alpha  occ. eigenvalues --   -0.50229  -0.49943  -0.49837  -0.49717  -0.49507
 Alpha  occ. eigenvalues --   -0.49285  -0.49265  -0.49165  -0.48965  -0.48878
 Alpha  occ. eigenvalues --   -0.48719  -0.48584  -0.48414  -0.48314  -0.48183
 Alpha  occ. eigenvalues --   -0.48113  -0.47781  -0.47427  -0.47370  -0.47129
 Alpha  occ. eigenvalues --   -0.46916  -0.46678  -0.46562  -0.46448  -0.46374
 Alpha  occ. eigenvalues --   -0.46336  -0.46142  -0.45932  -0.45798  -0.45692
 Alpha  occ. eigenvalues --   -0.45503  -0.45153  -0.44621  -0.44445  -0.44373
 Alpha  occ. eigenvalues --   -0.44316  -0.44187  -0.44141  -0.44035  -0.43912
 Alpha  occ. eigenvalues --   -0.43860  -0.43709  -0.43593  -0.43484  -0.43321
 Alpha  occ. eigenvalues --   -0.43127  -0.43060  -0.42765  -0.42718  -0.42694
 Alpha  occ. eigenvalues --   -0.42556  -0.42370  -0.41992  -0.41746  -0.41657
 Alpha  occ. eigenvalues --   -0.41569  -0.41383  -0.41229  -0.41132  -0.40994
 Alpha  occ. eigenvalues --   -0.40837  -0.40729  -0.40683  -0.40520  -0.40502
 Alpha  occ. eigenvalues --   -0.40276  -0.40152  -0.40037  -0.39236  -0.38721
 Alpha  occ. eigenvalues --   -0.38209  -0.38032  -0.37748  -0.37440  -0.37343
 Alpha  occ. eigenvalues --   -0.37336  -0.37002  -0.36959  -0.36666  -0.36484
 Alpha  occ. eigenvalues --   -0.36139  -0.35639  -0.34374  -0.33965  -0.33803
 Alpha  occ. eigenvalues --   -0.33629  -0.33252  -0.32904  -0.31270  -0.31084
 Alpha  occ. eigenvalues --   -0.31050  -0.30705  -0.30079  -0.29665  -0.29487
 Alpha  occ. eigenvalues --   -0.29384  -0.29074  -0.28904  -0.24178  -0.23765
 Alpha  occ. eigenvalues --   -0.21223  -0.20847
 Alpha virt. eigenvalues --   -0.08851  -0.08525  -0.01858  -0.01433  -0.00056
 Alpha virt. eigenvalues --    0.00205   0.02120   0.02498   0.03115   0.03760
 Alpha virt. eigenvalues --    0.04614   0.04982   0.05063   0.05397   0.06057

 Mulliken charges:
               1
     1  Mg   0.811408
     2  C   -0.001336
     3  C   -0.093665
     4  C   -0.050400
     5  C   -0.061535
     6  N   -0.252056
     7  C   -0.053846
     8  C   -0.013707
     9  C   -0.087062
    10  C    0.045672
    11  C    0.104786
    12  C    0.053497
    13  C   -0.071569
    14  H    0.035651
    15  N   -0.432746
    16  C    0.171188
    17  C   -0.178132
    18  C   -0.001371
    19  C    0.152657
    20  C    0.110599
    21  C    0.017221
    22  O   -0.248242
    23  C    0.061717
    24  N   -0.338132
    25  C    0.037994
    26  C   -0.027247
    27  C   -0.023923
    28  C    0.070994
    29  C    0.078097
    30  C    0.079140
    31  C   -0.059974
    32  N   -0.308046
    33  C    0.071360
    34  C   -0.169901
    35  C    0.007654
    36  C    0.083806
    37  C    0.127542
    38  C    0.046215
    39  O   -0.187833
    40  C   -0.005932
    41  C    0.212928
    42  O   -0.256700
    43  O   -0.304876
    44  C    0.157438
    45  H   -0.017550
    46  H   -0.016523
    47  H   -0.042667
    48  H    0.001113
    49  H   -0.004170
    50  H    0.025730
    51  H    0.016628
    52  H    0.016773
    53  H    0.011026
    54  H    0.044488
    55  H    0.018142
    56  H    0.017519
    57  H    0.005312
    58  H    0.027201
    59  H    0.040061
    60  H    0.035307
    61  H    0.038463
    62  H    0.033391
    63  H    0.014363
    64  H    0.008499
    65  H    0.023331
    66  H    0.013337
    67  H    0.005053
    68  H    0.002096
    69  H   -0.000710
    70  H    0.012973
    71  H    0.035093
    72  H    0.034474
    73  H    0.047231
    74  H    0.007995
    75  H    0.046523
    76  H    0.035384
    77  H    0.043425
    78  H    0.045967
    79  H    0.054270
    80  Mg   0.839184
    81  C   -0.016498
    82  C   -0.088430
    83  C   -0.047429
    84  C   -0.065099
    85  N   -0.254405
    86  C   -0.048885
    87  C   -0.015161
    88  C   -0.090660
    89  C    0.045815
    90  C    0.114681
    91  C    0.062656
    92  C   -0.077465
    93  H    0.034312
    94  N   -0.423042
    95  C    0.162425
    96  C   -0.176493
    97  C   -0.008629
    98  C    0.150729
    99  C    0.100310
   100  C    0.013398
   101  O   -0.251972
   102  C    0.061469
   103  N   -0.349917
   104  C    0.036696
   105  C    0.006276
   106  C   -0.058645
   107  C    0.101000
   108  C    0.029473
   109  C    0.000725
   110  C    0.019195
   111  N   -0.325027
   112  C    0.079695
   113  C   -0.159454
   114  C    0.003150
   115  C    0.097330
   116  C    0.130944
   117  C    0.043767
   118  O   -0.187294
   119  C    0.000410
   120  C    0.211025
   121  O   -0.251461
   122  O   -0.305494
   123  C    0.152223
   124  H   -0.021361
   125  H   -0.013952
   126  H   -0.040191
   127  H   -0.000701
   128  H   -0.005288
   129  H    0.023685
   130  H    0.014254
   131  H    0.014494
   132  H    0.013726
   133  H    0.037655
   134  H    0.020538
   135  H    0.019076
   136  H    0.007968
   137  H    0.023395
   138  H    0.039043
   139  H    0.036064
   140  H    0.036080
   141  H    0.033924
   142  H    0.010425
   143  H    0.015519
   144  H    0.040021
   145  H    0.021139
   146  H    0.028497
   147  H    0.024352
   148  H    0.004349
   149  H    0.007544
   150  H    0.013344
   151  H    0.023570
   152  H    0.044683
   153  H    0.006883
   154  H    0.054661
   155  H    0.036306
   156  H    0.043677
   157  H    0.049015
   158  H    0.053295
 Sum of Mulliken charges =  -0.00000

 Dipole moment (field-independent basis, Debye):
    X=              2.7514    Y=              3.3179    Z=             -7.6825  Tot=              8.8090
 Quadrupole moment (field-independent basis, Debye-Ang):
   XX=           -496.7475   YY=           -554.4738   ZZ=           -452.5604
   XY=            -23.9955   XZ=             30.0756   YZ=              4.5809

 Normal termination of Gaussian 16 at Thu Sep  9 08:42:41 2021.
