 Gaussian 16, Revision A.03,
 Gaussian 16:  ES64L-G16RevA.03 25-Dec-2016

 -----------------------------------
 #p cam-b3lyp/Def2SVP td=(nstates=5)
 -----------------------------------

 --------------------------------
 TDDFT excited states in gaussian
 --------------------------------
 Symbolic Z-matrix:
 Charge =  0 Multiplicity = 1

                         Standard orientation:
 ---------------------------------------------------------------------
 Center     Atomic      Atomic             Coordinates (Angstroms)
 Number     Number       Type             X           Y           Z
 ---------------------------------------------------------------------
      1         12           0       -3.704028   -1.250498    0.341217
      2          6           0       -4.342536    2.266392    0.530969
      3          6           0       -4.823496   -1.129022   -2.879824
      4          6           0       -3.578901   -4.418878    0.292950
      5          6           0       -3.724775   -1.292629    3.825963
      6          7           0       -4.458718    0.416676   -0.904425
      7          6           0       -4.597032    1.727541   -0.732168
      8          6           0       -4.965475    2.487255   -2.041541
      9          6           0       -5.628703    1.285043   -2.851981
     10          6           0       -4.902447    0.122167   -2.199144
     11          6           0       -7.125378    1.133029   -2.600269
     12          6           0       -3.703040    3.047719   -2.779017
     13          6           0       -3.990793    4.072619   -3.879986
     14          1           0       -3.056939    5.171289   -4.075403
     15          7           0       -3.668218   -2.508209   -1.181849
     16          6           0       -4.154480   -2.286602   -2.426728
     17          6           0       -3.888565   -3.522353   -3.194120
     18          6           0       -3.379583   -4.548453   -2.242201
     19          6           0       -3.548820   -3.865672   -0.985003
     20          6           0       -4.072113   -3.625502   -4.677164
     21          6           0       -2.837949   -5.929737   -2.434083
     22          8           0       -2.669371   -6.736124   -1.456383
     23          6           0       -2.589815   -6.350744   -3.824847
     24          7           0       -3.875819   -2.701300    1.832288
     25          6           0       -3.724450   -4.000313    1.551864
     26          6           0       -3.607323   -4.819009    2.803247
     27          6           0       -3.466104   -3.774835    4.003043
     28          6           0       -3.617289   -2.463321    3.193510
     29          6           0       -4.775421   -5.772253    3.091140
     30          6           0       -2.234818   -3.931472    4.930307
     31          6           0       -0.970993   -3.612343    4.163495
     32          7           0       -3.804145    0.230090    1.925162
     33          6           0       -3.821144   -0.012582    3.306283
     34          6           0       -4.006151    1.290206    3.971552
     35          6           0       -4.101147    2.204107    2.923885
     36          6           0       -4.009272    1.512520    1.682290
     37          6           0       -4.124432    1.500554    5.373764
     38          6           0       -4.283585    3.600935    2.564103
     39          8           0       -4.325394    4.659841    3.192168
     40          6           0       -4.569283    3.682194    0.999622
     41          6           0       -3.687174    4.760576    0.431921
     42          8           0       -2.446673    4.626388    0.409222
     43          8           0       -4.445621    5.665713   -0.205283
     44          6           0       -3.629297    6.747931   -0.817308
     45          1           0       -5.371073   -1.256210   -3.815732
     46          1           0       -3.427160   -5.499791    0.325190
     47          1           0       -3.656442   -1.217151    4.912741
     48          1           0       -5.688817    3.292440   -1.911621
     49          1           0       -5.391867    1.331140   -3.914763
     50          1           0       -7.464987    1.796286   -1.804860
     51          1           0       -7.267970    0.090872   -2.313791
     52          1           0       -7.689280    1.269884   -3.523340
     53          1           0       -3.254235    2.254404   -3.376751
     54          1           0       -2.996856    3.473760   -2.065491
     55          1           0       -5.013204    4.446611   -3.819031
     56          1           0       -3.946004    3.562082   -4.842039
     57          1           0       -4.613175   -2.767587   -5.074378
     58          1           0       -4.734513   -4.471827   -4.857912
     59          1           0       -3.127034   -3.780611   -5.197836
     60          1           0       -3.520881   -6.295080   -4.389263
     61          1           0       -2.120558   -7.331967   -3.762817
     62          1           0       -1.905489   -5.641696   -4.291643
     63          1           0       -2.721578   -5.452310    2.774755
     64          1           0       -4.317641   -3.815144    4.682700
     65          1           0       -4.473716   -6.814359    3.199286
     66          1           0       -5.508174   -5.658102    2.292808
     67          1           0       -5.368956   -5.516021    3.968340
     68          1           0       -2.148953   -4.961104    5.275894
     69          1           0       -2.273814   -3.288613    5.809775
     70          1           0       -0.747641   -4.552411    3.660287
     71          1           0       -0.169295   -3.336577    4.849385
     72          1           0       -1.152016   -2.864390    3.391301
     73          1           0       -3.513975    2.373709    5.603786
     74          1           0       -3.793254    0.626810    5.934564
     75          1           0       -5.197131    1.671724    5.462497
     76          1           0       -5.627227    3.916613    0.885930
     77          1           0       -4.005943    7.693647   -0.427444
     78          1           0       -3.668685    6.593620   -1.895752
     79          1           0       -2.585146    6.798501   -0.506617
     80         12           0        4.157638   -0.248147   -0.203040
     81          6           0        3.199960    3.202006    0.038541
     82          6           0        2.765597   -0.261718   -3.316975
     83          6           0        4.582148   -3.391815   -0.270737
     84          6           0        4.427623   -0.272568    3.271470
     85          7           0        3.144605    1.328532   -1.377816
     86          6           0        2.893380    2.617894   -1.208154
     87          6           0        2.352930    3.339586   -2.471732
     88          6           0        1.735216    2.066059   -3.230301
     89          6           0        2.622408    0.973827   -2.636516
     90          6           0        0.294984    1.774841   -2.842632
     91          6           0        3.495959    4.009983   -3.312007
     92          6           0        3.015408    4.989159   -4.385342
     93          1           0        3.826139    6.171869   -4.661711
     94          7           0        4.187052   -1.507358   -1.736689
     95          6           0        3.587214   -1.344805   -2.934629
     96          6           0        3.892337   -2.560027   -3.705538
     97          6           0        4.582625   -3.524681   -2.806840
     98          6           0        4.456062   -2.838572   -1.536668
     99          6           0        3.603306   -2.686624   -5.173144
    100          6           0        5.235838   -4.851799   -3.048171
    101          8           0        5.563093   -5.626961   -2.081289
    102          6           0        5.396075   -5.258009   -4.452027
    103          7           0        4.255424   -1.690216    1.291358
    104          6           0        4.501136   -2.978305    0.994070
    105          6           0        4.799402   -3.778286    2.239648
    106          6           0        4.941194   -2.704456    3.416237
    107          6           0        4.597128   -1.420486    2.629832
    108          6           0        3.751717   -4.821750    2.626858
    109          6           0        6.256186   -2.735188    4.242391
    110          6           0        7.420668   -2.314733    3.374876
    111          7           0        4.054317    1.223526    1.375437
    112          6           0        4.169544    0.994450    2.764082
    113          6           0        3.916452    2.283236    3.440408
    114          6           0        3.646733    3.174722    2.391130
    115          6           0        3.706251    2.485430    1.149824
    116          6           0        3.905972    2.496195    4.847763
    117          6           0        3.314733    4.539819    2.052022
    118          8           0        3.217982    5.592388    2.681694
    119          6           0        2.886249    4.590613    0.522254
    120          6           0        3.611126    5.738553   -0.125279
    121          8           0        4.849529    5.721260   -0.237801
    122          8           0        2.712528    6.561227   -0.696339
    123          6           0        3.383986    7.709661   -1.361223
    124          1           0        2.160034   -0.437313   -4.206555
    125          1           0        4.839247   -4.453241   -0.243522
    126          1           0        4.589500   -0.175620    4.347143
    127          1           0        1.576788    4.070803   -2.280174
    128          1           0        1.883860    2.135871   -4.304730
    129          1           0       -0.038547    2.403353   -2.030314
    130          1           0        0.274311    0.733642   -2.548471
    131          1           0       -0.354566    1.853341   -3.719129
    132          1           0        3.965767    3.249173   -3.948545
    133          1           0        4.205186    4.496218   -2.670768
    134          1           0        1.963554    5.267814   -4.247866
    135          1           0        3.033754    4.480553   -5.352289
    136          1           0        2.943461   -1.883527   -5.523920
    137          1           0        3.013345   -3.600062   -5.305217
    138          1           0        4.510692   -2.761676   -5.776209
    139          1           0        4.421012   -5.289683   -4.932355
    140          1           0        5.962220   -6.191035   -4.423480
    141          1           0        5.979157   -4.490945   -4.973808
    142          1           0        5.734564   -4.315461    2.139562
    143          1           0        4.155995   -2.827137    4.176657
    144          1           0        4.164280   -5.845091    2.708373
    145          1           0        2.953202   -4.790659    1.897517
    146          1           0        3.222783   -4.621944    3.557178
    147          1           0        6.469835   -3.753466    4.576494
    148          1           0        6.226129   -2.106062    5.125732
    149          1           0        7.684695   -3.238562    2.851498
    150          1           0        8.246154   -1.958682    3.987937
    151          1           0        7.105375   -1.586187    2.618924
    152          1           0        4.441786    3.418830    5.027039
    153          1           0        4.359629    1.662342    5.379430
    154          1           0        2.829458    2.560579    5.027270
    155          1           0        1.803681    4.719238    0.489364
    156          1           0        2.948713    8.621412   -0.940596
    157          1           0        3.253821    7.543920   -2.447200
    158          1           0        4.436687    7.862951   -1.154419
 ---------------------------------------------------------------------

 SCF Done:  E(RCAM-B3LYP) =  -4069.81166810     A.U. after   19 cycles

 Excitation energies and oscillator strengths:

 Excited State   1:      Singlet-A      1.6374 eV  757.20 nm  f=0.0007  <S**2>=0.000
     309 -> 315       -0.11437
     310 -> 316        0.11769
     311 -> 313       -0.47670
     312 -> 314        0.49651
 This state for optimization and/or second-order correction.
 Total Energy, E(TD-HF/TD-DFT) =  -4069.75149468
 Copying the excited state density for this state as the 1-particle RhoCI density.

 Excited State   2:      Singlet-A      1.7118 eV  724.28 nm  f=0.6775  <S**2>=0.000
     309 -> 315        0.13307
     310 -> 316        0.12624
     311 -> 313        0.49305
     312 -> 314        0.47343

 Excited State   3:      Singlet-A      2.1770 eV  569.52 nm  f=0.0121  <S**2>=0.000
     309 -> 313       -0.33501
     310 -> 314        0.55289
     311 -> 315        0.13656
     312 -> 316       -0.22726

 Excited State   4:      Singlet-A      2.1979 eV  564.11 nm  f=0.1562  <S**2>=0.000
     309 -> 313        0.54637
     310 -> 314        0.32868
     311 -> 315       -0.24278
     312 -> 316       -0.14777

 Excited State   5:      Singlet-A      2.2164 eV  559.40 nm  f=0.0000  <S**2>=0.000
     312 -> 313        0.70695

 The electronic state is 1-A.
 Alpha  occ. eigenvalues --  -46.87951 -46.87366 -19.26448 -19.25968 -19.19222
 Alpha  occ. eigenvalues --  -19.18930 -19.18782 -19.18469 -19.18267 -19.17617
 Alpha  occ. eigenvalues --  -14.42622 -14.42204 -14.41600 -14.41067 -14.39554
 Alpha  occ. eigenvalues --  -14.39061 -14.38731 -14.38284 -10.39271 -10.38692
 Alpha  occ. eigenvalues --  -10.35566 -10.35154 -10.34494 -10.33779 -10.31809
 Alpha  occ. eigenvalues --  -10.31580 -10.31474 -10.31100 -10.30987 -10.30725
 Alpha  occ. eigenvalues --  -10.30715 -10.30642 -10.30357 -10.30085 -10.30051
 Alpha  occ. eigenvalues --  -10.30040 -10.29900 -10.29772 -10.29588 -10.29404
 Alpha  occ. eigenvalues --  -10.29173 -10.29099 -10.29007 -10.28930 -10.28519
 Alpha  occ. eigenvalues --  -10.28490 -10.28374 -10.28345 -10.28076 -10.27929
 Alpha  occ. eigenvalues --  -10.27899 -10.27836 -10.27731 -10.27692 -10.27688
 Alpha  occ. eigenvalues --  -10.27634 -10.27567 -10.27566 -10.27399 -10.27329
 Alpha  occ. eigenvalues --  -10.27312 -10.27304 -10.27177 -10.27151 -10.27142
 Alpha  occ. eigenvalues --  -10.27092 -10.26553 -10.26500 -10.26447 -10.26423
 Alpha  occ. eigenvalues --  -10.26329 -10.26250 -10.26168 -10.25965 -10.25925
 Alpha  occ. eigenvalues --  -10.25662 -10.25652 -10.25535 -10.25530 -10.25170
 Alpha  occ. eigenvalues --  -10.24965 -10.24927 -10.24852 -10.24557 -10.24537
 Alpha  occ. eigenvalues --  -10.24384  -3.16693  -3.16117  -1.91574  -1.91162
 Alpha  occ. eigenvalues --   -1.91003  -1.91000  -1.90588  -1.90424  -1.16800
 Alpha  occ. eigenvalues --   -1.16262  -1.08723  -1.08206  -1.07326  -1.06826
 Alpha  occ. eigenvalues --   -1.06724  -1.06565  -1.04754  -1.04188  -1.03913
 Alpha  occ. eigenvalues --   -1.03380  -1.03365  -1.02745  -1.02559  -1.01807
 Alpha  occ. eigenvalues --   -0.92125  -0.91617  -0.89664  -0.89427  -0.89225
 Alpha  occ. eigenvalues --   -0.88846  -0.88427  -0.87998  -0.87968  -0.87857
 Alpha  occ. eigenvalues --   -0.87477  -0.87431  -0.87403  -0.86883  -0.85207
 Alpha  occ. eigenvalues --   -0.84716  -0.84074  -0.83625  -0.83114  -0.82841
 Alpha  occ. eigenvalues --   -0.82717  -0.82371  -0.81740  -0.81272  -0.80756
 Alpha  occ. eigenvalues --   -0.80140  -0.78951  -0.78370  -0.77401  -0.77123
 Alpha  occ. eigenvalues --   -0.76878  -0.76608  -0.76096  -0.75520  -0.75036
 Alpha  occ. eigenvalues --   -0.74533  -0.72922  -0.72403  -0.71829  -0.71275
 Alpha  occ. eigenvalues --   -0.70051  -0.69535  -0.69078  -0.68548  -0.67795
 Alpha  occ. eigenvalues --   -0.67461  -0.67306  -0.66952  -0.65501  -0.65009
 Alpha  occ. eigenvalues --   -0.64960  -0.64790  -0.64475  -0.64414  -0.64351
 Alpha  occ. eigenvalues --   -0.63940  -0.62446  -0.61948  -0.60590  -0.60085
 Alpha  occ. eigenvalues --   -0.60009  -0.59487  -0.59140  -0.58689  -0.58655
 Alpha  occ. eigenvalues --   -0.58108  -0.57732  -0.57452  -0.57148  -0.56925
 Alpha  occ. eigenvalues --   -0.56460  -0.56154  -0.55917  -0.55673  -0.55566
 Alpha  occ. eigenvalues --   -0.55479  -0.55174  -0.54960  -0.54675  -0.54194
 Alpha  occ. eigenvalues --   -0.54135  -0.53631  -0.53448  -0.53408  -0.53088
 Alpha  occ. eigenvalues --   -0.52959  -0.52941  -0.52854  -0.52608  -0.52584
 Alpha  occ. eigenvalues --   -0.52436  -0.52179  -0.52027  -0.51836  -0.51558
 Alpha  occ. eigenvalues --   -0.51389  -0.51344  -0.50883  -0.50745  -0.50281
 Alpha  occ. eigenvalues --   -0.50193  -0.50084  -0.49731  -0.49695  -0.49617
 Alpha  occ. eigenvalues --   -0.49377  -0.49282  -0.49215  -0.48882  -0.48771
 Alpha  occ. eigenvalues --   -0.48750  -0.48593  -0.48575  -0.48248  -0.48123
 Alpha  occ. eigenvalues --   -0.48051  -0.47866  -0.47452  -0.47324  -0.46964
 Alpha  occ. eigenvalues --   -0.46873  -0.46778  -0.46507  -0.46437  -0.46302
 Alpha  occ. eigenvalues --   -0.46285  -0.46006  -0.45963  -0.45782  -0.45490
 Alpha  occ. eigenvalues --   -0.45338  -0.44937  -0.44726  -0.44688  -0.44296
 Alpha  occ. eigenvalues --   -0.44289  -0.44216  -0.44192  -0.44163  -0.43832
 Alpha  occ. eigenvalues --   -0.43824  -0.43641  -0.43632  -0.43568  -0.43248
 Alpha  occ. eigenvalues --   -0.43177  -0.43092  -0.42847  -0.42803  -0.42620
 Alpha  occ. eigenvalues --   -0.42550  -0.42310  -0.42181  -0.41857  -0.41748
 Alpha  occ. eigenvalues --   -0.41704  -0.41316  -0.41303  -0.41186  -0.41079
 Alpha  occ. eigenvalues --   -0.41001  -0.40731  -0.40710  -0.40507  -0.40465
 Alpha  occ. eigenvalues --   -0.40438  -0.40207  -0.39972  -0.39591  -0.39212
 Alpha  occ. eigenvalues --   -0.38632  -0.38104  -0.38024  -0.37475  -0.37472
 Alpha  occ. eigenvalues --   -0.37402  -0.37000  -0.36911  -0.36876  -0.36438
 Alpha  occ. eigenvalues --   -0.36360  -0.35926  -0.34439  -0.33955  -0.33949
 Alpha  occ. eigenvalues --   -0.33491  -0.33340  -0.32874  -0.31461  -0.31192
 Alpha  occ. eigenvalues --   -0.31027  -0.30659  -0.30128  -0.29591  -0.29510
 Alpha  occ. eigenvalues --   -0.29451  -0.29045  -0.28873  -0.24237  -0.23720
 Alpha  occ. eigenvalues --   -0.21282  -0.20822
 Alpha virt. eigenvalues --   -0.08922  -0.08486  -0.01901  -0.01396  -0.00206
 Alpha virt. eigenvalues --    0.00253   0.02070   0.02377   0.02645   0.03608
 Alpha virt. eigenvalues --    0.04495   0.04853   0.05018   0.05561   0.05832

 Mulliken charges:
               1
     1  Mg   0.837457
     2  C   -0.004241
     3  C   -0.095698
     4  C   -0.044910
     5  C   -0.063531
     6  N   -0.256642
     7  C   -0.053817
     8  C   -0.012279
     9  C   -0.087191
    10  C    0.046156
    11  C    0.104840
    12  C    0.045335
    13  C   -0.070910
    14  H    0.034307
    15  N   -0.433377
    16  C    0.168155
    17  C   -0.178255
    18  C   -0.003733
    19  C    0.149211
    20  C    0.110404
    21  C    0.013304
    22  O   -0.248329
    23  C    0.062632
    24  N   -0.340885
    25  C    0.041033
    26  C   -0.028445
    27  C   -0.024019
    28  C    0.074964
    29  C    0.075996
    30  C    0.035050
    31  C   -0.006044
    32  N   -0.310849
    33  C    0.080902
    34  C   -0.169108
    35  C    0.009164
    36  C    0.083377
    37  C    0.126997
    38  C    0.047025
    39  O   -0.186235
    40  C   -0.005948
    41  C    0.214129
    42  O   -0.258955
    43  O   -0.304685
    44  C    0.156205
    45  H   -0.018014
    46  H   -0.016202
    47  H   -0.041135
    48  H    0.001576
    49  H   -0.005179
    50  H    0.025934
    51  H    0.017043
    52  H    0.016694
    53  H    0.012422
    54  H    0.046434
    55  H    0.019587
    56  H    0.016618
    57  H    0.005235
    58  H    0.027424
    59  H    0.037360
    60  H    0.037148
    61  H    0.036772
    62  H    0.029624
    63  H    0.017139
    64  H    0.009849
    65  H    0.023676
    66  H    0.012629
    67  H    0.004936
    68  H    0.006545
    69  H    0.004730
    70  H    0.009900
    71  H    0.016758
    72  H    0.030562
    73  H    0.049038
    74  H    0.009040
    75  H    0.046362
    76  H    0.035533
    77  H    0.044469
    78  H    0.045004
    79  H    0.055880
    80  Mg   0.836623
    81  C   -0.015210
    82  C   -0.088088
    83  C   -0.045255
    84  C   -0.065927
    85  N   -0.254622
    86  C   -0.047601
    87  C   -0.015023
    88  C   -0.093080
    89  C    0.045183
    90  C    0.106242
    91  C    0.062857
    92  C   -0.076724
    93  H    0.033655
    94  N   -0.423406
    95  C    0.162649
    96  C   -0.175983
    97  C   -0.008053
    98  C    0.151613
    99  C    0.100257
   100  C    0.015262
   101  O   -0.253415
   102  C    0.061540
   103  N   -0.350284
   104  C    0.037132
   105  C   -0.019768
   106  C   -0.034553
   107  C    0.089570
   108  C    0.073298
   109  C    0.034867
   110  C   -0.007526
   111  N   -0.324757
   112  C    0.079533
   113  C   -0.162952
   114  C    0.004677
   115  C    0.095363
   116  C    0.130915
   117  C    0.045610
   118  O   -0.186095
   119  C   -0.002047
   120  C    0.209771
   121  O   -0.252711
   122  O   -0.303667
   123  C    0.152482
   124  H   -0.022214
   125  H   -0.015938
   126  H   -0.041363
   127  H    0.004154
   128  H   -0.007013
   129  H    0.038917
   130  H    0.013676
   131  H    0.012952
   132  H    0.013005
   133  H    0.037644
   134  H    0.019791
   135  H    0.018172
   136  H    0.006918
   137  H    0.023256
   138  H    0.038946
   139  H    0.037005
   140  H    0.035829
   141  H    0.033358
   142  H    0.013870
   143  H    0.010998
   144  H    0.024552
   145  H    0.013629
   146  H    0.004238
   147  H    0.005555
   148  H    0.003139
   149  H    0.010769
   150  H    0.017426
   151  H    0.030580
   152  H    0.045801
   153  H    0.007030
   154  H    0.049282
   155  H    0.049968
   156  H    0.043085
   157  H    0.047872
   158  H    0.052812
 Sum of Mulliken charges =  -0.00000

 Dipole moment (field-independent basis, Debye):
    X=             -4.6378    Y=             -2.7646    Z=             -6.5541  Tot=              8.4916
 Quadrupole moment (field-independent basis, Debye-Ang):
   XX=           -516.3425   YY=           -553.9946   ZZ=           -449.8052
   XY=             -3.6296   XZ=             16.4462   YZ=            -43.9427

 Normal termination of Gaussian 16 at Thu Sep  9 07:22:32 2021.
