 Gaussian 16, Revision A.03,
 Gaussian 16:  ES64L-G16RevA.03 25-Dec-2016

 -----------------------------------
 #p cam-b3lyp/Def2SVP td=(nstates=5)
 -----------------------------------

 --------------------------------
 TDDFT excited states in gaussian
 --------------------------------
 Symbolic Z-matrix:
 Charge =  0 Multiplicity = 1

                         Standard orientation:
 ---------------------------------------------------------------------
 Center     Atomic      Atomic             Coordinates (Angstroms)
 Number     Number       Type             X           Y           Z
 ---------------------------------------------------------------------
      1         12           0       15.871834   -0.638331    0.445864
      2          6           0       16.141721    1.944087   -2.017972
      3          6           0       16.681299    1.712385    2.782948
      4          6           0       16.085277   -2.982147    2.571327
      5          6           0       16.206262   -2.943089   -2.146800
      6          7           0       16.328788    1.521390    0.280209
      7          6           0       16.339695    2.403710   -0.714056
      8          6           0       16.506377    3.875822   -0.231896
      9          6           0       17.220790    3.603125    1.167122
     10          6           0       16.684991    2.209897    1.445974
     11          6           0       18.741531    3.534505    1.071514
     12          6           0       15.130419    4.598414   -0.041297
     13          6           0       15.207108    6.120477    0.109695
     14          1           0       14.146597    6.935384   -0.463532
     15          7           0       15.836783   -0.584413    2.420381
     16          6           0       16.183876    0.461564    3.208254
     17          6           0       15.985690    0.006084    4.601072
     18          6           0       15.676837   -1.450392    4.563916
     19          6           0       15.882398   -1.739874    3.167735
     20          6           0       16.046911    0.923695    5.783439
     21          6           0       15.272415   -2.428600    5.621122
     22          8           0       15.279228   -3.690889    5.418257
     23          6           0       14.948649   -1.868075    6.945520
     24          7           0       16.330735   -2.668018    0.280286
     25          6           0       16.296022   -3.472683    1.348131
     26          6           0       16.379404   -4.915724    0.947359
     27          6           0       16.233488   -4.942104   -0.642536
     28          6           0       16.169915   -3.416181   -0.899030
     29          6           0       17.664393   -5.650114    1.354159
     30          6           0       15.113472   -5.836260   -1.231152
     31          6           0       13.759554   -5.274297   -0.859397
     32          7           0       15.951932   -0.557179   -1.721633
     33          6           0       16.117534   -1.637574   -2.600267
     34          6           0       16.219312   -1.076792   -3.960132
     35          6           0       16.121834    0.300941   -3.775207
     36          6           0       15.995213    0.584476   -2.385291
     37          6           0       16.438228   -1.819691   -5.153702
     38          6           0       16.119933    1.600931   -4.426267
     39          8           0       16.102910    1.984530   -5.596760
     40          6           0       16.255190    2.723232   -3.304674
     41          6           0       15.215056    3.773447   -3.584814
     42          8           0       13.999167    3.515243   -3.473866
     43          8           0       15.811908    4.969151   -3.705659
     44          6           0       14.832567    6.060356   -3.955287
     45          1           0       17.154142    2.305525    3.568153
     46          1           0       16.054434   -3.828794    3.260294
     47          1           0       16.226934   -3.606361   -3.013458
     48          1           0       17.147344    4.491141   -0.863534
     49          1           0       16.886961    4.298597    1.936926
     50          1           0       19.076905    3.555927    0.034699
     51          1           0       19.020526    2.591715    1.542473
     52          1           0       19.203209    4.318037    1.672936
     53          1           0       14.718490    4.335836    0.933089
     54          1           0       14.448558    4.350800   -0.855594
     55          1           0       16.184584    6.501705   -0.187147
     56          1           0       15.132405    6.362718    1.169855
     57          1           0       16.454904    1.897145    5.514214
     58          1           0       16.778028    0.504405    6.474360
     59          1           0       15.081599    1.016448    6.281337
     60          1           0       15.814485   -1.327991    7.329168
     61          1           0       14.595297   -2.704318    7.547758
     62          1           0       14.153140   -1.131019    6.832108
     63          1           0       15.568097   -5.492056    1.390133
     64          1           0       17.141359   -5.297193   -1.130752
     65          1           0       17.487610   -6.538399    1.961122
     66          1           0       18.306787   -4.941389    1.876011
     67          1           0       18.302351   -5.949577    0.523047
     68          1           0       15.170147   -6.840232   -0.811898
     69          1           0       15.160841   -5.926891   -2.316413
     70          1           0       13.595084   -5.676361    0.139666
     71          1           0       12.996866   -5.629025   -1.553434
     72          1           0       13.789608   -4.187997   -0.772596
     73          1           0       15.760025   -1.405370   -5.899589
     74          1           0       16.254289   -2.882478   -4.997968
     75          1           0       17.489833   -1.600525   -5.337950
     76          1           0       17.267396    3.119635   -3.378338
     77          1           0       15.138158    6.562061   -4.873514
     78          1           0       14.792473    6.655477   -3.042802
     79          1           0       13.820776    5.749281   -4.217682
     80         12           0      -15.859016   -0.646267   -0.439765
     81          6           0      -16.213282    1.943636    2.019086
     82          6           0      -16.598019    1.701150   -2.801571
     83          6           0      -15.998053   -2.985775   -2.578639
     84          6           0      -16.279151   -2.956744    2.135277
     85          7           0      -16.325746    1.510381   -0.287141
     86          6           0      -16.370709    2.399453    0.693607
     87          6           0      -16.517119    3.870951    0.221589
     88          6           0      -17.192787    3.598329   -1.209499
     89          6           0      -16.647810    2.196291   -1.473996
     90          6           0      -18.709325    3.518606   -1.153630
     91          6           0      -15.131399    4.592186    0.074504
     92          6           0      -15.211060    6.112302   -0.082463
     93          1           0      -14.164044    6.930398    0.523294
     94          7           0      -15.757145   -0.583000   -2.420726
     95          6           0      -16.073495    0.458163   -3.218958
     96          6           0      -15.846294   -0.007027   -4.595959
     97          6           0      -15.527781   -1.460112   -4.553640
     98          6           0      -15.774451   -1.743393   -3.154004
     99          6           0      -15.862073    0.915988   -5.779698
    100          6           0      -15.087902   -2.436311   -5.602331
    101          8           0      -15.098926   -3.700668   -5.392313
    102          6           0      -14.732728   -1.874165   -6.913565
    103          7           0      -16.313158   -2.669463   -0.288883
    104          6           0      -16.248454   -3.474559   -1.363856
    105          6           0      -16.346106   -4.927443   -0.963893
    106          6           0      -16.246475   -4.941304    0.632179
    107          6           0      -16.195894   -3.420341    0.895794
    108          6           0      -17.618342   -5.653536   -1.400458
    109          6           0      -15.144476   -5.837478    1.260783
    110          6           0      -13.777414   -5.285052    0.927061
    111          7           0      -16.002921   -0.565255    1.714483
    112          6           0      -16.202953   -1.649051    2.597351
    113          6           0      -16.348426   -1.083910    3.954507
    114          6           0      -16.245099    0.302058    3.762421
    115          6           0      -16.069275    0.582201    2.380353
    116          6           0      -16.594376   -1.827276    5.143221
    117          6           0      -16.255420    1.592426    4.413225
    118          8           0      -16.283224    1.975651    5.582025
    119          6           0      -16.361901    2.720012    3.298058
    120          6           0      -15.331673    3.772909    3.602274
    121          8           0      -14.118454    3.506836    3.539661
    122          8           0      -15.940229    4.968663    3.703330
    123          6           0      -14.958062    6.047059    3.993564
    124          1           0      -17.040316    2.302333   -3.596453
    125          1           0      -15.945010   -3.837627   -3.260567
    126          1           0      -16.315044   -3.617127    3.004349
    127          1           0      -17.172332    4.480761    0.831997
    128          1           0      -16.827855    4.296762   -1.958079
    129          1           0      -19.076803    3.540911   -0.138445
    130          1           0      -18.972525    2.583693   -1.630817
    131          1           0      -19.151195    4.306564   -1.770227
    132          1           0      -14.690330    4.326075   -0.894710
    133          1           0      -14.485289    4.346987    0.894895
    134          1           0      -16.202514    6.502211    0.178191
    135          1           0      -15.096055    6.358364   -1.140880
    136          1           0      -16.286730    1.893960   -5.521572
    137          1           0      -16.568565    0.495597   -6.503577
    138          1           0      -14.882967    1.008893   -6.254452
    139          1           0      -15.585336   -1.333585   -7.317675
    140          1           0      -14.358945   -2.715326   -7.500600
    141          1           0      -13.931780   -1.139595   -6.773955
    142          1           0      -15.520660   -5.497352   -1.372482
    143          1           0      -17.173695   -5.309808    1.095123
    144          1           0      -17.419143   -6.553447   -2.012460
    145          1           0      -18.241003   -4.954769   -1.943191
    146          1           0      -18.273849   -5.965064   -0.588987
    147          1           0      -15.185368   -6.842970    0.834784
    148          1           0      -15.232981   -5.939925    2.337193
    149          1           0      -13.585971   -5.687214   -0.072295
    150          1           0      -13.036963   -5.636840    1.642601
    151          1           0      -13.804232   -4.192402    0.843105
    152          1           0      -15.947649   -1.416179    5.906925
    153          1           0      -16.409278   -2.888947    4.993677
    154          1           0      -17.656079   -1.612574    5.291368
    155          1           0      -17.376629    3.118539    3.330978
    156          1           0      -15.296829    6.551200    4.903919
    157          1           0      -14.901866    6.655980    3.071718
    158          1           0      -13.955613    5.748837    4.277510
 ---------------------------------------------------------------------

 SCF Done:  E(RCAM-B3LYP) =  -4069.81177155     A.U. after   19 cycles

 Excitation energies and oscillator strengths:

 Excited State   1:      Singlet-A      1.6754 eV  740.05 nm  f=0.2148  <S**2>=0.000
     310 -> 316        0.16873
     311 -> 313        0.66690
     312 -> 314        0.16097
     310 <- 316        0.10172
 This state for optimization and/or second-order correction.
 Total Energy, E(TD-HF/TD-DFT) =  -4069.75020331
 Copying the excited state density for this state as the 1-particle RhoCI density.

 Excited State   2:      Singlet-A      1.6802 eV  737.93 nm  f=0.5626  <S**2>=0.000
     309 -> 315        0.17073
     311 -> 313       -0.16092
     312 -> 314        0.66654
     309 <- 315        0.10222

 Excited State   3:      Singlet-A      2.1862 eV  567.13 nm  f=0.0956  <S**2>=0.000
     310 -> 313        0.64213
     311 -> 316       -0.27301

 Excited State   4:      Singlet-A      2.1926 eV  565.47 nm  f=0.1045  <S**2>=0.000
     309 -> 314        0.64036
     312 -> 315       -0.27819

 Excited State   5:      Singlet-A      3.0597 eV  405.21 nm  f=0.0000  <S**2>=0.000
     312 -> 313        0.70711

 The electronic state is 1-A.
 Alpha  occ. eigenvalues --  -46.87757 -46.87661 -19.26353 -19.26249 -19.19164
 Alpha  occ. eigenvalues --  -19.18983 -19.18772 -19.18711 -19.18133 -19.18054
 Alpha  occ. eigenvalues --  -14.42498 -14.42410 -14.41410 -14.41360 -14.39362
 Alpha  occ. eigenvalues --  -14.39352 -14.38601 -14.38547 -10.39094 -10.39043
 Alpha  occ. eigenvalues --  -10.35405 -10.35388 -10.34353 -10.34232 -10.31761
 Alpha  occ. eigenvalues --  -10.31645 -10.31366 -10.31311 -10.31024 -10.30869
 Alpha  occ. eigenvalues --  -10.30531 -10.30468 -10.30399 -10.30362 -10.30167
 Alpha  occ. eigenvalues --  -10.30141 -10.29896 -10.29882 -10.29591 -10.29437
 Alpha  occ. eigenvalues --  -10.29401 -10.29214 -10.28720 -10.28710 -10.28654
 Alpha  occ. eigenvalues --  -10.28499 -10.28406 -10.28325 -10.28142 -10.28078
 Alpha  occ. eigenvalues --  -10.28002 -10.27754 -10.27688 -10.27670 -10.27544
 Alpha  occ. eigenvalues --  -10.27519 -10.27485 -10.27466 -10.27462 -10.27462
 Alpha  occ. eigenvalues --  -10.27439 -10.27410 -10.27377 -10.27364 -10.27121
 Alpha  occ. eigenvalues --  -10.27054 -10.26692 -10.26665 -10.26407 -10.26364
 Alpha  occ. eigenvalues --  -10.26198 -10.26144 -10.26138 -10.26028 -10.25980
 Alpha  occ. eigenvalues --  -10.25936 -10.25856 -10.25808 -10.25400 -10.25398
 Alpha  occ. eigenvalues --  -10.24874 -10.24794 -10.24748 -10.24729 -10.24691
 Alpha  occ. eigenvalues --  -10.24644  -3.16500  -3.16411  -1.91381  -1.91293
 Alpha  occ. eigenvalues --   -1.90968  -1.90882  -1.90810  -1.90719  -1.16647
 Alpha  occ. eigenvalues --   -1.16597  -1.08662  -1.08591  -1.07173  -1.06963
 Alpha  occ. eigenvalues --   -1.06949  -1.06606  -1.04541  -1.04496  -1.03721
 Alpha  occ. eigenvalues --   -1.03664  -1.03194  -1.03040  -1.02372  -1.02113
 Alpha  occ. eigenvalues --   -0.91989  -0.91933  -0.89495  -0.89480  -0.89153
 Alpha  occ. eigenvalues --   -0.89149  -0.88247  -0.88221  -0.87832  -0.87796
 Alpha  occ. eigenvalues --   -0.87685  -0.87633  -0.87232  -0.87118  -0.85001
 Alpha  occ. eigenvalues --   -0.84943  -0.83897  -0.83877  -0.82929  -0.82925
 Alpha  occ. eigenvalues --   -0.82653  -0.82609  -0.81599  -0.81548  -0.80557
 Alpha  occ. eigenvalues --   -0.80444  -0.78757  -0.78635  -0.77179  -0.77145
 Alpha  occ. eigenvalues --   -0.76900  -0.76896  -0.75885  -0.75841  -0.74859
 Alpha  occ. eigenvalues --   -0.74804  -0.72735  -0.72701  -0.71634  -0.71583
 Alpha  occ. eigenvalues --   -0.69867  -0.69758  -0.68834  -0.68828  -0.67602
 Alpha  occ. eigenvalues --   -0.67602  -0.67199  -0.67179  -0.65273  -0.65248
 Alpha  occ. eigenvalues --   -0.64815  -0.64772  -0.64655  -0.64582  -0.64230
 Alpha  occ. eigenvalues --   -0.64205  -0.62281  -0.62260  -0.60401  -0.60339
 Alpha  occ. eigenvalues --   -0.59798  -0.59765  -0.58994  -0.58948  -0.58465
 Alpha  occ. eigenvalues --   -0.58427  -0.57557  -0.57547  -0.57269  -0.57237
 Alpha  occ. eigenvalues --   -0.56271  -0.56205  -0.55941  -0.55889  -0.55480
 Alpha  occ. eigenvalues --   -0.55452  -0.55301  -0.55250  -0.54490  -0.54485
 Alpha  occ. eigenvalues --   -0.53914  -0.53856  -0.53259  -0.53228  -0.53182
 Alpha  occ. eigenvalues --   -0.53142  -0.52903  -0.52876  -0.52715  -0.52665
 Alpha  occ. eigenvalues --   -0.52401  -0.52398  -0.51889  -0.51878  -0.51658
 Alpha  occ. eigenvalues --   -0.51577  -0.51203  -0.51157  -0.50529  -0.50472
 Alpha  occ. eigenvalues --   -0.49991  -0.49980  -0.49877  -0.49868  -0.49487
 Alpha  occ. eigenvalues --   -0.49475  -0.49203  -0.49176  -0.49107  -0.49058
 Alpha  occ. eigenvalues --   -0.48561  -0.48555  -0.48422  -0.48405  -0.48378
 Alpha  occ. eigenvalues --   -0.48337  -0.47655  -0.47595  -0.47257  -0.47119
 Alpha  occ. eigenvalues --   -0.46758  -0.46710  -0.46555  -0.46516  -0.46320
 Alpha  occ. eigenvalues --   -0.46271  -0.46124  -0.46088  -0.45825  -0.45785
 Alpha  occ. eigenvalues --   -0.45210  -0.45162  -0.44540  -0.44516  -0.44477
 Alpha  occ. eigenvalues --   -0.44466  -0.44129  -0.44105  -0.44078  -0.44049
 Alpha  occ. eigenvalues --   -0.43980  -0.43938  -0.43556  -0.43457  -0.43387
 Alpha  occ. eigenvalues --   -0.43346  -0.42988  -0.42933  -0.42904  -0.42661
 Alpha  occ. eigenvalues --   -0.42616  -0.42553  -0.41970  -0.41965  -0.41671
 Alpha  occ. eigenvalues --   -0.41665  -0.41494  -0.41459  -0.41102  -0.40991
 Alpha  occ. eigenvalues --   -0.40830  -0.40781  -0.40721  -0.40698  -0.40532
 Alpha  occ. eigenvalues --   -0.40494  -0.40226  -0.40194  -0.39425  -0.39400
 Alpha  occ. eigenvalues --   -0.38429  -0.38351  -0.37709  -0.37654  -0.37281
 Alpha  occ. eigenvalues --   -0.37267  -0.37224  -0.37200  -0.36774  -0.36676
 Alpha  occ. eigenvalues --   -0.36219  -0.36154  -0.34255  -0.34247  -0.33865
 Alpha  occ. eigenvalues --   -0.33733  -0.33177  -0.33147  -0.31302  -0.31270
 Alpha  occ. eigenvalues --   -0.30996  -0.30974  -0.29992  -0.29959  -0.29409
 Alpha  occ. eigenvalues --   -0.29327  -0.29283  -0.29213  -0.24041  -0.24037
 Alpha  occ. eigenvalues --   -0.21118  -0.21088
 Alpha virt. eigenvalues --   -0.08793  -0.08734  -0.01710  -0.01684  -0.00028
 Alpha virt. eigenvalues --   -0.00017   0.02205   0.02239   0.03166   0.03230
 Alpha virt. eigenvalues --    0.04729   0.04757   0.05135   0.05162   0.06182

 Mulliken charges:
               1
     1  Mg   0.838871
     2  C   -0.002965
     3  C   -0.094097
     4  C   -0.045873
     5  C   -0.063977
     6  N   -0.256802
     7  C   -0.052468
     8  C   -0.014007
     9  C   -0.087026
    10  C    0.046348
    11  C    0.104820
    12  C    0.053472
    13  C   -0.071816
    14  H    0.036142
    15  N   -0.433157
    16  C    0.168438
    17  C   -0.177122
    18  C   -0.003980
    19  C    0.148737
    20  C    0.110169
    21  C    0.012321
    22  O   -0.249604
    23  C    0.062457
    24  N   -0.341159
    25  C    0.041244
    26  C   -0.028160
    27  C   -0.023971
    28  C    0.074846
    29  C    0.076173
    30  C    0.035131
    31  C   -0.004504
    32  N   -0.310470
    33  C    0.080423
    34  C   -0.169732
    35  C    0.008324
    36  C    0.082977
    37  C    0.127314
    38  C    0.046095
    39  O   -0.188524
    40  C   -0.005343
    41  C    0.212858
    42  O   -0.257066
    43  O   -0.304810
    44  C    0.157702
    45  H   -0.017604
    46  H   -0.016822
    47  H   -0.041527
    48  H    0.000895
    49  H   -0.004009
    50  H    0.025438
    51  H    0.016438
    52  H    0.016639
    53  H    0.011265
    54  H    0.044134
    55  H    0.017818
    56  H    0.017984
    57  H    0.005872
    58  H    0.026819
    59  H    0.039652
    60  H    0.037320
    61  H    0.035707
    62  H    0.031587
    63  H    0.016592
    64  H    0.009412
    65  H    0.023218
    66  H    0.012527
    67  H    0.004712
    68  H    0.006352
    69  H    0.004691
    70  H    0.008820
    71  H    0.018164
    72  H    0.029004
    73  H    0.047535
    74  H    0.009098
    75  H    0.045949
    76  H    0.035103
    77  H    0.042878
    78  H    0.046417
    79  H    0.053694
    80  Mg   0.837966
    81  C   -0.016822
    82  C   -0.087769
    83  C   -0.045506
    84  C   -0.064893
    85  N   -0.254590
    86  C   -0.049841
    87  C   -0.015083
    88  C   -0.090513
    89  C    0.045775
    90  C    0.114376
    91  C    0.062519
    92  C   -0.077918
    93  H    0.034923
    94  N   -0.423508
    95  C    0.162937
    96  C   -0.174595
    97  C   -0.007769
    98  C    0.152142
    99  C    0.099355
   100  C    0.015621
   101  O   -0.253141
   102  C    0.061173
   103  N   -0.350086
   104  C    0.037515
   105  C   -0.019824
   106  C   -0.034804
   107  C    0.088907
   108  C    0.073643
   109  C    0.034728
   110  C   -0.007680
   111  N   -0.324105
   112  C    0.078449
   113  C   -0.163154
   114  C    0.002214
   115  C    0.096172
   116  C    0.131495
   117  C    0.042365
   118  O   -0.187934
   119  C    0.000906
   120  C    0.211251
   121  O   -0.250988
   122  O   -0.305645
   123  C    0.152032
   124  H   -0.019637
   125  H   -0.015531
   126  H   -0.040477
   127  H   -0.000682
   128  H   -0.004286
   129  H    0.022429
   130  H    0.014419
   131  H    0.016291
   132  H    0.013972
   133  H    0.037684
   134  H    0.020752
   135  H    0.019636
   136  H    0.008771
   137  H    0.026168
   138  H    0.039909
   139  H    0.038247
   140  H    0.036483
   141  H    0.033977
   142  H    0.014454
   143  H    0.012384
   144  H    0.025176
   145  H    0.011624
   146  H    0.005648
   147  H    0.006276
   148  H    0.003624
   149  H    0.010982
   150  H    0.017962
   151  H    0.030108
   152  H    0.045986
   153  H    0.008509
   154  H    0.046889
   155  H    0.034987
   156  H    0.043866
   157  H    0.049514
   158  H    0.053590
 Sum of Mulliken charges =  -0.00000

 Dipole moment (field-independent basis, Debye):
    X=              0.1764    Y=              3.1485    Z=              0.1184  Tot=              3.1557
 Quadrupole moment (field-independent basis, Debye-Ang):
   XX=           -401.1586   YY=           -460.0861   ZZ=           -539.1194
   XY=              0.3837   XZ=            120.1270   YZ=             -0.1821

 Normal termination of Gaussian 16 at Sun Sep 12 12:32:59 2021.
