 Gaussian 16, Revision A.03,
 Gaussian 16:  ES64L-G16RevA.03 25-Dec-2016

 -----------------------------------
 #p cam-b3lyp/Def2SVP td=(nstates=5)
 -----------------------------------

 --------------------------------
 TDDFT excited states in gaussian
 --------------------------------
 Symbolic Z-matrix:
 Charge =  0 Multiplicity = 1

                         Standard orientation:
 ---------------------------------------------------------------------
 Center     Atomic      Atomic             Coordinates (Angstroms)
 Number     Number       Type             X           Y           Z
 ---------------------------------------------------------------------
      1         12           0        6.757812   -0.407585   -0.095875
      2          6           0        6.755745    2.933021   -1.381395
      3          6           0        7.658395    0.912103    2.919161
      4          6           0        7.208315   -3.369578    0.943484
      5          6           0        6.976725   -1.518282   -3.391947
      6          7           0        7.127457    1.673966    0.560748
      7          6           0        7.034381    2.868874   -0.014321
      8          6           0        7.186286    4.050971    0.989146
      9          6           0        8.011613    3.306407    2.132150
     10          6           0        7.545734    1.883226    1.880287
     11          6           0        9.522486    3.371115    1.933207
     12          6           0        5.804529    4.561327    1.520198
     13          6           0        5.840418    5.910967    2.243066
     14          1           0        4.713113    6.818057    2.089052
     15          7           0        6.867871   -1.116646    1.744769
     16          6           0        7.236810   -0.433639    2.855027
     17          6           0        7.158351   -1.399100    3.972350
     18          6           0        6.897311   -2.745853    3.392515
     19          6           0        7.008209   -2.465297    1.983839
     20          6           0        7.276075   -1.002749    5.412071
     21          6           0        6.606130   -4.076890    4.010322
     22          8           0        6.640772   -5.162202    3.335435
     23          6           0        6.362865   -4.087214    5.464199
     24          7           0        7.271903   -2.187355   -1.058041
     25          6           0        7.344083   -3.340314   -0.383904
     26          6           0        7.446468   -4.511789   -1.315086
     27          6           0        7.183713   -3.935603   -2.780938
     28          6           0        7.049376   -2.434675   -2.423952
     29          6           0        8.782383   -5.267410   -1.295644
     30          6           0        6.054092   -4.601445   -3.606184
     31          6           0        4.713237   -4.307239   -2.971639
     32          7           0        6.673707    0.502629   -2.064499
     33          6           0        6.810167   -0.146534   -3.300072
     34          6           0        6.791410    0.897567   -4.341018
     35          6           0        6.661146    2.090715   -3.633010
     36          6           0        6.628660    1.811819   -2.236782
     37          6           0        6.946107    0.683364   -5.739095
     38          6           0        6.566620    3.538304   -3.730007
     39          8           0        6.449568    4.339393   -4.658473
     40          6           0        6.746652    4.151055   -2.271257
     41          6           0        5.653447    5.163940   -2.065647
     42          8           0        4.458663    4.810423   -1.995782
     43          8           0        6.198643    6.348178   -1.748022
     44          6           0        5.166902    7.390803   -1.501856
     45          1           0        8.167867    1.186300    3.845009
     46          1           0        7.257606   -4.415809    1.252365
     47          1           0        6.955443   -1.796272   -4.447277
     48          1           0        7.757208    4.898655    0.609798
     49          1           0        7.712489    3.632387    3.128134
     50          1           0        9.778910    3.808316    0.968312
     51          1           0        9.867636    2.338416    1.987030
     52          1           0       10.000688    3.890555    2.764039
     53          1           0        5.475367    3.921178    2.338685
     54          1           0        5.072823    4.604201    0.712674
     55          1           0        6.779579    6.434797    2.062823
     56          1           0        5.836559    5.723494    3.316862
     57          1           0        7.629572    0.022156    5.517692
     58          1           0        8.070384   -1.610077    5.845587
     59          1           0        6.347865   -1.166023    5.959885
     60          1           0        7.235959   -3.684439    5.978036
     61          1           0        6.083924   -5.109986    5.715152
     62          1           0        5.536516   -3.412171    5.688730
     63          1           0        6.690406   -5.261391   -1.085100
     64          1           0        8.064318   -4.021286   -3.418015
     65          1           0        8.681540   -6.329358   -1.070249
     66          1           0        9.437325   -4.775577   -0.577004
     67          1           0        9.366589   -5.186629   -2.211938
     68          1           0        6.175903   -5.684072   -3.611265
     69          1           0        6.023685   -4.266254   -4.642994
     70          1           0        4.637285   -5.070551   -2.198063
     71          1           0        3.913561   -4.414031   -3.705344
     72          1           0        4.712695   -3.337447   -2.473655
     73          1           0        6.200619    1.310353   -6.228073
     74          1           0        6.810515   -0.366939   -5.996159
     75          1           0        7.973036    1.019124   -5.882410
     76          1           0        7.736507    4.605432   -2.242092
     77          1           0        5.386125    8.223451   -2.170341
     78          1           0        5.174553    7.587249   -0.429590
     79          1           0        4.149569    7.143878   -1.807472
     80         12           0       -6.450423   -1.063302    0.307301
     81          6           0       -8.508279    1.846464   -0.114097
     82          6           0       -4.112703    0.978383    1.721915
     83          6           0       -4.438186   -3.516416    0.283927
     84          6           0       -8.407028   -2.627303   -2.115780
     85          7           0       -6.429489    1.113544    0.698621
     86          6           0       -7.292517    2.107499    0.551648
     87          6           0       -6.860727    3.438778    1.223068
     88          6           0       -5.273678    3.194356    1.243040
     89          6           0       -5.261743    1.667161    1.257839
     90          6           0       -4.576273    3.665210   -0.022373
     91          6           0       -7.436854    3.590493    2.674646
     92          6           0       -7.313885    4.994026    3.271908
     93          1           0       -8.383056    5.476440    4.141746
     94          7           0       -4.777221   -1.361653    1.331964
     95          6           0       -3.963098   -0.419759    1.852838
     96          6           0       -2.858990   -1.151560    2.492828
     97          6           0       -3.001506   -2.596197    2.165044
     98          6           0       -4.089797   -2.543591    1.209569
     99          6           0       -1.852330   -0.487053    3.386397
    100          6           0       -2.269842   -3.820816    2.624581
    101          8           0       -2.403459   -4.948069    2.029353
    102          6           0       -1.321419   -3.640428    3.733379
    103          7           0       -6.289005   -2.743013   -0.907144
    104          6           0       -5.356509   -3.681795   -0.668248
    105          6           0       -5.606548   -4.921447   -1.493548
    106          6           0       -7.045006   -4.710997   -2.159968
    107          6           0       -7.352206   -3.284562   -1.653694
    108          6           0       -4.577539   -5.212180   -2.585800
    109          6           0       -8.101499   -5.824038   -1.919908
    110          6           0       -8.500063   -5.851510   -0.461902
    111          7           0       -8.258965   -0.589111   -0.775475
    112          6           0       -8.892236   -1.374322   -1.763653
    113          6           0      -10.022580   -0.582465   -2.290631
    114          6           0       -9.954051    0.627168   -1.583125
    115          6           0       -8.846234    0.599524   -0.693466
    116          6           0      -10.911541   -0.988246   -3.325621
    117          6           0      -10.560620    1.925279   -1.394209
    118          8           0      -11.578275    2.477457   -1.810384
    119          6           0       -9.576325    2.821428   -0.525614
    120          6           0      -10.382792    3.477322    0.561556
    121          8           0      -10.913653    2.793769    1.454623
    122          8           0      -10.214051    4.810391    0.492131
    123          6           0      -10.985669    5.504469    1.557341
    124          1           0       -3.224477    1.559821    1.970683
    125          1           0       -3.840671   -4.430532    0.313103
    126          1           0       -9.123434   -3.082501   -2.802976
    127          1           0       -7.092413    4.330815    0.653541
    128          1           0       -4.824813    3.587989    2.151303
    129          1           0       -5.281118    3.979823   -0.777589
    130          1           0       -3.999203    2.819315   -0.372356
    131          1           0       -3.850032    4.447481    0.216266
    132          1           0       -6.799646    3.032685    3.372895
    133          1           0       -8.459546    3.269305    2.714155
    134          1           0       -7.068491    5.745484    2.511611
    135          1           0       -6.456964    5.008844    3.949763
    136          1           0       -1.902958    0.605855    3.306449
    137          1           0       -0.860986   -0.742283    2.996567
    138          1           0       -1.921947   -0.823889    4.422917
    139          1           0       -0.570341   -2.906753    3.450413
    140          1           0       -0.964132   -4.642548    3.978290
    141          1           0       -1.861088   -3.223604    4.591064
    142          1           0       -5.635469   -5.804134   -0.866548
    143          1           0       -6.980962   -4.648362   -3.256234
    144          1           0       -4.110904   -6.210868   -2.491169
    145          1           0       -3.823923   -4.436341   -2.560002
    146          1           0       -4.952197   -5.136529   -3.605174
    147          1           0       -7.675525   -6.805159   -2.143750
    148          1           0       -8.992070   -5.712949   -2.529446
    149          1           0       -7.709545   -6.451474   -0.001240
    150          1           0       -9.473980   -6.321211   -0.339785
    151          1           0       -8.451735   -4.848734   -0.021731
    152          1           0      -11.907951   -0.714037   -3.005493
    153          1           0      -10.835152   -2.056146   -3.519346
    154          1           0      -10.527654   -0.391664   -4.157478
    155          1           0       -9.121484    3.552167   -1.195473
    156          1           0      -11.630006    6.236009    1.059991
    157          1           0      -10.231461    5.896541    2.265304
    158          1           0      -11.713941    4.921806    2.109211
 ---------------------------------------------------------------------

 SCF Done:  E(RCAM-B3LYP) =  -4069.81173325     A.U. after   19 cycles

 Excitation energies and oscillator strengths:

 Excited State   1:      Singlet-A      1.6671 eV  743.71 nm  f=0.1800  <S**2>=0.000
     309 -> 315       -0.10815
     310 -> 316       -0.13351
     311 -> 313       -0.43066
     312 -> 314        0.53467
 This state for optimization and/or second-order correction.
 Total Energy, E(TD-HF/TD-DFT) =  -4069.75046871
 Copying the excited state density for this state as the 1-particle RhoCI density.

 Excited State   2:      Singlet-A      1.6865 eV  735.18 nm  f=0.5881  <S**2>=0.000
     309 -> 315        0.13848
     310 -> 316       -0.11048
     311 -> 313        0.53363
     312 -> 314        0.42991

 Excited State   3:      Singlet-A      2.1846 eV  567.53 nm  f=0.0386  <S**2>=0.000
     309 -> 313        0.20741
     310 -> 314        0.60888
     312 -> 316        0.25737

 Excited State   4:      Singlet-A      2.1937 eV  565.17 nm  f=0.1497  <S**2>=0.000
     309 -> 313        0.60633
     310 -> 314       -0.20562
     311 -> 315       -0.26450

 Excited State   5:      Singlet-A      2.6094 eV  475.14 nm  f=0.0000  <S**2>=0.000
     312 -> 313        0.70695

 The electronic state is 1-A.
 Alpha  occ. eigenvalues --  -46.87950 -46.87552 -19.26482 -19.26270 -19.19223
 Alpha  occ. eigenvalues --  -19.19079 -19.18943 -19.18615 -19.18322 -19.17953
 Alpha  occ. eigenvalues --  -14.42607 -14.42384 -14.41588 -14.41252 -14.39556
 Alpha  occ. eigenvalues --  -14.39243 -14.38738 -14.38493 -10.39277 -10.39007
 Alpha  occ. eigenvalues --  -10.35577 -10.35294 -10.34544 -10.34130 -10.31886
 Alpha  occ. eigenvalues --  -10.31688 -10.31563 -10.31192 -10.31075 -10.30911
 Alpha  occ. eigenvalues --  -10.30723 -10.30649 -10.30337 -10.30294 -10.30254
 Alpha  occ. eigenvalues --  -10.30047 -10.30035 -10.29791 -10.29776 -10.29401
 Alpha  occ. eigenvalues --  -10.29328 -10.29301 -10.28941 -10.28786 -10.28604
 Alpha  occ. eigenvalues --  -10.28584 -10.28521 -10.28297 -10.28292 -10.28004
 Alpha  occ. eigenvalues --  -10.27941 -10.27895 -10.27881 -10.27733 -10.27650
 Alpha  occ. eigenvalues --  -10.27586 -10.27559 -10.27549 -10.27532 -10.27424
 Alpha  occ. eigenvalues --  -10.27383 -10.27376 -10.27365 -10.27324 -10.27281
 Alpha  occ. eigenvalues --  -10.26950 -10.26946 -10.26605 -10.26551 -10.26389
 Alpha  occ. eigenvalues --  -10.26334 -10.26233 -10.26153 -10.26059 -10.25965
 Alpha  occ. eigenvalues --  -10.25830 -10.25827 -10.25757 -10.25507 -10.25300
 Alpha  occ. eigenvalues --  -10.24982 -10.24923 -10.24768 -10.24711 -10.24657
 Alpha  occ. eigenvalues --  -10.24583  -3.16694  -3.16302  -1.91575  -1.91184
 Alpha  occ. eigenvalues --   -1.91162  -1.91004  -1.90772  -1.90609  -1.16831
 Alpha  occ. eigenvalues --   -1.16563  -1.08782  -1.08562  -1.07342  -1.06866
 Alpha  occ. eigenvalues --   -1.06863  -1.06843  -1.04739  -1.04382  -1.03903
 Alpha  occ. eigenvalues --   -1.03555  -1.03381  -1.02933  -1.02557  -1.02004
 Alpha  occ. eigenvalues --   -0.92128  -0.91881  -0.89632  -0.89396  -0.89368
 Alpha  occ. eigenvalues --   -0.89028  -0.88393  -0.88123  -0.88012  -0.87830
 Alpha  occ. eigenvalues --   -0.87692  -0.87576  -0.87425  -0.87024  -0.85157
 Alpha  occ. eigenvalues --   -0.84889  -0.84034  -0.83784  -0.83098  -0.82841
 Alpha  occ. eigenvalues --   -0.82811  -0.82546  -0.81753  -0.81503  -0.80754
 Alpha  occ. eigenvalues --   -0.80344  -0.78946  -0.78536  -0.77364  -0.77093
 Alpha  occ. eigenvalues --   -0.77041  -0.76798  -0.76086  -0.75726  -0.75012
 Alpha  occ. eigenvalues --   -0.74704  -0.72915  -0.72594  -0.71815  -0.71468
 Alpha  occ. eigenvalues --   -0.69989  -0.69667  -0.69039  -0.68720  -0.67790
 Alpha  occ. eigenvalues --   -0.67501  -0.67406  -0.67106  -0.65461  -0.65164
 Alpha  occ. eigenvalues --   -0.65005  -0.64772  -0.64667  -0.64552  -0.64384
 Alpha  occ. eigenvalues --   -0.64106  -0.62464  -0.62187  -0.60581  -0.60243
 Alpha  occ. eigenvalues --   -0.59974  -0.59680  -0.59131  -0.58888  -0.58649
 Alpha  occ. eigenvalues --   -0.58324  -0.57750  -0.57458  -0.57441  -0.57140
 Alpha  occ. eigenvalues --   -0.56459  -0.56161  -0.56104  -0.55796  -0.55669
 Alpha  occ. eigenvalues --   -0.55463  -0.55356  -0.55154  -0.54660  -0.54398
 Alpha  occ. eigenvalues --   -0.54077  -0.53795  -0.53441  -0.53388  -0.53129
 Alpha  occ. eigenvalues --   -0.53075  -0.53041  -0.52916  -0.52804  -0.52568
 Alpha  occ. eigenvalues --   -0.52515  -0.52316  -0.52050  -0.51795  -0.51788
 Alpha  occ. eigenvalues --   -0.51557  -0.51340  -0.51102  -0.50722  -0.50386
 Alpha  occ. eigenvalues --   -0.50144  -0.50059  -0.49871  -0.49769  -0.49675
 Alpha  occ. eigenvalues --   -0.49382  -0.49371  -0.49259  -0.49096  -0.48989
 Alpha  occ. eigenvalues --   -0.48752  -0.48592  -0.48575  -0.48452  -0.48280
 Alpha  occ. eigenvalues --   -0.48240  -0.47844  -0.47493  -0.47440  -0.47019
 Alpha  occ. eigenvalues --   -0.46936  -0.46733  -0.46607  -0.46500  -0.46444
 Alpha  occ. eigenvalues --   -0.46298  -0.46171  -0.45989  -0.45977  -0.45725
 Alpha  occ. eigenvalues --   -0.45310  -0.45109  -0.44732  -0.44653  -0.44415
 Alpha  occ. eigenvalues --   -0.44368  -0.44279  -0.44243  -0.44172  -0.44014
 Alpha  occ. eigenvalues --   -0.43986  -0.43842  -0.43654  -0.43536  -0.43462
 Alpha  occ. eigenvalues --   -0.43280  -0.43171  -0.42873  -0.42841  -0.42801
 Alpha  occ. eigenvalues --   -0.42758  -0.42458  -0.42134  -0.41870  -0.41851
 Alpha  occ. eigenvalues --   -0.41702  -0.41566  -0.41357  -0.41288  -0.41026
 Alpha  occ. eigenvalues --   -0.40970  -0.40872  -0.40681  -0.40624  -0.40595
 Alpha  occ. eigenvalues --   -0.40441  -0.40393  -0.40132  -0.39515  -0.39337
 Alpha  occ. eigenvalues --   -0.38586  -0.38252  -0.37945  -0.37559  -0.37443
 Alpha  occ. eigenvalues --   -0.37440  -0.37165  -0.37092  -0.36884  -0.36686
 Alpha  occ. eigenvalues --   -0.36341  -0.36119  -0.34435  -0.34147  -0.33964
 Alpha  occ. eigenvalues --   -0.33775  -0.33336  -0.33068  -0.31472  -0.31183
 Alpha  occ. eigenvalues --   -0.31173  -0.30865  -0.30183  -0.29858  -0.29599
 Alpha  occ. eigenvalues --   -0.29471  -0.29224  -0.29107  -0.24230  -0.23927
 Alpha  occ. eigenvalues --   -0.21274  -0.21009
 Alpha virt. eigenvalues --   -0.08923  -0.08686  -0.01893  -0.01576  -0.00208
 Alpha virt. eigenvalues --    0.00077   0.02056   0.02308   0.02925   0.03318
 Alpha virt. eigenvalues --    0.04549   0.04841   0.04906   0.05251   0.05969

 Mulliken charges:
               1
     1  Mg   0.837776
     2  C   -0.003457
     3  C   -0.094840
     4  C   -0.045394
     5  C   -0.063557
     6  N   -0.256806
     7  C   -0.052785
     8  C   -0.013864
     9  C   -0.086845
    10  C    0.045965
    11  C    0.104743
    12  C    0.053670
    13  C   -0.071502
    14  H    0.034983
    15  N   -0.433168
    16  C    0.167967
    17  C   -0.177749
    18  C   -0.004171
    19  C    0.148464
    20  C    0.110250
    21  C    0.012124
    22  O   -0.248572
    23  C    0.062749
    24  N   -0.341165
    25  C    0.041236
    26  C   -0.028332
    27  C   -0.024101
    28  C    0.075000
    29  C    0.076030
    30  C    0.034948
    31  C   -0.004528
    32  N   -0.310508
    33  C    0.080451
    34  C   -0.169450
    35  C    0.008403
    36  C    0.082884
    37  C    0.127282
    38  C    0.046091
    39  O   -0.188235
    40  C   -0.005313
    41  C    0.213016
    42  O   -0.257966
    43  O   -0.304509
    44  C    0.157752
    45  H   -0.017553
    46  H   -0.016146
    47  H   -0.040993
    48  H    0.001194
    49  H   -0.004418
    50  H    0.025666
    51  H    0.016765
    52  H    0.016812
    53  H    0.010122
    54  H    0.043363
    55  H    0.018624
    56  H    0.017780
    57  H    0.005742
    58  H    0.027324
    59  H    0.038493
    60  H    0.037534
    61  H    0.036432
    62  H    0.030083
    63  H    0.017402
    64  H    0.009636
    65  H    0.023758
    66  H    0.012417
    67  H    0.004929
    68  H    0.006931
    69  H    0.004683
    70  H    0.009937
    71  H    0.018785
    72  H    0.028187
    73  H    0.047676
    74  H    0.009492
    75  H    0.046265
    76  H    0.035418
    77  H    0.043441
    78  H    0.046167
    79  H    0.053087
    80  Mg   0.838074
    81  C   -0.016854
    82  C   -0.087597
    83  C   -0.045382
    84  C   -0.064847
    85  N   -0.254638
    86  C   -0.049633
    87  C   -0.015138
    88  C   -0.090486
    89  C    0.045694
    90  C    0.114144
    91  C    0.062607
    92  C   -0.077612
    93  H    0.034277
    94  N   -0.423604
    95  C    0.162884
    96  C   -0.174086
    97  C   -0.007835
    98  C    0.152275
    99  C    0.099261
   100  C    0.015738
   101  O   -0.252915
   102  C    0.061193
   103  N   -0.349996
   104  C    0.037664
   105  C   -0.019894
   106  C   -0.034767
   107  C    0.088905
   108  C    0.073593
   109  C    0.034786
   110  C   -0.007628
   111  N   -0.324095
   112  C    0.078433
   113  C   -0.163229
   114  C    0.002251
   115  C    0.096142
   116  C    0.131494
   117  C    0.042311
   118  O   -0.188138
   119  C    0.000924
   120  C    0.211191
   121  O   -0.251236
   122  O   -0.305499
   123  C    0.152139
   124  H   -0.018696
   125  H   -0.015570
   126  H   -0.040658
   127  H   -0.000562
   128  H   -0.004806
   129  H    0.022479
   130  H    0.015862
   131  H    0.017141
   132  H    0.013604
   133  H    0.037470
   134  H    0.020978
   135  H    0.019252
   136  H    0.008892
   137  H    0.026559
   138  H    0.038636
   139  H    0.038222
   140  H    0.036752
   141  H    0.033041
   142  H    0.014220
   143  H    0.012417
   144  H    0.024843
   145  H    0.012155
   146  H    0.005601
   147  H    0.006065
   148  H    0.003523
   149  H    0.010851
   150  H    0.017686
   151  H    0.030158
   152  H    0.045755
   153  H    0.008330
   154  H    0.047059
   155  H    0.035304
   156  H    0.043793
   157  H    0.049399
   158  H    0.053372
 Sum of Mulliken charges =  -0.00000

 Dipole moment (field-independent basis, Debye):
    X=              6.3902    Y=              1.4082    Z=              4.9075  Tot=              8.1793
 Quadrupole moment (field-independent basis, Debye-Ang):
   XX=           -556.2458   YY=           -500.6990   ZZ=           -489.3526
   XY=             17.1712   XZ=             24.3540   YZ=             57.4604

 Normal termination of Gaussian 16 at Sat Sep 11 16:22:11 2021.
