 Gaussian 16, Revision A.03,
 Gaussian 16:  ES64L-G16RevA.03 25-Dec-2016

 -----------------------------------
 #p cam-b3lyp/Def2SVP td=(nstates=5)
 -----------------------------------

 --------------------------------
 TDDFT excited states in gaussian
 --------------------------------
 Symbolic Z-matrix:
 Charge =  0 Multiplicity = 1

                         Standard orientation:
 ---------------------------------------------------------------------
 Center     Atomic      Atomic             Coordinates (Angstroms)
 Number     Number       Type             X           Y           Z
 ---------------------------------------------------------------------
      1         12           0        7.830866    0.610275    0.546578
      2          6           0        8.271994   -2.185630   -1.644434
      3          6           0        8.548771    2.620081   -2.115819
      4          6           0        7.894135    3.063911    2.554634
      5          6           0        8.269519   -1.595237    3.209088
      6          7           0        8.328660    0.156448   -1.562187
      7          6           0        8.406408   -0.953910   -2.288982
      8          6           0        8.569118   -0.683517   -3.814691
      9          6           0        9.202976    0.777780   -3.745171
     10          6           0        8.631951    1.227049   -2.411750
     11          6           0       10.725448    0.777726   -3.652531
     12          6           0        7.195970   -0.677159   -4.567124
     13          6           0        7.287411   -0.746154   -6.094289
     14          1           0        6.271732   -1.490227   -6.823740
     15          7           0        7.690388    2.550707    0.203299
     16          6           0        8.010329    3.195326   -0.944477
     17          6           0        7.730588    4.626586   -0.699688
     18          6           0        7.402210    4.785559    0.744261
     19          6           0        7.678237    3.460231    1.236899
     20          6           0        7.741926    5.663749   -1.780389
     21          6           0        6.926724    5.950266    1.553891
     22          8           0        6.925374    5.934703    2.832300
     23          6           0        6.540636    7.158534    0.802847
     24          7           0        8.267293    0.768740    2.581782
     25          6           0        8.162988    1.939107    3.220801
     26          6           0        8.246009    1.758726    4.707579
     27          6           0        8.185514    0.184127    4.965909
     28          6           0        8.158907   -0.295692    3.493722
     29          6           0        9.495990    2.339103    5.383390
     30          6           0        7.085427   -0.328737    5.928821
     31          6           0        5.722106   -0.118757    5.308852
     32          7           0        8.028753   -1.538003    0.784883
     33          6           0        8.225070   -2.238800    1.983639
     34          6           0        8.408371   -3.658245    1.629175
     35          6           0        8.321909   -3.682298    0.238567
     36          6           0        8.124945   -2.357911   -0.246712
     37          6           0        8.679974   -4.716462    2.540681
     38          6           0        8.374705   -4.515403   -0.951813
     39          8           0        8.426518   -5.728505   -1.159639
     40          6           0        8.466329   -3.564067   -2.225545
     41          6           0        7.458773   -4.051905   -3.230609
     42          8           0        6.234911   -3.972037   -3.000067
     43          8           0        8.079265   -4.312861   -4.391399
     44          6           0        7.131384   -4.773178   -5.441058
     45          1           0        8.987565    3.335201   -2.814391
     46          1           0        7.813456    3.866404    3.290795
     47          1           0        8.326792   -2.353189    3.992466
     48          1           0        9.252384   -1.361745   -4.326139
     49          1           0        8.838737    1.417994   -4.548400
     50          1           0       11.116438   -0.230877   -3.519234
     51          1           0       10.964406    1.396122   -2.787096
     52          1           0       11.165866    1.282884   -4.512545
     53          1           0        6.728262    0.300771   -4.453262
     54          1           0        6.555272   -1.483093   -4.207537
     55          1           0        8.285098   -1.040832   -6.420929
     56          1           0        7.159411    0.261441   -6.489975
     57          1           0        8.178485    5.278233   -2.700899
     58          1           0        8.428369    6.447995   -1.461856
     59          1           0        6.752722    6.088433   -1.952001
     60          1           0        7.392625    7.506583    0.218446
     61          1           0        6.142780    7.855955    1.539166
     62          1           0        5.763615    6.894700    0.084810
     63          1           0        7.403425    2.235264    5.206970
     64          1           0        9.112882   -0.195851    5.395187
     65          1           0        9.273385    3.058588    6.171739
     66          1           0       10.119995    2.786624    4.610323
     67          1           0       10.173168    1.597343    5.806047
     68          1           0        7.104272    0.235198    6.860791
     69          1           0        7.189777   -1.384794    6.178031
     70          1           0        5.498033    0.917652    5.558812
     71          1           0        4.992614   -0.794741    5.756175
     72          1           0        5.763855   -0.190073    4.221811
     73          1           0        8.049247   -5.551338    2.235501
     74          1           0        8.471879   -4.417562    3.567792
     75          1           0        9.743165   -4.872138    2.358348
     76          1           0        9.486907   -3.638600   -2.599694
     77          1           0        7.493511   -5.736475   -5.800442
     78          1           0        7.051223   -3.961082   -6.163884
     79          1           0        6.130602   -5.043020   -5.102001
     80         12           0       -7.997635   -0.698236    0.509724
     81          6           0       -7.985636    1.726745   -2.135714
     82          6           0       -7.335978    1.865095    2.660579
     83          6           0       -7.555807   -2.858411    2.791368
     84          6           0       -7.519637   -3.148578   -1.921957
     85          7           0       -7.719789    1.471855    0.184502
     86          6           0       -7.798944    2.288346   -0.855404
     87          6           0       -7.751112    3.797123   -0.493637
     88          6           0       -6.982829    3.683131    0.911935
     89          6           0       -7.395416    2.265205    1.301727
     90          6           0       -5.469764    3.719823    0.775450
     91          6           0       -9.182524    4.415186   -0.317369
     92          6           0       -9.221275    5.944215   -0.268921
     93          1           0      -10.362149    6.630887   -0.868383
     94          7           0       -8.002910   -0.499991    2.484378
     95          6           0       -7.733565    0.617990    3.190670
     96          6           0       -7.850656    0.237200    4.606809
     97          6           0       -8.049315   -1.235778    4.681592
     98          6           0       -7.851938   -1.599236    3.292692
     99          6           0       -7.850935    1.241828    5.722222
    100          6           0       -8.352478   -2.165230    5.817548
    101          8           0       -8.247398   -3.436627    5.693710
    102          6           0       -8.685498   -1.539497    7.105599
    103          7           0       -7.385584   -2.684761    0.471193
    104          6           0       -7.328220   -3.412505    1.600362
    105          6           0       -7.131001   -4.878247    1.295220
    106          6           0       -7.310671   -5.015460   -0.287967
    107          6           0       -7.500635   -3.526347   -0.651093
    108          6           0       -5.782258   -5.467877    1.707083
    109          6           0       -8.365277   -6.039163   -0.790469
    110          6           0       -9.754558   -5.573922   -0.417881
    111          7           0       -7.971348   -0.762271   -1.649728
    112          6           0       -7.727556   -1.887906   -2.466806
    113          6           0       -7.699089   -1.412755   -3.865322
    114          6           0       -7.907037   -0.029048   -3.762357
    115          6           0       -8.034543    0.335615   -2.394785
    116          6           0       -7.453486   -2.218431   -5.012796
    117          6           0       -8.037077    1.207569   -4.498936
    118          8           0       -8.100988    1.506174   -5.690782
    119          6           0       -7.967556    2.417811   -3.470898
    120          6           0       -9.095766    3.361102   -3.786928
    121          8           0      -10.277941    3.005104   -3.637465
    122          8           0       -8.594436    4.590791   -4.003508
    123          6           0       -9.676211    5.564237   -4.310072
    124          1           0       -6.904975    2.555349    3.386289
    125          1           0       -7.503062   -3.660174    3.531551
    126          1           0       -7.473617   -3.865225   -2.744740
    127          1           0       -7.180829    4.411060   -1.180374
    128          1           0       -7.365644    4.402862    1.630832
    129          1           0       -5.157821    3.697579   -0.258155
    130          1           0       -5.105861    2.845675    1.299363
    131          1           0       -5.063786    4.582839    1.310906
    132          1           0       -9.549834    4.185887    0.691212
    133          1           0       -9.847203    4.060889   -1.081108
    134          1           0       -8.280209    6.391450   -0.611440
    135          1           0       -9.301997    6.256387    0.775135
    136          1           0       -7.522613    2.229082    5.374456
    137          1           0       -7.075899    0.932172    6.431654
    138          1           0       -8.808794    1.291096    6.244476
    139          1           0       -7.861105   -0.905322    7.422854
    140          1           0       -8.957712   -2.362883    7.768771
    141          1           0       -9.550698   -0.882645    6.962133
    142          1           0       -7.884349   -5.480603    1.787900
    143          1           0       -6.380997   -5.341982   -0.776763
    144          1           0       -5.874577   -6.334058    2.389200
    145          1           0       -5.192755   -4.684581    2.164753
    146          1           0       -5.145572   -5.784482    0.882718
    147          1           0       -8.219389   -7.004779   -0.300105
    148          1           0       -8.323765   -6.211940   -1.860716
    149          1           0       -9.860610   -5.916568    0.615775
    150          1           0      -10.498931   -6.034079   -1.064580
    151          1           0       -9.814190   -4.479376   -0.410091
    152          1           0       -8.170296   -1.916163   -5.764661
    153          1           0       -7.541997   -3.277797   -4.781110
    154          1           0       -6.422210   -1.931687   -5.235337
    155          1           0       -6.992387    2.891945   -3.588498
    156          1           0       -9.427442    6.026375   -5.270396
    157          1           0       -9.735470    6.231940   -3.430061
    158          1           0      -10.663686    5.167871   -4.515606
 ---------------------------------------------------------------------

 SCF Done:  E(RCAM-B3LYP) =  -4069.81184127     A.U. after   19 cycles

 Excitation energies and oscillator strengths:

 Excited State   1:      Singlet-A      1.6750 eV  740.18 nm  f=0.3677  <S**2>=0.000
     310 -> 316        0.17239
     312 -> 314        0.68128
     310 <- 316        0.10395
 This state for optimization and/or second-order correction.
 Total Energy, E(TD-HF/TD-DFT) =  -4069.75028451
 Copying the excited state density for this state as the 1-particle RhoCI density.

 Excited State   2:      Singlet-A      1.6796 eV  738.19 nm  f=0.3812  <S**2>=0.000
     309 -> 315        0.17411
     311 -> 313        0.68092
     309 <- 315        0.10426

 Excited State   3:      Singlet-A      2.1858 eV  567.22 nm  f=0.1007  <S**2>=0.000
     310 -> 314        0.64168
     312 -> 316       -0.27258

 Excited State   4:      Singlet-A      2.1923 eV  565.55 nm  f=0.0989  <S**2>=0.000
     309 -> 313        0.63985
     311 -> 315       -0.27765

 Excited State   5:      Singlet-A      2.7658 eV  448.27 nm  f=0.0000  <S**2>=0.000
     312 -> 313        0.70710

 The electronic state is 1-A.
 Alpha  occ. eigenvalues --  -46.87835 -46.87593 -19.26328 -19.26300 -19.19132
 Alpha  occ. eigenvalues --  -19.19041 -19.18871 -19.18650 -19.18202 -19.18003
 Alpha  occ. eigenvalues --  -14.42485 -14.42432 -14.41490 -14.41287 -14.39443
 Alpha  occ. eigenvalues --  -14.39285 -14.38625 -14.38534 -10.39101 -10.39060
 Alpha  occ. eigenvalues --  -10.35506 -10.35328 -10.34421 -10.34181 -10.31746
 Alpha  occ. eigenvalues --  -10.31687 -10.31436 -10.31248 -10.30963 -10.30943
 Alpha  occ. eigenvalues --  -10.30606 -10.30549 -10.30331 -10.30298 -10.30251
 Alpha  occ. eigenvalues --  -10.30063 -10.29962 -10.29819 -10.29671 -10.29367
 Alpha  occ. eigenvalues --  -10.29337 -10.29295 -10.28768 -10.28673 -10.28630
 Alpha  occ. eigenvalues --  -10.28535 -10.28402 -10.28342 -10.28137 -10.28089
 Alpha  occ. eigenvalues --  -10.27938 -10.27831 -10.27762 -10.27626 -10.27604
 Alpha  occ. eigenvalues --  -10.27550 -10.27519 -10.27500 -10.27439 -10.27422
 Alpha  occ. eigenvalues --  -10.27421 -10.27407 -10.27402 -10.27278 -10.27186
 Alpha  occ. eigenvalues --  -10.27006 -10.26715 -10.26656 -10.26475 -10.26357
 Alpha  occ. eigenvalues --  -10.26253 -10.26240 -10.26059 -10.26049 -10.25970
 Alpha  occ. eigenvalues --  -10.25877 -10.25861 -10.25787 -10.25485 -10.25270
 Alpha  occ. eigenvalues --  -10.24870 -10.24830 -10.24811 -10.24752 -10.24654
 Alpha  occ. eigenvalues --  -10.24618  -3.16578  -3.16343  -1.91460  -1.91225
 Alpha  occ. eigenvalues --   -1.91047  -1.90889  -1.90813  -1.90650  -1.16650
 Alpha  occ. eigenvalues --   -1.16620  -1.08658  -1.08613  -1.07274  -1.06916
 Alpha  occ. eigenvalues --   -1.06903  -1.06663  -1.04616  -1.04432  -1.03800
 Alpha  occ. eigenvalues --   -1.03596  -1.03273  -1.02968  -1.02450  -1.02043
 Alpha  occ. eigenvalues --   -0.92006  -0.91928  -0.89565  -0.89419  -0.89210
 Alpha  occ. eigenvalues --   -0.89099  -0.88332  -0.88137  -0.87906  -0.87731
 Alpha  occ. eigenvalues --   -0.87706  -0.87619  -0.87318  -0.87058  -0.85009
 Alpha  occ. eigenvalues --   -0.84945  -0.83983  -0.83794  -0.83019  -0.82865
 Alpha  occ. eigenvalues --   -0.82680  -0.82597  -0.81613  -0.81551  -0.80630
 Alpha  occ. eigenvalues --   -0.80389  -0.78838  -0.78572  -0.77254  -0.77084
 Alpha  occ. eigenvalues --   -0.76961  -0.76841  -0.75950  -0.75787  -0.74940
 Alpha  occ. eigenvalues --   -0.74720  -0.72812  -0.72633  -0.71707  -0.71512
 Alpha  occ. eigenvalues --   -0.69957  -0.69674  -0.68903  -0.68773  -0.67680
 Alpha  occ. eigenvalues --   -0.67540  -0.67246  -0.67150  -0.65313  -0.65220
 Alpha  occ. eigenvalues --   -0.64888  -0.64708  -0.64654  -0.64598  -0.64313
 Alpha  occ. eigenvalues --   -0.64127  -0.62325  -0.62232  -0.60487  -0.60271
 Alpha  occ. eigenvalues --   -0.59832  -0.59741  -0.59024  -0.58927  -0.58540
 Alpha  occ. eigenvalues --   -0.58363  -0.57614  -0.57508  -0.57349  -0.57168
 Alpha  occ. eigenvalues --   -0.56346  -0.56145  -0.56001  -0.55845  -0.55561
 Alpha  occ. eigenvalues --   -0.55399  -0.55379  -0.55179  -0.54558  -0.54425
 Alpha  occ. eigenvalues --   -0.53918  -0.53862  -0.53340  -0.53255  -0.53164
 Alpha  occ. eigenvalues --   -0.53088  -0.52948  -0.52850  -0.52795  -0.52611
 Alpha  occ. eigenvalues --   -0.52489  -0.52322  -0.51950  -0.51823  -0.51645
 Alpha  occ. eigenvalues --   -0.51609  -0.51230  -0.51144  -0.50621  -0.50412
 Alpha  occ. eigenvalues --   -0.50077  -0.49960  -0.49919  -0.49785  -0.49549
 Alpha  occ. eigenvalues --   -0.49431  -0.49250  -0.49148  -0.49121  -0.49051
 Alpha  occ. eigenvalues --   -0.48623  -0.48508  -0.48506  -0.48485  -0.48299
 Alpha  occ. eigenvalues --   -0.48277  -0.47731  -0.47535  -0.47335  -0.47051
 Alpha  occ. eigenvalues --   -0.46834  -0.46643  -0.46580  -0.46500  -0.46398
 Alpha  occ. eigenvalues --   -0.46204  -0.46199  -0.46016  -0.45850  -0.45769
 Alpha  occ. eigenvalues --   -0.45246  -0.45124  -0.44610  -0.44547  -0.44460
 Alpha  occ. eigenvalues --   -0.44419  -0.44187  -0.44116  -0.44071  -0.44055
 Alpha  occ. eigenvalues --   -0.44011  -0.43885  -0.43524  -0.43506  -0.43419
 Alpha  occ. eigenvalues --   -0.43325  -0.43062  -0.42889  -0.42841  -0.42735
 Alpha  occ. eigenvalues --   -0.42689  -0.42477  -0.42049  -0.41899  -0.41739
 Alpha  occ. eigenvalues --   -0.41610  -0.41559  -0.41402  -0.41175  -0.40924
 Alpha  occ. eigenvalues --   -0.40902  -0.40870  -0.40665  -0.40640  -0.40613
 Alpha  occ. eigenvalues --   -0.40416  -0.40252  -0.40183  -0.39493  -0.39343
 Alpha  occ. eigenvalues --   -0.38511  -0.38270  -0.37768  -0.37607  -0.37362
 Alpha  occ. eigenvalues --   -0.37290  -0.37193  -0.37143  -0.36741  -0.36731
 Alpha  occ. eigenvalues --   -0.36225  -0.36151  -0.34323  -0.34188  -0.33825
 Alpha  occ. eigenvalues --   -0.33795  -0.33224  -0.33109  -0.31401  -0.31209
 Alpha  occ. eigenvalues --   -0.31073  -0.30907  -0.30060  -0.29909  -0.29491
 Alpha  occ. eigenvalues --   -0.29360  -0.29263  -0.29149  -0.24118  -0.23969
 Alpha  occ. eigenvalues --   -0.21166  -0.21050
 Alpha virt. eigenvalues --   -0.08814  -0.08727  -0.01791  -0.01614  -0.00101
 Alpha virt. eigenvalues --    0.00032   0.02163   0.02267   0.03075   0.03289
 Alpha virt. eigenvalues --    0.04689   0.04791   0.05076   0.05198   0.06164

 Mulliken charges:
               1
     1  Mg   0.838592
     2  C   -0.002929
     3  C   -0.093969
     4  C   -0.046012
     5  C   -0.064000
     6  N   -0.256785
     7  C   -0.052396
     8  C   -0.013991
     9  C   -0.087015
    10  C    0.046316
    11  C    0.104782
    12  C    0.053410
    13  C   -0.071999
    14  H    0.036538
    15  N   -0.433121
    16  C    0.168337
    17  C   -0.177128
    18  C   -0.004149
    19  C    0.148653
    20  C    0.110148
    21  C    0.012059
    22  O   -0.249916
    23  C    0.062566
    24  N   -0.341107
    25  C    0.041254
    26  C   -0.028138
    27  C   -0.023985
    28  C    0.074819
    29  C    0.076177
    30  C    0.035176
    31  C   -0.004487
    32  N   -0.310484
    33  C    0.080428
    34  C   -0.169702
    35  C    0.008407
    36  C    0.082975
    37  C    0.127310
    38  C    0.046137
    39  O   -0.188309
    40  C   -0.005303
    41  C    0.212892
    42  O   -0.257140
    43  O   -0.304769
    44  C    0.157669
    45  H   -0.017468
    46  H   -0.017034
    47  H   -0.041477
    48  H    0.001034
    49  H   -0.003850
    50  H    0.025502
    51  H    0.016383
    52  H    0.016806
    53  H    0.011252
    54  H    0.044100
    55  H    0.017885
    56  H    0.018130
    57  H    0.006084
    58  H    0.026828
    59  H    0.039487
    60  H    0.037549
    61  H    0.035285
    62  H    0.031349
    63  H    0.016260
    64  H    0.009543
    65  H    0.023057
    66  H    0.012636
    67  H    0.004824
    68  H    0.006247
    69  H    0.004870
    70  H    0.008412
    71  H    0.018123
    72  H    0.029044
    73  H    0.047618
    74  H    0.009109
    75  H    0.046095
    76  H    0.035256
    77  H    0.043008
    78  H    0.046576
    79  H    0.053665
    80  Mg   0.838011
    81  C   -0.016921
    82  C   -0.087843
    83  C   -0.045369
    84  C   -0.064480
    85  N   -0.254572
    86  C   -0.049876
    87  C   -0.015089
    88  C   -0.090528
    89  C    0.045776
    90  C    0.114362
    91  C    0.062559
    92  C   -0.077768
    93  H    0.034635
    94  N   -0.423516
    95  C    0.162974
    96  C   -0.174578
    97  C   -0.007753
    98  C    0.152165
    99  C    0.099350
   100  C    0.015560
   101  O   -0.253056
   102  C    0.061216
   103  N   -0.350025
   104  C    0.037731
   105  C   -0.020014
   106  C   -0.034853
   107  C    0.088912
   108  C    0.073384
   109  C    0.034703
   110  C   -0.007662
   111  N   -0.324099
   112  C    0.078408
   113  C   -0.163049
   114  C    0.002131
   115  C    0.096252
   116  C    0.131501
   117  C    0.042299
   118  O   -0.188312
   119  C    0.000950
   120  C    0.211189
   121  O   -0.251025
   122  O   -0.305713
   123  C    0.152091
   124  H   -0.019657
   125  H   -0.015404
   126  H   -0.040279
   127  H   -0.000939
   128  H   -0.004449
   129  H    0.022277
   130  H    0.014838
   131  H    0.016179
   132  H    0.013948
   133  H    0.037613
   134  H    0.020600
   135  H    0.019593
   136  H    0.008728
   137  H    0.026219
   138  H    0.039658
   139  H    0.038256
   140  H    0.036338
   141  H    0.033779
   142  H    0.014278
   143  H    0.013061
   144  H    0.025174
   145  H    0.011971
   146  H    0.006584
   147  H    0.006459
   148  H    0.003659
   149  H    0.010902
   150  H    0.017767
   151  H    0.029928
   152  H    0.045728
   153  H    0.008640
   154  H    0.047091
   155  H    0.034781
   156  H    0.043620
   157  H    0.049449
   158  H    0.053554
 Sum of Mulliken charges =  -0.00000

 Dipole moment (field-independent basis, Debye):
    X=              3.5877    Y=              5.6086    Z=              1.4426  Tot=              6.8124
 Quadrupole moment (field-independent basis, Debye-Ang):
   XX=           -519.2736   YY=           -503.3666   ZZ=           -495.3619
   XY=             12.3246   XZ=            -50.1575   YZ=              3.3902

 Normal termination of Gaussian 16 at Sun Sep 12 02:08:29 2021.
