 Gaussian 16, Revision A.03,
 Gaussian 16:  ES64L-G16RevA.03 25-Dec-2016

 -----------------------------------
 #p cam-b3lyp/Def2SVP td=(nstates=5)
 -----------------------------------

 --------------------------------
 TDDFT excited states in gaussian
 --------------------------------
 Symbolic Z-matrix:
 Charge =  0 Multiplicity = 1

                         Standard orientation:
 ---------------------------------------------------------------------
 Center     Atomic      Atomic             Coordinates (Angstroms)
 Number     Number       Type             X           Y           Z
 ---------------------------------------------------------------------
      1         12           0       -4.344401    1.283301   -0.574645
      2          6           0       -5.258515   -2.154530   -0.972047
      3          6           0       -5.919505    1.197957    2.451049
      4          6           0       -3.947004    4.424740   -0.401279
      5          6           0       -3.862550    1.400844   -4.024234
      6          7           0       -5.414376   -0.332769    0.494990
      7          6           0       -5.642314   -1.621252    0.260412
      8          6           0       -6.260202   -2.371089    1.478334
      9          6           0       -6.923310   -1.130021    2.228024
     10          6           0       -6.010895   -0.025868    1.723772
     11          6           0       -8.349137   -0.834747    1.773785
     12          6           0       -5.170991   -3.061540    2.366381
     13          6           0       -5.703039   -4.078430    3.380390
     14          1           0       -4.907894   -5.262758    3.667547
     15          7           0       -4.415478    2.499803    0.980321
     16          6           0       -5.092560    2.297915    2.136213
     17          6           0       -4.830649    3.487222    2.975042
     18          6           0       -4.101746    4.481665    2.139651
     19          6           0       -4.149247    3.844229    0.848606
     20          6           0       -5.214611    3.575548    4.420214
     21          6           0       -3.472806    5.802477    2.452734
     22          8           0       -3.095246    6.610275    1.536500
     23          6           0       -3.389857    6.169191    3.878105
     24          7           0       -4.171759    2.774979   -2.024723
     25          6           0       -3.947480    4.048167   -1.681685
     26          6           0       -3.580388    4.878770   -2.875536
     27          6           0       -3.362122    3.851608   -4.078470
     28          6           0       -3.743270    2.542912   -3.343411
     29          6           0       -4.606101    5.941981   -3.292078
     30          6           0       -2.001849    3.913098   -4.817589
     31          6           0       -0.894064    3.462141   -3.892090
     32          7           0       -4.347765   -0.147826   -2.206488
     33          6           0       -4.145404    0.124525   -3.567204
     34          6           0       -4.348118   -1.141169   -4.295898
     35          6           0       -4.672690   -2.064289   -3.303756
     36          6           0       -4.698435   -1.410592   -2.038723
     37          6           0       -4.282748   -1.309962   -5.707164
     38          6           0       -5.027864   -3.445509   -3.021020
     39          8           0       -5.073119   -4.482473   -3.684459
     40          6           0       -5.540524   -3.533017   -1.515912
     41          6           0       -4.847849   -4.700227   -0.866966
     42          8           0       -3.616396   -4.682023   -0.665580
     43          8           0       -5.766903   -5.544494   -0.373919
     44          6           0       -5.145757   -6.710367    0.309508
     45          1           0       -6.581891    1.355498    3.304493
     46          1           0       -3.696965    5.487391   -0.375001
     47          1           0       -3.646398    1.342356   -5.092556
     48          1           0       -7.026036   -3.102887    1.220663
     49          1           0       -6.845993   -1.220317    3.311348
     50          1           0       -8.628916   -1.446732    0.916394
     51          1           0       -8.356293    0.221960    1.505809
     52          1           0       -9.049194   -0.938271    2.603231
     53          1           0       -4.743759   -2.326020    3.047957
     54          1           0       -4.410577   -3.535975    1.745085
     55          1           0       -6.735304   -4.354744    3.163626
     56          1           0       -5.751258   -3.594692    4.356030
     57          1           0       -5.880859    2.763229    4.707957
     58          1           0       -5.818371    4.475576    4.534815
     59          1           0       -4.343755    3.631412    5.073529
     60          1           0       -4.393326    6.188082    4.303829
     61          1           0       -2.831409    7.103825    3.916134
     62          1           0       -2.844955    5.390097    4.412001
     63          1           0       -2.655199    5.426565   -2.701262
     64          1           0       -4.100696    3.984975   -4.869290
     65          1           0       -4.200818    6.953715   -3.321154
     66          1           0       -5.452739    5.879336   -2.609019
     67          1           0       -5.088386    5.760430   -4.252212
     68          1           0       -1.776463    4.937427   -5.112371
     69          1           0       -1.971469    3.295354   -5.715209
     70          1           0       -0.662532    4.366630   -3.330731
     71          1           0       -0.030128    3.127870   -4.467493
     72          1           0       -1.249309    2.718011   -3.178958
     73          1           0       -3.725520   -2.230846   -5.878737
     74          1           0       -3.798581   -0.458988   -6.185732
     75          1           0       -5.342625   -1.379127   -5.951566
     76          1           0       -6.620425   -3.670791   -1.560100
     77          1           0       -5.545113   -7.608677   -0.161437
     78          1           0       -5.325193   -6.575908    1.376339
     79          1           0       -4.076537   -6.850850    0.147114
     80         12           0        4.241675   -0.670985    1.236102
     81          6           0        5.609452   -0.546260   -2.079419
     82          6           0        6.038792    2.145757    1.922370
     83          6           0        3.413857   -1.004473    4.280914
     84          6           0        3.490278   -4.023279    0.650236
     85          7           0        5.610033    0.549223   -0.001218
     86          6           0        6.005488    0.535262   -1.265241
     87          6           0        6.808089    1.790125   -1.701967
     88          6           0        7.349260    2.243443   -0.259566
     89          6           0        6.250003    1.642340    0.613905
     90          6           0        8.669514    1.593348    0.119426
     91          6           0        5.893136    2.891192   -2.344240
     92          6           0        6.644957    4.008087   -3.071610
     93          1           0        6.046177    4.582101   -4.273453
     94          7           0        4.257592    0.643669    2.722701
     95          6           0        5.034502    1.741990    2.829410
     96          6           0        4.679708    2.362392    4.115241
     97          6           0        3.748323    1.451372    4.834471
     98          6           0        3.787674    0.293376    3.964065
     99          6           0        5.150474    3.730271    4.516103
    100          6           0        2.963350    1.593432    6.103256
    101          8           0        2.404045    0.586427    6.665356
    102          6           0        2.947010    2.928827    6.718028
    103          7           0        3.744906   -2.328342    2.388799
    104          6           0        3.372785   -2.190506    3.673505
    105          6           0        2.799840   -3.477823    4.216578
    106          6           0        2.640781   -4.444321    2.952386
    107          6           0        3.259581   -3.540575    1.863476
    108          6           0        3.634337   -4.176930    5.289538
    109          6           0        1.231505   -5.046722    2.699955
    110          6           0        0.265839   -3.952796    2.304770
    111          7           0        4.320465   -2.009547   -0.458042
    112          6           0        3.983622   -3.380754   -0.478111
    113          6           0        4.310366   -3.889654   -1.825960
    114          6           0        4.840250   -2.775820   -2.494602
    115          6           0        4.862244   -1.657111   -1.618524
    116          6           0        4.153419   -5.233414   -2.268429
    117          6           0        5.395848   -2.294723   -3.739018
    118          8           0        5.544065   -2.768362   -4.864821
    119          6           0        6.035831   -0.861928   -3.486254
    120          6           0        5.568251    0.055605   -4.582631
    121          8           0        4.366473    0.359300   -4.683081
    122          8           0        6.639470    0.592685   -5.194531
    123          6           0        6.226788    1.518751   -6.282619
    124          1           0        6.733183    2.891950    2.309536
    125          1           0        3.015762   -1.147910    5.288109
    126          1           0        3.194818   -5.033172    0.357855
    127          1           0        7.640851    1.588642   -2.365056
    128          1           0        7.362183    3.326139   -0.164937
    129          1           0        8.967928    0.840893   -0.595343
    130          1           0        8.509563    1.148298    1.092757
    131          1           0        9.439262    2.357537    0.260279
    132          1           0        5.418863    3.474039   -1.544184
    133          1           0        5.173125    2.449972   -3.005722
    134          1           0        7.695207    3.748451   -3.251917
    135          1           0        6.693368    4.879308   -2.413846
    136          1           0        5.954168    4.087286    3.860344
    137          1           0        5.625477    3.629954    5.498024
    138          1           0        4.333978    4.451700    4.590543
    139          1           0        3.966307    3.238318    6.936487
    140          1           0        2.262682    2.852183    7.565190
    141          1           0        2.550106    3.644552    5.989447
    142          1           0        1.824298   -3.311577    4.656777
    143          1           0        3.289056   -5.329333    3.031987
    144          1           0        3.081253   -4.343059    6.233239
    145          1           0        4.523435   -3.587046    5.468656
    146          1           0        4.050684   -5.139246    4.996607
    147          1           0        0.839147   -5.490202    3.618399
    148          1           0        1.222348   -5.820292    1.939353
    149          1           0       -0.044070   -3.537257    3.268299
    150          1           0       -0.581737   -4.367395    1.762773
    151          1           0        0.777828   -3.156703    1.751810
    152          1           0        3.726215   -5.186384   -3.261300
    153          1           0        3.522777   -5.804276   -1.590076
    154          1           0        5.193348   -5.569818   -2.243095
    155          1           0        7.119826   -0.982430   -3.487744
    156          1           0        6.717392    1.174546   -7.198324
    157          1           0        6.483358    2.533511   -5.924594
    158          1           0        5.185637    1.506617   -6.583113
 ---------------------------------------------------------------------

 SCF Done:  E(RCAM-B3LYP) =  -4069.81238249     A.U. after   19 cycles

 Excitation energies and oscillator strengths:

 Excited State   1:      Singlet-A      1.6466 eV  752.98 nm  f=0.0039  <S**2>=0.000
     309 -> 315       -0.11342
     310 -> 316        0.12166
     311 -> 314       -0.46726
     312 -> 313        0.50455
 This state for optimization and/or second-order correction.
 Total Energy, E(TD-HF/TD-DFT) =  -4069.75187198
 Copying the excited state density for this state as the 1-particle RhoCI density.

 Excited State   2:      Singlet-A      1.7020 eV  728.45 nm  f=0.7006  <S**2>=0.000
     309 -> 315        0.13291
     310 -> 316        0.12226
     311 -> 314        0.50201
     312 -> 313        0.46502

 Excited State   3:      Singlet-A      2.1810 eV  568.48 nm  f=0.0204  <S**2>=0.000
     309 -> 314        0.30076
     310 -> 313        0.57001
     311 -> 315       -0.12466
     312 -> 316       -0.23806

 Excited State   4:      Singlet-A      2.1943 eV  565.03 nm  f=0.1583  <S**2>=0.000
     309 -> 314        0.56591
     310 -> 313       -0.29709
     311 -> 315       -0.24815
     312 -> 316        0.13143

 Excited State   5:      Singlet-A      2.4793 eV  500.07 nm  f=0.0000  <S**2>=0.000
     312 -> 314        0.70705

 The electronic state is 1-A.
 Alpha  occ. eigenvalues --  -46.87601 -46.87455 -19.26269 -19.26252 -19.19050
 Alpha  occ. eigenvalues --  -19.19020 -19.18687 -19.18608 -19.18009 -19.17870
 Alpha  occ. eigenvalues --  -14.42302 -14.42264 -14.41250 -14.41143 -14.39214
 Alpha  occ. eigenvalues --  -14.39157 -14.38387 -14.38386 -10.39056 -10.38974
 Alpha  occ. eigenvalues --  -10.35324 -10.35292 -10.34234 -10.34049 -10.31703
 Alpha  occ. eigenvalues --  -10.31695 -10.31216 -10.31104 -10.30859 -10.30750
 Alpha  occ. eigenvalues --  -10.30368 -10.30311 -10.30189 -10.30141 -10.30002
 Alpha  occ. eigenvalues --  -10.29924 -10.29715 -10.29668 -10.29437 -10.29240
 Alpha  occ. eigenvalues --  -10.29197 -10.29060 -10.28621 -10.28576 -10.28560
 Alpha  occ. eigenvalues --  -10.28479 -10.28221 -10.28189 -10.27983 -10.27968
 Alpha  occ. eigenvalues --  -10.27801 -10.27600 -10.27535 -10.27471 -10.27400
 Alpha  occ. eigenvalues --  -10.27313 -10.27300 -10.27295 -10.27278 -10.27253
 Alpha  occ. eigenvalues --  -10.27237 -10.27232 -10.27231 -10.27146 -10.27039
 Alpha  occ. eigenvalues --  -10.26893 -10.26608 -10.26569 -10.26380 -10.26329
 Alpha  occ. eigenvalues --  -10.26095 -10.25883 -10.25849 -10.25797 -10.25716
 Alpha  occ. eigenvalues --  -10.25686 -10.25574 -10.25548 -10.25263 -10.25230
 Alpha  occ. eigenvalues --  -10.24671 -10.24642 -10.24601 -10.24493 -10.24241
 Alpha  occ. eigenvalues --  -10.24105  -3.16344  -3.16205  -1.91225  -1.91087
 Alpha  occ. eigenvalues --   -1.90812  -1.90676  -1.90654  -1.90513  -1.16615
 Alpha  occ. eigenvalues --   -1.16542  -1.08481  -1.08475  -1.07093  -1.06868
 Alpha  occ. eigenvalues --   -1.06833  -1.06623  -1.04400  -1.04305  -1.03566
 Alpha  occ. eigenvalues --   -1.03461  -1.03038  -1.02826  -1.02216  -1.01904
 Alpha  occ. eigenvalues --   -0.91805  -0.91799  -0.89287  -0.89235  -0.89042
 Alpha  occ. eigenvalues --   -0.88987  -0.88062  -0.87957  -0.87655  -0.87564
 Alpha  occ. eigenvalues --   -0.87491  -0.87484  -0.87105  -0.86963  -0.84837
 Alpha  occ. eigenvalues --   -0.84836  -0.83702  -0.83591  -0.82809  -0.82781
 Alpha  occ. eigenvalues --   -0.82505  -0.82483  -0.81466  -0.81431  -0.80445
 Alpha  occ. eigenvalues --   -0.80272  -0.78612  -0.78447  -0.77026  -0.76948
 Alpha  occ. eigenvalues --   -0.76785  -0.76697  -0.75778  -0.75668  -0.74703
 Alpha  occ. eigenvalues --   -0.74578  -0.72572  -0.72479  -0.71501  -0.71395
 Alpha  occ. eigenvalues --   -0.69628  -0.69413  -0.68720  -0.68656  -0.67474
 Alpha  occ. eigenvalues --   -0.67420  -0.67091  -0.67062  -0.65137  -0.65105
 Alpha  occ. eigenvalues --   -0.64690  -0.64569  -0.64470  -0.64453  -0.64047
 Alpha  occ. eigenvalues --   -0.63940  -0.62188  -0.62114  -0.60263  -0.60161
 Alpha  occ. eigenvalues --   -0.59644  -0.59624  -0.58806  -0.58792  -0.58330
 Alpha  occ. eigenvalues --   -0.58231  -0.57464  -0.57390  -0.57127  -0.57031
 Alpha  occ. eigenvalues --   -0.56139  -0.56011  -0.55894  -0.55746  -0.55368
 Alpha  occ. eigenvalues --   -0.55308  -0.55156  -0.55023  -0.54364  -0.54253
 Alpha  occ. eigenvalues --   -0.53759  -0.53757  -0.53131  -0.53072  -0.53051
 Alpha  occ. eigenvalues --   -0.52963  -0.52781  -0.52733  -0.52618  -0.52547
 Alpha  occ. eigenvalues --   -0.52141  -0.52014  -0.51690  -0.51628  -0.51514
 Alpha  occ. eigenvalues --   -0.51480  -0.51013  -0.50984  -0.50417  -0.50334
 Alpha  occ. eigenvalues --   -0.49820  -0.49815  -0.49743  -0.49595  -0.49376
 Alpha  occ. eigenvalues --   -0.49343  -0.49062  -0.49044  -0.48946  -0.48924
 Alpha  occ. eigenvalues --   -0.48454  -0.48396  -0.48311  -0.48272  -0.48210
 Alpha  occ. eigenvalues --   -0.48157  -0.47532  -0.47417  -0.47133  -0.46946
 Alpha  occ. eigenvalues --   -0.46597  -0.46495  -0.46420  -0.46387  -0.46170
 Alpha  occ. eigenvalues --   -0.46055  -0.45980  -0.45877  -0.45665  -0.45627
 Alpha  occ. eigenvalues --   -0.44996  -0.44973  -0.44428  -0.44361  -0.44335
 Alpha  occ. eigenvalues --   -0.44268  -0.43973  -0.43971  -0.43913  -0.43856
 Alpha  occ. eigenvalues --   -0.43804  -0.43794  -0.43363  -0.43358  -0.43211
 Alpha  occ. eigenvalues --   -0.43206  -0.42853  -0.42783  -0.42706  -0.42628
 Alpha  occ. eigenvalues --   -0.42410  -0.42286  -0.41780  -0.41673  -0.41532
 Alpha  occ. eigenvalues --   -0.41477  -0.41379  -0.41248  -0.40974  -0.40808
 Alpha  occ. eigenvalues --   -0.40716  -0.40674  -0.40608  -0.40508  -0.40346
 Alpha  occ. eigenvalues --   -0.40213  -0.40119  -0.40102  -0.39143  -0.39055
 Alpha  occ. eigenvalues --   -0.38258  -0.38112  -0.37625  -0.37505  -0.37112
 Alpha  occ. eigenvalues --   -0.37108  -0.37043  -0.37010  -0.36637  -0.36629
 Alpha  occ. eigenvalues --   -0.36035  -0.36004  -0.34097  -0.34051  -0.33735
 Alpha  occ. eigenvalues --   -0.33728  -0.33002  -0.32970  -0.31217  -0.31167
 Alpha  occ. eigenvalues --   -0.30858  -0.30781  -0.29871  -0.29774  -0.29267
 Alpha  occ. eigenvalues --   -0.29146  -0.29125  -0.29002  -0.23891  -0.23831
 Alpha  occ. eigenvalues --   -0.20931  -0.20910
 Alpha virt. eigenvalues --   -0.08595  -0.08586  -0.01561  -0.01485   0.00099
 Alpha virt. eigenvalues --    0.00123   0.02379   0.02406   0.02937   0.03868
 Alpha virt. eigenvalues --    0.04870   0.04908   0.05103   0.05289   0.06219

 Mulliken charges:
               1
     1  Mg   0.839335
     2  C   -0.003606
     3  C   -0.093768
     4  C   -0.046022
     5  C   -0.062524
     6  N   -0.256788
     7  C   -0.052463
     8  C   -0.014226
     9  C   -0.087015
    10  C    0.046215
    11  C    0.104887
    12  C    0.052744
    13  C   -0.071108
    14  H    0.033657
    15  N   -0.433000
    16  C    0.168498
    17  C   -0.177054
    18  C   -0.004400
    19  C    0.148598
    20  C    0.110181
    21  C    0.011664
    22  O   -0.250553
    23  C    0.062562
    24  N   -0.341320
    25  C    0.041398
    26  C   -0.027830
    27  C   -0.024150
    28  C    0.075256
    29  C    0.076433
    30  C    0.034862
    31  C   -0.005210
    32  N   -0.310789
    33  C    0.081266
    34  C   -0.167758
    35  C    0.008209
    36  C    0.083666
    37  C    0.127052
    38  C    0.046374
    39  O   -0.188619
    40  C   -0.005709
    41  C    0.213213
    42  O   -0.258264
    43  O   -0.304283
    44  C    0.158068
    45  H   -0.018009
    46  H   -0.017474
    47  H   -0.040305
    48  H    0.000506
    49  H   -0.003991
    50  H    0.025214
    51  H    0.016502
    52  H    0.016340
    53  H    0.012557
    54  H    0.043789
    55  H    0.017925
    56  H    0.018689
    57  H    0.005960
    58  H    0.026047
    59  H    0.040099
    60  H    0.037561
    61  H    0.034078
    62  H    0.031392
    63  H    0.016157
    64  H    0.008968
    65  H    0.022405
    66  H    0.012102
    67  H    0.004549
    68  H    0.004856
    69  H    0.005989
    70  H    0.005981
    71  H    0.025288
    72  H    0.029173
    73  H    0.048956
    74  H    0.010637
    75  H    0.045221
    76  H    0.035015
    77  H    0.043233
    78  H    0.046378
    79  H    0.051744
    80  Mg   0.838163
    81  C   -0.017361
    82  C   -0.087869
    83  C   -0.045830
    84  C   -0.062855
    85  N   -0.254568
    86  C   -0.049769
    87  C   -0.015142
    88  C   -0.090473
    89  C    0.045530
    90  C    0.114517
    91  C    0.062516
    92  C   -0.077426
    93  H    0.033582
    94  N   -0.423254
    95  C    0.162680
    96  C   -0.174908
    97  C   -0.008469
    98  C    0.151844
    99  C    0.099438
   100  C    0.014585
   101  O   -0.254604
   102  C    0.061463
   103  N   -0.350354
   104  C    0.037710
   105  C   -0.019226
   106  C   -0.034910
   107  C    0.089640
   108  C    0.074087
   109  C    0.034432
   110  C   -0.011580
   111  N   -0.324561
   112  C    0.079680
   113  C   -0.160716
   114  C    0.001992
   115  C    0.097008
   116  C    0.131232
   117  C    0.042789
   118  O   -0.187870
   119  C    0.000695
   120  C    0.211367
   121  O   -0.251465
   122  O   -0.305512
   123  C    0.152415
   124  H   -0.020310
   125  H   -0.016591
   126  H   -0.038581
   127  H   -0.001002
   128  H   -0.004575
   129  H    0.022195
   130  H    0.014374
   131  H    0.015789
   132  H    0.014496
   133  H    0.037195
   134  H    0.020662
   135  H    0.019780
   136  H    0.008666
   137  H    0.025250
   138  H    0.039526
   139  H    0.038533
   140  H    0.034300
   141  H    0.033480
   142  H    0.013634
   143  H    0.011539
   144  H    0.023780
   145  H    0.011061
   146  H    0.005334
   147  H    0.003191
   148  H    0.005608
   149  H    0.005601
   150  H    0.033210
   151  H    0.029438
   152  H    0.047648
   153  H    0.010778
   154  H    0.045895
   155  H    0.034650
   156  H    0.043768
   157  H    0.049297
   158  H    0.052523
 Sum of Mulliken charges =  -0.00000

 Dipole moment (field-independent basis, Debye):
    X=             -0.1413    Y=              4.1504    Z=              5.4130  Tot=              6.8224
 Quadrupole moment (field-independent basis, Debye-Ang):
   XX=           -463.6102   YY=           -501.6021   ZZ=           -512.8662
   XY=             22.9583   XZ=            -13.0882   YZ=            -32.6314

 Normal termination of Gaussian 16 at Thu Sep  9 16:57:00 2021.
