 Gaussian 16, Revision A.03,
 Gaussian 16:  ES64L-G16RevA.03 25-Dec-2016

 -----------------------------------
 #p cam-b3lyp/Def2SVP td=(nstates=5)
 -----------------------------------

 --------------------------------
 TDDFT excited states in gaussian
 --------------------------------
 Symbolic Z-matrix:
 Charge =  0 Multiplicity = 1

                         Standard orientation:
 ---------------------------------------------------------------------
 Center     Atomic      Atomic             Coordinates (Angstroms)
 Number     Number       Type             X           Y           Z
 ---------------------------------------------------------------------
      1         12           0       -5.217139   -0.638727    0.334015
      2          6           0       -5.354487    2.910502   -0.109072
      3          6           0       -6.262499   -0.933450   -2.900707
      4          6           0       -5.540674   -3.753113    0.836556
      5          6           0       -5.292928   -0.064348    3.770584
      6          7           0       -5.710773    0.870801   -1.208157
      7          6           0       -5.664737    2.197936   -1.269521
      8          6           0       -5.903477    2.758770   -2.703341
      9          6           0       -6.718526    1.534994   -3.319835
     10          6           0       -6.173333    0.416769   -2.449053
     11          6           0       -8.225066    1.635749   -3.103760
     12          6           0       -4.564165    3.002844   -3.476905
     13          6           0       -4.688480    3.847804   -4.748102
     14          1           0       -3.605967    4.756797   -5.093420
     15          7           0       -5.338013   -2.137495   -0.947365
     16          6           0       -5.770390   -2.073797   -2.229659
     17          6           0       -5.671079   -3.449780   -2.762096
     18          6           0       -5.325842   -4.352370   -1.628854
     19          6           0       -5.414586   -3.442581   -0.515398
     20          6           0       -5.846372   -3.785952   -4.211237
     21          6           0       -4.982334   -5.806767   -1.559102
     22          8           0       -4.943338   -6.444074   -0.451450
     23          6           0       -4.776584   -6.495630   -2.846027
     24          7           0       -5.613451   -1.767459    2.044727
     25          6           0       -5.643361   -3.103840    1.998083
     26          6           0       -5.660905   -3.697996    3.375258
     27          6           0       -5.390423   -2.488445    4.382024
     28          6           0       -5.343147   -1.331516    3.353653
     29          6           0       -6.956026   -4.416923    3.777523
     30          6           0       -4.206905   -2.646538    5.369299
     31          6           0       -2.899931   -2.643083    4.608441
     32          7           0       -5.129259    1.096815    1.634482
     33          6           0       -5.199942    1.105364    3.035055
     34          6           0       -5.208241    2.517682    3.458562
     35          6           0       -5.158207    3.237438    2.266382
     36          6           0       -5.147507    2.332388    1.166809
     37          6           0       -5.315409    2.985430    4.798025
     38          6           0       -5.136163    4.560880    1.664822
     39          8           0       -5.036681    5.709315    2.099209
     40          6           0       -5.385338    4.404137    0.099840
     41          6           0       -4.351648    5.234982   -0.610435
     42          8           0       -3.142395    4.930511   -0.561738
     43          8           0       -4.965376    6.109094   -1.422722
     44          6           0       -3.995633    6.944884   -2.179827
     45          1           0       -6.809265   -1.147082   -3.821223
     46          1           0       -5.543794   -4.821958    1.060158
     47          1           0       -5.229988    0.190943    4.829979
     48          1           0       -6.507444    3.665499   -2.741972
     49          1           0       -6.462541    1.360705   -4.364736
     50          1           0       -8.478681    2.468626   -2.448079
     51          1           0       -8.517646    0.689637   -2.647950
     52          1           0       -8.750832    1.684016   -4.057708
     53          1           0       -4.223651    2.062994   -3.911408
     54          1           0       -3.814992    3.447035   -2.820581
     55          1           0       -5.648484    4.362951   -4.791977
     56          1           0       -4.702737    3.174838   -5.605491
     57          1           0       -6.254995   -2.945418   -4.770768
     58          1           0       -6.619179   -4.552195   -4.269119
     59          1           0       -4.925458   -4.157957   -4.660527
     60          1           0       -5.682343   -6.413246   -3.447162
     61          1           0       -4.451734   -7.505479   -2.597983
     62          1           0       -3.992328   -5.980052   -3.401068
     63          1           0       -4.873311   -4.441541    3.490427
     64          1           0       -6.248632   -2.291794    5.025049
     65          1           0       -6.806289   -5.455101    4.074960
     66          1           0       -7.653904   -4.345767    2.943739
     67          1           0       -7.519708   -3.931739    4.573938
     68          1           0       -4.272413   -3.601294    5.889966
     69          1           0       -4.167033   -1.859885    6.122850
     70          1           0       -2.804674   -3.678547    4.283520
     71          1           0       -2.077075   -2.363314    5.267113
     72          1           0       -2.962418   -2.024913    3.712647
     73          1           0       -4.590920    3.793597    4.897784
     74          1           0       -5.119091    2.186929    5.513188
     75          1           0       -6.354267    3.314613    4.814450
     76          1           0       -6.397782    4.757375   -0.093301
     77          1           0       -4.240227    7.986893   -1.973372
     78          1           0       -4.041189    6.610246   -3.216335
     79          1           0       -2.959325    6.905993   -1.842350
     80         12           0        5.357022   -0.895523   -0.200529
     81          6           0        5.281481    2.576113    0.705613
     82          6           0        4.346210    0.050022   -3.318029
     83          6           0        4.978690   -3.966904   -0.901171
     84          6           0        5.240769   -1.642977    3.201453
     85          7           0        4.905909    1.086740   -1.071951
     86          6           0        4.971817    2.340557   -0.650128
     87          6           0        4.768745    3.404700   -1.761857
     88          6           0        3.933815    2.509893   -2.801607
     89          6           0        4.448071    1.128133   -2.402927
     90          6           0        2.433925    2.549190   -2.560504
     91          6           0        6.126718    3.888438   -2.381457
     92          6           0        6.026030    5.144049   -3.250404
     93          1           0        7.133788    6.095323   -3.229957
     94          7           0        5.230555   -1.805351   -1.959729
     95          6           0        4.822201   -1.265810   -3.127386
     96          6           0        4.890829   -2.351287   -4.117941
     97          6           0        5.215472   -3.616786   -3.405325
     98          6           0        5.131834   -3.172853   -2.028366
     99          6           0        4.737058   -2.117882   -5.592829
    100          6           0        5.534252   -5.000903   -3.883649
    101          8           0        5.550367   -6.002596   -3.084146
    102          6           0        5.735179   -5.164376   -5.330850
    103          7           0        4.927907   -2.564550    0.962472
    104          6           0        4.870599   -3.791751    0.416005
    105          6           0        4.822897   -4.861379    1.480911
    106          6           0        5.105214   -4.105716    2.861806
    107          6           0        5.182207   -2.652671    2.343987
    108          6           0        3.510626   -5.638200    1.585201
    109          6           0        6.274194   -4.643206    3.731997
    110          6           0        7.592590   -4.396265    3.034691
    111          7           0        5.461295    0.226488    1.642918
    112          6           0        5.366493   -0.281408    2.957126
    113          6           0        5.376551    0.877327    3.873458
    114          6           0        5.453912    1.988905    3.020883
    115          6           0        5.469194    1.554562    1.667875
    116          6           0        5.270485    0.817313    5.291652
    117          6           0        5.515410    3.431431    2.957443
    118          8           0        5.621144    4.333722    3.787164
    119          6           0        5.278936    3.881588    1.451510
    120          6           0        6.334843    4.892720    1.097706
    121          8           0        7.533457    4.564598    1.050055
    122          8           0        5.739151    6.018617    0.664269
    123          6           0        6.745645    7.047839    0.290782
    124          1           0        3.814151    0.213788   -4.255567
    125          1           0        4.955029   -5.043914   -1.082784
    126          1           0        5.306468   -1.796697    4.280685
    127          1           0        4.186558    4.268214   -1.463222
    128          1           0        4.208734    2.737455   -3.828253
    129          1           0        2.185418    3.080247   -1.653661
    130          1           0        2.119833    1.515887   -2.492002
    131          1           0        1.922333    2.962387   -3.434495
    132          1           0        6.454168    3.162788   -3.137064
    133          1           0        6.863347    4.036867   -1.615963
    134          1           0        5.070175    5.664264   -3.113844
    135          1           0        6.018148    4.840008   -4.299940
    136          1           0        4.342590   -1.115977   -5.802561
    137          1           0        3.953079   -2.797478   -5.944098
    138          1           0        5.654937   -2.319569   -6.149147
    139          1           0        4.840555   -4.842087   -5.858325
    140          1           0        6.041028   -6.203396   -5.467902
    141          1           0        6.545160   -4.498555   -5.649013
    142          1           0        5.597276   -5.601474    1.320611
    143          1           0        4.238156   -4.153198    3.536932
    144          1           0        3.640318   -6.731191    1.472824
    145          1           0        2.828142   -5.257350    0.837066
    146          1           0        2.953386   -5.481767    2.507266
    147          1           0        6.186979   -5.725333    3.856749
    148          1           0        6.310140   -4.206475    4.724453
    149          1           0        7.668933   -5.241843    2.344576
    150          1           0        8.411144   -4.396791    3.751634
    151          1           0        7.553778   -3.481407    2.432053
    152          1           0        5.999683    1.511314    5.688049
    153          1           0        5.439641   -0.192151    5.660631
    154          1           0        4.232315    1.133843    5.423155
    155          1           0        4.273782    4.300274    1.388734
    156          1           0        6.512495    7.947309    0.868947
    157          1           0        6.694175    7.129964   -0.811197
    158          1           0        7.774756    6.870892    0.580732
 ---------------------------------------------------------------------

 SCF Done:  E(RCAM-B3LYP) =  -4069.81166132     A.U. after   19 cycles

 Excitation energies and oscillator strengths:

 Excited State   1:      Singlet-A      1.6581 eV  747.75 nm  f=0.0241  <S**2>=0.000
     309 -> 315       -0.11206
     310 -> 316        0.12690
     311 -> 313       -0.45253
     312 -> 314        0.51703
 This state for optimization and/or second-order correction.
 Total Energy, E(TD-HF/TD-DFT) =  -4069.75072733
 Copying the excited state density for this state as the 1-particle RhoCI density.

 Excited State   2:      Singlet-A      1.6950 eV  731.48 nm  f=0.6958  <S**2>=0.000
     309 -> 315        0.13530
     310 -> 316        0.11706
     311 -> 313        0.51520
     312 -> 314        0.45097

 Excited State   3:      Singlet-A      2.1822 eV  568.16 nm  f=0.0333  <S**2>=0.000
     309 -> 313       -0.24639
     310 -> 314        0.59509
     311 -> 315        0.10261
     312 -> 316       -0.24912

 Excited State   4:      Singlet-A      2.1951 eV  564.83 nm  f=0.1495  <S**2>=0.000
     309 -> 313        0.59125
     310 -> 314        0.24332
     311 -> 315       -0.25954
     312 -> 316       -0.10771

 Excited State   5:      Singlet-A      2.4815 eV  499.63 nm  f=0.0000  <S**2>=0.000
     312 -> 313        0.70710

 The electronic state is 1-A.
 Alpha  occ. eigenvalues --  -46.87883 -46.87479 -19.26430 -19.26113 -19.19165
 Alpha  occ. eigenvalues --  -19.18940 -19.18872 -19.18592 -19.18243 -19.17838
 Alpha  occ. eigenvalues --  -14.42545 -14.42305 -14.41534 -14.41180 -14.39486
 Alpha  occ. eigenvalues --  -14.39178 -14.38670 -14.38415 -10.39220 -10.38865
 Alpha  occ. eigenvalues --  -10.35505 -10.35274 -10.34467 -10.34009 -10.31845
 Alpha  occ. eigenvalues --  -10.31537 -10.31502 -10.31101 -10.31013 -10.30829
 Alpha  occ. eigenvalues --  -10.30655 -10.30584 -10.30286 -10.30222 -10.30176
 Alpha  occ. eigenvalues --  -10.29997 -10.29984 -10.29715 -10.29707 -10.29333
 Alpha  occ. eigenvalues --  -10.29274 -10.29234 -10.28891 -10.28766 -10.28477
 Alpha  occ. eigenvalues --  -10.28473 -10.28452 -10.28241 -10.28218 -10.27880
 Alpha  occ. eigenvalues --  -10.27867 -10.27825 -10.27819 -10.27661 -10.27572
 Alpha  occ. eigenvalues --  -10.27571 -10.27519 -10.27497 -10.27487 -10.27374
 Alpha  occ. eigenvalues --  -10.27374 -10.27307 -10.27289 -10.27259 -10.27219
 Alpha  occ. eigenvalues --  -10.26905 -10.26800 -10.26495 -10.26453 -10.26343
 Alpha  occ. eigenvalues --  -10.26342 -10.26255 -10.26098 -10.26017 -10.25877
 Alpha  occ. eigenvalues --  -10.25767 -10.25685 -10.25647 -10.25495 -10.25229
 Alpha  occ. eigenvalues --  -10.24908 -10.24868 -10.24770 -10.24689 -10.24615
 Alpha  occ. eigenvalues --  -10.24513  -3.16626  -3.16229  -1.91508  -1.91111
 Alpha  occ. eigenvalues --   -1.91095  -1.90937  -1.90700  -1.90537  -1.16777
 Alpha  occ. eigenvalues --   -1.16411  -1.08703  -1.08438  -1.07272  -1.06847
 Alpha  occ. eigenvalues --   -1.06784  -1.06723  -1.04677  -1.04300  -1.03846
 Alpha  occ. eigenvalues --   -1.03481  -1.03315  -1.02863  -1.02494  -1.01930
 Alpha  occ. eigenvalues --   -0.92063  -0.91784  -0.89599  -0.89330  -0.89319
 Alpha  occ. eigenvalues --   -0.88912  -0.88365  -0.88060  -0.87937  -0.87773
 Alpha  occ. eigenvalues --   -0.87617  -0.87500  -0.87348  -0.86988  -0.85106
 Alpha  occ. eigenvalues --   -0.84792  -0.84016  -0.83717  -0.83034  -0.82812
 Alpha  occ. eigenvalues --   -0.82758  -0.82458  -0.81698  -0.81396  -0.80694
 Alpha  occ. eigenvalues --   -0.80256  -0.78873  -0.78482  -0.77316  -0.77053
 Alpha  occ. eigenvalues --   -0.76962  -0.76695  -0.76033  -0.75615  -0.74980
 Alpha  occ. eigenvalues --   -0.74626  -0.72855  -0.72521  -0.71764  -0.71377
 Alpha  occ. eigenvalues --   -0.69985  -0.69609  -0.68986  -0.68629  -0.67729
 Alpha  occ. eigenvalues --   -0.67427  -0.67350  -0.67028  -0.65408  -0.65060
 Alpha  occ. eigenvalues --   -0.64950  -0.64725  -0.64585  -0.64458  -0.64352
 Alpha  occ. eigenvalues --   -0.64038  -0.62413  -0.62075  -0.60517  -0.60192
 Alpha  occ. eigenvalues --   -0.59916  -0.59579  -0.59076  -0.58808  -0.58593
 Alpha  occ. eigenvalues --   -0.58239  -0.57687  -0.57392  -0.57337  -0.57066
 Alpha  occ. eigenvalues --   -0.56393  -0.56109  -0.56032  -0.55683  -0.55602
 Alpha  occ. eigenvalues --   -0.55429  -0.55283  -0.55069  -0.54626  -0.54303
 Alpha  occ. eigenvalues --   -0.54027  -0.53686  -0.53379  -0.53326  -0.53065
 Alpha  occ. eigenvalues --   -0.53023  -0.52957  -0.52846  -0.52714  -0.52517
 Alpha  occ. eigenvalues --   -0.52515  -0.52260  -0.51972  -0.51735  -0.51709
 Alpha  occ. eigenvalues --   -0.51468  -0.51288  -0.51012  -0.50644  -0.50360
 Alpha  occ. eigenvalues --   -0.50113  -0.50002  -0.49799  -0.49708  -0.49614
 Alpha  occ. eigenvalues --   -0.49309  -0.49304  -0.49205  -0.49009  -0.48869
 Alpha  occ. eigenvalues --   -0.48693  -0.48538  -0.48522  -0.48353  -0.48216
 Alpha  occ. eigenvalues --   -0.48179  -0.47792  -0.47415  -0.47383  -0.46960
 Alpha  occ. eigenvalues --   -0.46890  -0.46682  -0.46530  -0.46444  -0.46348
 Alpha  occ. eigenvalues --   -0.46247  -0.46105  -0.45916  -0.45904  -0.45620
 Alpha  occ. eigenvalues --   -0.45280  -0.45035  -0.44668  -0.44603  -0.44323
 Alpha  occ. eigenvalues --   -0.44285  -0.44230  -0.44199  -0.44107  -0.43924
 Alpha  occ. eigenvalues --   -0.43911  -0.43767  -0.43599  -0.43490  -0.43353
 Alpha  occ. eigenvalues --   -0.43187  -0.43116  -0.42820  -0.42744  -0.42732
 Alpha  occ. eigenvalues --   -0.42694  -0.42401  -0.42107  -0.41795  -0.41792
 Alpha  occ. eigenvalues --   -0.41658  -0.41467  -0.41265  -0.41235  -0.40986
 Alpha  occ. eigenvalues --   -0.40907  -0.40781  -0.40657  -0.40578  -0.40511
 Alpha  occ. eigenvalues --   -0.40394  -0.40314  -0.40035  -0.39522  -0.39283
 Alpha  occ. eigenvalues --   -0.38560  -0.38180  -0.37903  -0.37464  -0.37406
 Alpha  occ. eigenvalues --   -0.37382  -0.37094  -0.37002  -0.36836  -0.36563
 Alpha  occ. eigenvalues --   -0.36299  -0.36030  -0.34373  -0.34068  -0.33905
 Alpha  occ. eigenvalues --   -0.33649  -0.33275  -0.32995  -0.31404  -0.31149
 Alpha  occ. eigenvalues --   -0.31124  -0.30786  -0.30104  -0.29738  -0.29525
 Alpha  occ. eigenvalues --   -0.29396  -0.29169  -0.29028  -0.24168  -0.23849
 Alpha  occ. eigenvalues --   -0.21212  -0.20937
 Alpha virt. eigenvalues --   -0.08855  -0.08617  -0.01833  -0.01509  -0.00136
 Alpha virt. eigenvalues --    0.00133   0.02126   0.02399   0.03012   0.03394
 Alpha virt. eigenvalues --    0.04599   0.04927   0.04966   0.05389   0.06001

 Mulliken charges:
               1
     1  Mg   0.838518
     2  C   -0.003382
     3  C   -0.094697
     4  C   -0.045636
     5  C   -0.063639
     6  N   -0.256720
     7  C   -0.052789
     8  C   -0.013897
     9  C   -0.086925
    10  C    0.046054
    11  C    0.104780
    12  C    0.053723
    13  C   -0.071190
    14  H    0.034129
    15  N   -0.433163
    16  C    0.168319
    17  C   -0.177325
    18  C   -0.003771
    19  C    0.148671
    20  C    0.110219
    21  C    0.012605
    22  O   -0.249347
    23  C    0.062415
    24  N   -0.341043
    25  C    0.041178
    26  C   -0.028231
    27  C   -0.023984
    28  C    0.074718
    29  C    0.076096
    30  C    0.035090
    31  C   -0.004489
    32  N   -0.310537
    33  C    0.080401
    34  C   -0.169183
    35  C    0.008576
    36  C    0.082971
    37  C    0.127178
    38  C    0.046317
    39  O   -0.187840
    40  C   -0.005500
    41  C    0.213238
    42  O   -0.258010
    43  O   -0.304521
    44  C    0.157787
    45  H   -0.017689
    46  H   -0.016620
    47  H   -0.041085
    48  H    0.001113
    49  H   -0.004542
    50  H    0.025654
    51  H    0.016762
    52  H    0.016653
    53  H    0.010391
    54  H    0.043297
    55  H    0.018673
    56  H    0.017662
    57  H    0.005491
    58  H    0.027079
    59  H    0.039197
    60  H    0.037185
    61  H    0.036282
    62  H    0.031527
    63  H    0.016549
    64  H    0.009710
    65  H    0.023350
    66  H    0.012616
    67  H    0.004928
    68  H    0.006367
    69  H    0.005094
    70  H    0.008448
    71  H    0.017855
    72  H    0.029236
    73  H    0.048421
    74  H    0.009390
    75  H    0.046126
    76  H    0.035333
    77  H    0.043566
    78  H    0.045849
    79  H    0.052971
    80  Mg   0.837895
    81  C   -0.016456
    82  C   -0.087885
    83  C   -0.045876
    84  C   -0.065179
    85  N   -0.254677
    86  C   -0.048639
    87  C   -0.015296
    88  C   -0.090890
    89  C    0.046223
    90  C    0.114382
    91  C    0.062565
    92  C   -0.077517
    93  H    0.034076
    94  N   -0.423386
    95  C    0.162865
    96  C   -0.175326
    97  C   -0.008306
    98  C    0.152054
    99  C    0.099794
   100  C    0.015073
   101  O   -0.253518
   102  C    0.061403
   103  N   -0.350042
   104  C    0.037544
   105  C   -0.019804
   106  C   -0.034697
   107  C    0.089175
   108  C    0.073704
   109  C    0.034797
   110  C   -0.007574
   111  N   -0.324281
   112  C    0.078943
   113  C   -0.163126
   114  C    0.002987
   115  C    0.096147
   116  C    0.131296
   117  C    0.042982
   118  O   -0.187266
   119  C    0.000565
   120  C    0.210957
   121  O   -0.251753
   122  O   -0.304709
   123  C    0.152293
   124  H   -0.020486
   125  H   -0.015979
   126  H   -0.040943
   127  H    0.001303
   128  H   -0.005632
   129  H    0.028198
   130  H    0.013605
   131  H    0.015334
   132  H    0.013272
   133  H    0.037421
   134  H    0.021418
   135  H    0.018821
   136  H    0.008290
   137  H    0.024680
   138  H    0.039247
   139  H    0.037395
   140  H    0.035882
   141  H    0.033802
   142  H    0.013987
   143  H    0.012121
   144  H    0.024945
   145  H    0.012140
   146  H    0.005642
   147  H    0.005979
   148  H    0.003322
   149  H    0.010786
   150  H    0.017574
   151  H    0.030290
   152  H    0.045850
   153  H    0.007883
   154  H    0.047606
   155  H    0.038459
   156  H    0.044138
   157  H    0.049152
   158  H    0.052977
 Sum of Mulliken charges =  -0.00000

 Dipole moment (field-independent basis, Debye):
    X=             -4.5909    Y=             -2.0736    Z=             -7.0993  Tot=              8.7050
 Quadrupole moment (field-independent basis, Debye-Ang):
   XX=           -518.1907   YY=           -547.6329   ZZ=           -452.0431
   XY=              0.7985   XZ=              0.1846   YZ=            -45.1655

 Normal termination of Gaussian 16 at Fri Sep 10 15:44:46 2021.
