 Gaussian 16, Revision A.03,
 Gaussian 16:  ES64L-G16RevA.03 25-Dec-2016

 -----------------------------------
 #p cam-b3lyp/Def2SVP td=(nstates=5)
 -----------------------------------

 --------------------------------
 TDDFT excited states in gaussian
 --------------------------------
 Symbolic Z-matrix:
 Charge =  0 Multiplicity = 1

                         Standard orientation:
 ---------------------------------------------------------------------
 Center     Atomic      Atomic             Coordinates (Angstroms)
 Number     Number       Type             X           Y           Z
 ---------------------------------------------------------------------
      1         12           0       -4.237123   -0.987982    0.308189
      2          6           0       -4.547649    1.917731    2.375221
      3          6           0       -5.425827    0.902798   -2.271539
      4          6           0       -4.402199   -3.642854   -1.418375
      5          6           0       -4.169292   -2.880718    3.233699
      6          7           0       -4.869681    1.130213    0.190864
      7          6           0       -4.883504    2.152851    1.040094
      8          6           0       -5.215833    3.515228    0.361226
      9          6           0       -6.006961    2.975045   -0.913261
     10          6           0       -5.372516    1.600205   -1.028232
     11          6           0       -7.504063    2.806751   -0.674799
     12          6           0       -3.927611    4.301886   -0.055167
     13          6           0       -4.149957    5.771739   -0.423200
     14          1           0       -3.125492    6.743995   -0.073144
     15          7           0       -4.356290   -1.238911   -1.647747
     16          6           0       -4.853173   -0.357445   -2.548530
     17          6           0       -4.721254   -1.007348   -3.870235
     18          6           0       -4.282733   -2.412644   -3.644542
     19          6           0       -4.355761   -2.496517   -2.208223
     20          6           0       -4.952652   -0.291867   -5.165724
     21          6           0       -3.874334   -3.509598   -4.576225
     22          8           0       -3.754005   -4.721879   -4.188319
     23          6           0       -3.702478   -3.138632   -5.992520
     24          7           0       -4.500678   -2.996245    0.813215
     25          6           0       -4.475647   -3.952018   -0.122123
     26          6           0       -4.400406   -5.317406    0.494313
     27          6           0       -4.133005   -5.085344    2.051361
     28          6           0       -4.185592   -3.537736    2.071748
     29          6           0       -5.642375   -6.201564    0.316018
     30          6           0       -2.896953   -5.789494    2.665175
     31          6           0       -1.630089   -5.190859    2.096151
     32          7           0       -4.160074   -0.577465    2.438115
     33          6           0       -4.162494   -1.517691    3.478616
     34          6           0       -4.210475   -0.761864    4.743721
     35          6           0       -4.249622    0.573797    4.348345
     36          6           0       -4.253996    0.646789    2.926043
     37          6           0       -4.271931   -1.324812    6.048998
     38          6           0       -4.313641    1.955476    4.796364
     39          8           0       -4.242250    2.516402    5.890785
     40          6           0       -4.632104    2.876378    3.536861
     41          6           0       -3.670861    4.033324    3.565082
     42          8           0       -2.448759    3.854169    3.386935
     43          8           0       -4.360394    5.184432    3.559142
     44          6           0       -3.465466    6.372393    3.556582
     45          1           0       -6.007308    1.329108   -3.091345
     46          1           0       -4.348663   -4.581420   -1.973953
     47          1           0       -4.065606   -3.400953    4.187668
     48          1           0       -5.859194    4.170684    0.948497
     49          1           0       -5.795151    3.565835   -1.804230
     50          1           0       -7.760707    2.963413    0.372823
     51          1           0       -7.733273    1.783810   -0.974043
     52          1           0       -8.077426    3.449980   -1.342848
     53          1           0       -3.568863    3.923215   -1.012230
     54          1           0       -3.166929    4.236299    0.723541
     55          1           0       -5.132111    6.119057   -0.101249
     56          1           0       -4.177321    5.851335   -1.509992
     57          1           0       -5.423720    0.677734   -5.009156
     58          1           0       -5.693884   -0.867717   -5.719512
     59          1           0       -4.039739   -0.204497   -5.755036
     60          1           0       -4.639240   -2.732067   -6.374270
     61          1           0       -3.322994   -4.028971   -6.492656
     62          1           0       -2.969068   -2.334613   -6.060436
     63          1           0       -3.577043   -5.892182    0.072257
     64          1           0       -4.966371   -5.428238    2.665037
     65          1           0       -5.434007   -7.157313   -0.165472
     66          1           0       -6.382588   -5.633388   -0.246610
     67          1           0       -6.186677   -6.415897    1.235373
     68          1           0       -2.896030   -6.847771    2.406342
     69          1           0       -2.853967   -5.713787    3.751762
     70          1           0       -1.506632   -5.729551    1.157322
     71          1           0       -0.788732   -5.374484    2.765189
     72          1           0       -1.762682   -4.136689    1.851956
     73          1           0       -3.578661   -0.749340    6.662330
     74          1           0       -4.006909   -2.381802    6.037242
     75          1           0       -5.321871   -1.160238    6.290655
     76          1           0       -5.666961    3.201336    3.639797
     77          1           0       -3.744016    6.985945    4.413435
     78          1           0       -3.547291    6.819860    2.565884
     79          1           0       -2.413182    6.183645    3.772017
     80         12           0        4.711308   -0.262171   -0.231029
     81          6           0        2.670856    1.878226   -2.264314
     82          6           0        6.856608    2.366278    0.120406
     83          6           0        6.747722   -2.241789    1.183752
     84          6           0        3.046136   -2.971641   -1.656398
     85          7           0        4.660737    1.804415   -1.017725
     86          6           0        3.804911    2.523337   -1.728398
     87          6           0        4.144368    4.036071   -1.805634
     88          6           0        5.723386    3.942640   -1.528421
     89          6           0        5.754433    2.642527   -0.727527
     90          6           0        6.545477    3.745477   -2.791203
     91          6           0        3.414498    4.869922   -0.694778
     92          6           0        3.453882    6.386051   -0.898604
     93          1           0        2.291463    7.172907   -0.495965
     94          7           0        6.269415    0.117679    0.937990
     95          6           0        7.010371    1.245291    0.965439
     96          6           0        8.049662    1.019148    1.981750
     97          6           0        7.962627   -0.395704    2.434907
     98          6           0        6.981991   -0.911758    1.501023
     99          6           0        8.945999    2.112506    2.486280
    100          6           0        8.657618   -1.161192    3.519901
    101          8           0        8.603675   -2.440270    3.582145
    102          6           0        9.479651   -0.376429    4.452583
    103          7           0        5.024342   -2.311564   -0.387057
    104          6           0        5.938667   -2.931591    0.379428
    105          6           0        5.795092   -4.432390    0.293584
    106          6           0        4.433297   -4.688721   -0.504785
    107          6           0        4.054414   -3.228169   -0.834375
    108          6           0        6.938718   -5.171427   -0.400921
    109          6           0        3.372438   -5.590027    0.184363
    110          6           0        2.820859   -4.894574    1.408082
    111          7           0        3.022476   -0.530105   -1.551666
    112          6           0        2.509109   -1.750377   -2.043068
    113          6           0        1.430835   -1.416736   -2.996203
    114          6           0        1.406960   -0.013994   -3.010672
    115          6           0        2.413701    0.491082   -2.144142
    116          6           0        0.663100   -2.352901   -3.744733
    117          6           0        0.766088    1.154380   -3.570031
    118          8           0       -0.208714    1.346842   -4.295606
    119          6           0        1.639719    2.431951   -3.208108
    120          6           0        0.712903    3.496073   -2.687365
    121          8           0        0.099042    3.331710   -1.618370
    122          8           0        0.869951    4.613980   -3.419494
    123          6           0       -0.020385    5.701928   -2.934217
    124          1           0        7.705193    3.050860    0.107909
    125          1           0        7.351068   -2.970255    1.730369
    126          1           0        2.413484   -3.760786   -2.068305
    127          1           0        3.962731    4.493688   -2.770709
    128          1           0        6.067292    4.774253   -0.918897
    129          1           0        5.921112    3.581873   -3.656964
    130          1           0        7.168083    2.880230   -2.604794
    131          1           0        7.231373    4.586153   -2.929572
    132          1           0        3.981019    4.791513    0.242052
    133          1           0        2.397899    4.546770   -0.581981
    134          1           0        3.768832    6.657466   -1.913543
    135          1           0        4.233230    6.802486   -0.255779
    136          1           0        8.889339    3.004637    1.850433
    137          1           0        9.976684    1.760568    2.369243
    138          1           0        8.770673    2.349297    3.537876
    139          1           0       10.246607    0.157533    3.896595
    140          1           0        9.822327   -1.085991    5.208223
    141          1           0        8.845847    0.383303    4.923439
    142          1           0        5.711367   -4.869974    1.280810
    143          1           0        4.613195   -5.191374   -1.466457
    144          1           0        7.406109   -5.947587    0.234054
    145          1           0        7.674646   -4.443284   -0.715141
    146          1           0        6.674074   -5.652830   -1.340827
    147          1           0        3.833190   -6.516702    0.535264
    148          1           0        2.550633   -5.865890   -0.467965
    149          1           0        3.565738   -5.120361    2.177005
    150          1           0        1.845950   -5.299474    1.671984
    151          1           0        2.808254   -3.807110    1.270575
    152          1           0       -0.365440   -2.020673   -3.697349
    153          1           0        0.774263   -3.361827   -3.352969
    154          1           0        1.125488   -2.241542   -4.729144
    155          1           0        2.153509    2.745812   -4.117547
    156          1           0       -0.617809    6.031435   -3.789890
    157          1           0        0.648496    6.450128   -2.468866
    158          1           0       -0.795447    5.436363   -2.224843
 ---------------------------------------------------------------------

 SCF Done:  E(RCAM-B3LYP) =  -4069.81334056     A.U. after   19 cycles

 Excitation energies and oscillator strengths:

 Excited State   1:      Singlet-A      1.6437 eV  754.31 nm  f=0.1634  <S**2>=0.000
     309 -> 315        0.12353
     310 -> 316       -0.10938
     311 -> 313        0.51055
     312 -> 314       -0.46003
 This state for optimization and/or second-order correction.
 Total Energy, E(TD-HF/TD-DFT) =  -4069.75293618
 Copying the excited state density for this state as the 1-particle RhoCI density.

 Excited State   2:      Singlet-A      1.7031 eV  728.00 nm  f=0.5790  <S**2>=0.000
     309 -> 315        0.12042
     310 -> 316        0.13352
     311 -> 313        0.45814
     312 -> 314        0.50827

 Excited State   3:      Singlet-A      2.1779 eV  569.29 nm  f=0.0078  <S**2>=0.000
     309 -> 313        0.53171
     310 -> 314        0.36645
     311 -> 315       -0.21974
     312 -> 316       -0.14953

 Excited State   4:      Singlet-A      2.1949 eV  564.87 nm  f=0.1632  <S**2>=0.000
     309 -> 313       -0.36212
     310 -> 314        0.52620
     311 -> 315        0.15845
     312 -> 316       -0.23044

 Excited State   5:      Singlet-A      2.2761 eV  544.72 nm  f=0.0000  <S**2>=0.000
     312 -> 313        0.70551

 The electronic state is 1-A.
 Alpha  occ. eigenvalues --  -46.87566 -46.87173 -19.26475 -19.25824 -19.19256
 Alpha  occ. eigenvalues --  -19.18629 -19.18486 -19.18325 -19.18148 -19.17649
 Alpha  occ. eigenvalues --  -14.42405 -14.41828 -14.41276 -14.40887 -14.39263
 Alpha  occ. eigenvalues --  -14.38787 -14.38523 -14.37990 -10.39160 -10.38550
 Alpha  occ. eigenvalues --  -10.35305 -10.34960 -10.34312 -10.33868 -10.31955
 Alpha  occ. eigenvalues --  -10.31322 -10.31245 -10.30942 -10.30800 -10.30324
 Alpha  occ. eigenvalues --  -10.30297 -10.30272 -10.30035 -10.29977 -10.29962
 Alpha  occ. eigenvalues --  -10.29821 -10.29666 -10.29434 -10.29341 -10.29333
 Alpha  occ. eigenvalues --  -10.29084 -10.28654 -10.28644 -10.28580 -10.28342
 Alpha  occ. eigenvalues --  -10.28166 -10.28123 -10.28074 -10.27943 -10.27751
 Alpha  occ. eigenvalues --  -10.27587 -10.27523 -10.27416 -10.27411 -10.27394
 Alpha  occ. eigenvalues --  -10.27375 -10.27285 -10.27208 -10.27138 -10.27112
 Alpha  occ. eigenvalues --  -10.27101 -10.27093 -10.27009 -10.26821 -10.26672
 Alpha  occ. eigenvalues --  -10.26630 -10.26560 -10.26312 -10.26007 -10.25988
 Alpha  occ. eigenvalues --  -10.25946 -10.25910 -10.25856 -10.25831 -10.25748
 Alpha  occ. eigenvalues --  -10.25734 -10.25473 -10.25391 -10.25322 -10.25122
 Alpha  occ. eigenvalues --  -10.24827 -10.24616 -10.24592 -10.24543 -10.24261
 Alpha  occ. eigenvalues --  -10.24256  -3.16314  -3.15911  -1.91195  -1.90792
 Alpha  occ. eigenvalues --   -1.90785  -1.90622  -1.90380  -1.90223  -1.16759
 Alpha  occ. eigenvalues --   -1.16158  -1.08760  -1.08116  -1.07032  -1.06880
 Alpha  occ. eigenvalues --   -1.06742  -1.06118  -1.04413  -1.03964  -1.03581
 Alpha  occ. eigenvalues --   -1.03196  -1.02958  -1.02650  -1.02036  -1.01834
 Alpha  occ. eigenvalues --   -0.91950  -0.91404  -0.89408  -0.89085  -0.89075
 Alpha  occ. eigenvalues --   -0.88585  -0.88129  -0.87854  -0.87719  -0.87598
 Alpha  occ. eigenvalues --   -0.87329  -0.87073  -0.87036  -0.86653  -0.84923
 Alpha  occ. eigenvalues --   -0.84415  -0.83797  -0.83565  -0.82845  -0.82593
 Alpha  occ. eigenvalues --   -0.82437  -0.82107  -0.81610  -0.81094  -0.80408
 Alpha  occ. eigenvalues --   -0.80061  -0.78556  -0.78196  -0.77064  -0.76864
 Alpha  occ. eigenvalues --   -0.76727  -0.76442  -0.75813  -0.75401  -0.74741
 Alpha  occ. eigenvalues --   -0.74461  -0.72621  -0.72232  -0.71524  -0.71151
 Alpha  occ. eigenvalues --   -0.69659  -0.69557  -0.68761  -0.68326  -0.67546
 Alpha  occ. eigenvalues --   -0.67111  -0.67100  -0.66635  -0.65217  -0.64723
 Alpha  occ. eigenvalues --   -0.64709  -0.64608  -0.64326  -0.64132  -0.64117
 Alpha  occ. eigenvalues --   -0.63792  -0.62304  -0.61815  -0.60259  -0.59884
 Alpha  occ. eigenvalues --   -0.59722  -0.59209  -0.58932  -0.58455  -0.58384
 Alpha  occ. eigenvalues --   -0.57969  -0.57579  -0.57175  -0.57058  -0.56814
 Alpha  occ. eigenvalues --   -0.56148  -0.55907  -0.55756  -0.55484  -0.55413
 Alpha  occ. eigenvalues --   -0.55208  -0.54991  -0.54917  -0.54464  -0.54090
 Alpha  occ. eigenvalues --   -0.53837  -0.53302  -0.53158  -0.53102  -0.52860
 Alpha  occ. eigenvalues --   -0.52791  -0.52659  -0.52587  -0.52408  -0.52294
 Alpha  occ. eigenvalues --   -0.52193  -0.52072  -0.51804  -0.51584  -0.51418
 Alpha  occ. eigenvalues --   -0.51174  -0.51015  -0.50693  -0.50382  -0.49965
 Alpha  occ. eigenvalues --   -0.49898  -0.49790  -0.49566  -0.49421  -0.49344
 Alpha  occ. eigenvalues --   -0.49166  -0.49084  -0.48969  -0.48667  -0.48580
 Alpha  occ. eigenvalues --   -0.48531  -0.48351  -0.48263  -0.48115  -0.48000
 Alpha  occ. eigenvalues --   -0.47908  -0.47541  -0.47170  -0.47051  -0.46749
 Alpha  occ. eigenvalues --   -0.46635  -0.46485  -0.46301  -0.46207  -0.46033
 Alpha  occ. eigenvalues --   -0.45999  -0.45821  -0.45793  -0.45674  -0.45347
 Alpha  occ. eigenvalues --   -0.45141  -0.44781  -0.44488  -0.44400  -0.44118
 Alpha  occ. eigenvalues --   -0.44091  -0.44009  -0.43993  -0.43885  -0.43674
 Alpha  occ. eigenvalues --   -0.43587  -0.43557  -0.43475  -0.43324  -0.43011
 Alpha  occ. eigenvalues --   -0.42972  -0.42868  -0.42848  -0.42543  -0.42457
 Alpha  occ. eigenvalues --   -0.42277  -0.42218  -0.41880  -0.41650  -0.41563
 Alpha  occ. eigenvalues --   -0.41379  -0.41181  -0.41015  -0.40932  -0.40637
 Alpha  occ. eigenvalues --   -0.40628  -0.40610  -0.40409  -0.40397  -0.40301
 Alpha  occ. eigenvalues --   -0.40127  -0.40122  -0.39580  -0.39327  -0.39103
 Alpha  occ. eigenvalues --   -0.38257  -0.38039  -0.37574  -0.37207  -0.37184
 Alpha  occ. eigenvalues --   -0.37125  -0.36835  -0.36822  -0.36670  -0.36234
 Alpha  occ. eigenvalues --   -0.36158  -0.35692  -0.34183  -0.33903  -0.33710
 Alpha  occ. eigenvalues --   -0.33223  -0.33104  -0.32611  -0.31188  -0.30900
 Alpha  occ. eigenvalues --   -0.30859  -0.30470  -0.30050  -0.29512  -0.29261
 Alpha  occ. eigenvalues --   -0.29159  -0.28857  -0.28740  -0.23956  -0.23489
 Alpha  occ. eigenvalues --   -0.21039  -0.20544
 Alpha virt. eigenvalues --   -0.08724  -0.08186  -0.01596  -0.01193   0.00038
 Alpha virt. eigenvalues --    0.00514   0.02217   0.02720   0.03259   0.04072
 Alpha virt. eigenvalues --    0.04798   0.05082   0.05236   0.05625   0.06099

 Mulliken charges:
               1
     1  Mg   0.844431
     2  C   -0.000114
     3  C   -0.087778
     4  C   -0.048892
     5  C   -0.065468
     6  N   -0.256747
     7  C   -0.049283
     8  C   -0.016837
     9  C   -0.088818
    10  C    0.050208
    11  C    0.105213
    12  C    0.054954
    13  C   -0.072561
    14  H    0.029691
    15  N   -0.433144
    16  C    0.174223
    17  C   -0.170462
    18  C   -0.005891
    19  C    0.147676
    20  C    0.110590
    21  C    0.009922
    22  O   -0.253227
    23  C    0.061449
    24  N   -0.341182
    25  C    0.041747
    26  C   -0.027897
    27  C   -0.023832
    28  C    0.074073
    29  C    0.076681
    30  C    0.038670
    31  C   -0.014362
    32  N   -0.310126
    33  C    0.079977
    34  C   -0.171198
    35  C    0.007358
    36  C    0.083222
    37  C    0.127604
    38  C    0.045650
    39  O   -0.190893
    40  C   -0.005911
    41  C    0.211849
    42  O   -0.254256
    43  O   -0.305403
    44  C    0.158934
    45  H   -0.018695
    46  H   -0.019264
    47  H   -0.043615
    48  H   -0.001523
    49  H   -0.003850
    50  H    0.024517
    51  H    0.015884
    52  H    0.015142
    53  H    0.021645
    54  H    0.049710
    55  H    0.016560
    56  H    0.014958
    57  H    0.005480
    58  H    0.023090
    59  H    0.050128
    60  H    0.036994
    61  H    0.032532
    62  H    0.037536
    63  H    0.013914
    64  H    0.008693
    65  H    0.021646
    66  H    0.012834
    67  H    0.004038
    68  H    0.004406
    69  H    0.003858
    70  H    0.006407
    71  H    0.023911
    72  H    0.032595
    73  H    0.046267
    74  H    0.007830
    75  H    0.044714
    76  H    0.033764
    77  H    0.041079
    78  H    0.045452
    79  H    0.052932
    80  Mg   0.840552
    81  C   -0.015854
    82  C   -0.087658
    83  C   -0.045298
    84  C   -0.064996
    85  N   -0.254781
    86  C   -0.048983
    87  C   -0.015891
    88  C   -0.090679
    89  C    0.046678
    90  C    0.114492
    91  C    0.062199
    92  C   -0.077579
    93  H    0.034156
    94  N   -0.423433
    95  C    0.163932
    96  C   -0.174367
    97  C   -0.007372
    98  C    0.152548
    99  C    0.099408
   100  C    0.016031
   101  O   -0.253143
   102  C    0.060924
   103  N   -0.350086
   104  C    0.037738
   105  C   -0.020037
   106  C   -0.034036
   107  C    0.088665
   108  C    0.073749
   109  C    0.033751
   110  C   -0.009996
   111  N   -0.323760
   112  C    0.077586
   113  C   -0.163013
   114  C   -0.000275
   115  C    0.096843
   116  C    0.128083
   117  C    0.042882
   118  O   -0.194033
   119  C    0.000950
   120  C    0.209219
   121  O   -0.247612
   122  O   -0.305691
   123  C    0.152083
   124  H   -0.019846
   125  H   -0.015544
   126  H   -0.039138
   127  H   -0.001843
   128  H   -0.004104
   129  H    0.021830
   130  H    0.014389
   131  H    0.016025
   132  H    0.015676
   133  H    0.040263
   134  H    0.019528
   135  H    0.019875
   136  H    0.008763
   137  H    0.025927
   138  H    0.040629
   139  H    0.037994
   140  H    0.036435
   141  H    0.034740
   142  H    0.014548
   143  H    0.012524
   144  H    0.024978
   145  H    0.011376
   146  H    0.005660
   147  H    0.005465
   148  H    0.004769
   149  H    0.010062
   150  H    0.019322
   151  H    0.030853
   152  H    0.046665
   153  H    0.014178
   154  H    0.044377
   155  H    0.034062
   156  H    0.040823
   157  H    0.050720
   158  H    0.052714
 Sum of Mulliken charges =  -0.00000

 Dipole moment (field-independent basis, Debye):
    X=              1.9292    Y=              3.1313    Z=             -3.7705  Tot=              5.2673
 Quadrupole moment (field-independent basis, Debye-Ang):
   XX=           -475.6218   YY=           -466.2894   ZZ=           -532.1288
   XY=             20.3708   XZ=              9.4454   YZ=            -22.9312

 Normal termination of Gaussian 16 at Thu Sep  9 20:21:12 2021.
