 Gaussian 16, Revision A.03,
 Gaussian 16:  ES64L-G16RevA.03 25-Dec-2016

 -----------------------------------
 #p cam-b3lyp/Def2SVP td=(nstates=5)
 -----------------------------------

 --------------------------------
 TDDFT excited states in gaussian
 --------------------------------
 Symbolic Z-matrix:
 Charge =  0 Multiplicity = 1

                         Standard orientation:
 ---------------------------------------------------------------------
 Center     Atomic      Atomic             Coordinates (Angstroms)
 Number     Number       Type             X           Y           Z
 ---------------------------------------------------------------------
      1         12           0        5.153920   -0.605946    0.505349
      2          6           0        5.684030    2.170747   -1.690368
      3          6           0        6.222667    1.396105    3.053415
      4          6           0        5.127940   -3.163222    2.380526
      5          6           0        5.225992   -2.657311   -2.311097
      6          7           0        5.837786    1.499038    0.550273
      7          6           0        5.937213    2.471831   -0.350259
      8          6           0        6.262723    3.861374    0.274713
      9          6           0        6.951778    3.373848    1.627310
     10          6           0        6.271942    2.023880    1.773375
     11          6           0        8.455955    3.155126    1.500369
     12          6           0        4.972813    4.702047    0.559549
     13          6           0        5.212321    6.184197    0.861575
     14          1           0        4.241627    7.160596    0.390675
     15          7           0        5.135875   -0.749808    2.475584
     16          6           0        5.597003    0.168051    3.358863
     17          6           0        5.359145   -0.403293    4.701871
     18          6           0        4.896439   -1.807635    4.523491
     19          6           0        5.062118   -1.973636    3.102093
     20          6           0        5.524548    0.377636    5.969366
     21          6           0        4.395868   -2.840133    5.483443
     22          8           0        4.266814   -4.068857    5.154571
     23          6           0        4.141180   -2.386233    6.862628
     24          7           0        5.392689   -2.645301    0.128979
     25          6           0        5.278290   -3.546252    1.110908
     26          6           0        5.204970   -4.941723    0.565725
     27          6           0        5.048175   -4.790646   -1.016154
     28          6           0        5.146355   -3.248407   -1.116806
     29          6           0        6.406515   -5.845244    0.875483
     30          6           0        3.835866   -5.496989   -1.673273
     31          6           0        2.551745   -4.835968   -1.224740
     32          7           0        5.230088   -0.313595   -1.644017
     33          6           0        5.274539   -1.310400   -2.629450
     34          6           0        5.427961   -0.628065   -3.927506
     35          6           0        5.479088    0.726253   -3.603384
     36          6           0        5.391227    0.878675   -2.190111
     37          6           0        5.559672   -1.264609   -5.193167
     38          6           0        5.612271    2.078635   -4.120281
     39          8           0        5.629726    2.578978   -5.245823
     40          6           0        5.872787    3.060407   -2.893871
     41          6           0        4.949103    4.237598   -3.049879
     42          8           0        3.713244    4.099278   -2.945544
     43          8           0        5.669450    5.369653   -3.059625
     44          6           0        4.810756    6.577868   -3.182154
     45          1           0        6.760489    1.853016    3.886433
     46          1           0        5.010788   -4.067560    2.981263
     47          1           0        5.170919   -3.227417   -3.240290
     48          1           0        6.962142    4.466631   -0.302262
     49          1           0        6.698379    4.018726    2.468525
     50          1           0        8.785892    3.246398    0.465607
     51          1           0        8.635388    2.145150    1.869484
     52          1           0        9.001963    3.820250    2.169893
     53          1           0        4.540678    4.386662    1.509208
     54          1           0        4.263876    4.611956   -0.264234
     55          1           0        6.223218    6.488299    0.588594
     56          1           0        5.169828    6.323842    1.941804
     57          1           0        6.032571    1.324877    5.792756
     58          1           0        6.210606   -0.184618    6.602536
     59          1           0        4.577447    0.520651    6.489826
     60          1           0        5.061837   -1.982442    7.284402
     61          1           0        3.703991   -3.237403    7.383421
     62          1           0        3.428239   -1.561609    6.836975
     63          1           0        4.339288   -5.471212    0.961531
     64          1           0        5.910226   -5.188083   -1.552425
     65          1           0        6.139357   -6.767017    1.392848
     66          1           0        7.123778   -5.265104    1.455365
     67          1           0        7.004215   -6.124267    0.008121
     68          1           0        3.787434   -6.538751   -1.358102
     69          1           0        3.867219   -5.481221   -2.762777
     70          1           0        2.350906   -5.317970   -0.268618
     71          1           0        1.751687   -5.035716   -1.938337
     72          1           0        2.698026   -3.773414   -1.029631
     73          1           0        4.925387   -0.707266   -5.882385
     74          1           0        5.264252   -2.312332   -5.142115
     75          1           0        6.627612   -1.140101   -5.371654
     76          1           0        6.921084    3.353144   -2.943879
     77          1           0        5.162993    7.135309   -4.050153
     78          1           0        4.839502    7.077948   -2.213909
     79          1           0        3.770096    6.403685   -3.457882
     80         12           0       -5.358844    0.530354    0.388857
     81          6           0       -5.046151   -1.762773   -2.353921
     82          6           0       -5.852687   -2.178222    2.402395
     83          6           0       -6.084867    2.534480    2.739138
     84          6           0       -5.977994    3.033538   -1.955585
     85          7           0       -5.418537   -1.639161   -0.037649
     86          6           0       -5.225095   -2.396775   -1.106734
     87          6           0       -5.143238   -3.918324   -0.810524
     88          6           0       -5.969133   -3.939989    0.566537
     89          6           0       -5.706672   -2.509045    1.031504
     90          6           0       -7.466045   -4.110685    0.367901
     91          6           0       -3.667150   -4.408270   -0.602810
     92          6           0       -3.485929   -5.927712   -0.616759
     93          1           0       -2.264383   -6.477673   -1.198017
     94          7           0       -5.406212    0.244085    2.352117
     95          6           0       -5.594089   -0.924946    2.999684
     96          6           0       -5.564728   -0.599566    4.434059
     97          6           0       -5.508913    0.880570    4.578239
     98          6           0       -5.689432    1.286774    3.198925
     99          6           0       -5.509842   -1.649398    5.505637
    100          6           0       -5.336126    1.781653    5.763309
    101          8           0       -5.556289    3.042123    5.688562
    102          6           0       -4.992245    1.131752    7.036437
    103          7           0       -6.153998    2.451202    0.408762
    104          6           0       -6.320603    3.118524    1.564126
    105          6           0       -6.644237    4.571964    1.312796
    106          6           0       -6.421255    4.796927   -0.254767
    107          6           0       -6.078487    3.349879   -0.671840
    108          6           0       -8.056634    5.014606    1.694357
    109          6           0       -5.450596    5.935799   -0.671248
    110          6           0       -4.037947    5.585066   -0.262841
    111          7           0       -5.313034    0.689555   -1.765344
    112          6           0       -5.632380    1.823612   -2.543825
    113          6           0       -5.565298    1.411803   -3.960985
    114          6           0       -5.231433    0.050123   -3.907639
    115          6           0       -5.119542   -0.362798   -2.552476
    116          6           0       -5.844293    2.242429   -5.082742
    117          6           0       -4.958650   -1.134410   -4.689413
    118          8           0       -4.823804   -1.371415   -5.889155
    119          6           0       -4.950634   -2.391265   -3.716450
    120          6           0       -3.727695   -3.210486   -4.025984
    121          8           0       -2.590604   -2.753476   -3.814361
    122          8           0       -4.102472   -4.470294   -4.313726
    123          6           0       -2.923227   -5.324253   -4.616941
    124          1           0       -6.242495   -2.937700    3.080716
    125          1           0       -6.239825    3.293482    3.509450
    126          1           0       -6.061748    3.779405   -2.748899
    127          1           0       -5.627806   -4.550756   -1.544696
    128          1           0       -5.546266   -4.652960    1.269552
    129          1           0       -7.741151   -4.070621   -0.675576
    130          1           0       -7.929572   -3.298743    0.912823
    131          1           0       -7.807764   -5.031049    0.850085
    132          1           0       -3.359821   -4.191855    0.428433
    133          1           0       -3.011761   -3.959546   -1.323734
    134          1           0       -4.367544   -6.444339   -1.015236
    135          1           0       -3.413854   -6.278088    0.415746
    136          1           0       -5.730677   -2.646051    5.104006
    137          1           0       -6.335786   -1.445479    6.195638
    138          1           0       -4.571111   -1.633210    6.063475
    139          1           0       -5.763975    0.410074    7.293519
    140          1           0       -4.823157    1.945909    7.743846
    141          1           0       -4.064258    0.565200    6.900565
    142          1           0       -5.969448    5.218650    1.860110
    143          1           0       -7.359349    5.057617   -0.766482
    144          1           0       -8.071246    5.853777    2.415228
    145          1           0       -8.585665    4.160047    2.094834
    146          1           0       -8.690191    5.307837    0.859004
    147          1           0       -5.704659    6.860472   -0.147230
    148          1           0       -5.469550    6.152360   -1.734135
    149          1           0       -4.002142    5.888828    0.787653
    150          1           0       -3.317497    6.141165   -0.859290
    151          1           0       -3.875516    4.501549   -0.298388
    152          1           0       -5.075434    2.042395   -5.817144
    153          1           0       -5.864666    3.293843   -4.803643
    154          1           0       -6.835146    1.871624   -5.358362
    155          1           0       -5.871769   -2.948004   -3.892882
    156          1           0       -3.092375   -5.763442   -5.604959
    157          1           0       -2.832988   -6.022805   -3.763930
    158          1           0       -1.970832   -4.829047   -4.765863
 ---------------------------------------------------------------------

 SCF Done:  E(RCAM-B3LYP) =  -4069.81135373     A.U. after   19 cycles

 Excitation energies and oscillator strengths:

 Excited State   1:      Singlet-A      1.6565 eV  748.47 nm  f=0.0050  <S**2>=0.000
     309 -> 316       -0.12464
     310 -> 315        0.11370
     311 -> 313        0.50870
     312 -> 314        0.46197
 This state for optimization and/or second-order correction.
 Total Energy, E(TD-HF/TD-DFT) =  -4069.75047869
 Copying the excited state density for this state as the 1-particle RhoCI density.

 Excited State   2:      Singlet-A      1.6959 eV  731.09 nm  f=0.7177  <S**2>=0.000
     309 -> 316        0.11989
     310 -> 315        0.13261
     311 -> 313       -0.46038
     312 -> 314        0.50679

 Excited State   3:      Singlet-A      2.1828 eV  568.01 nm  f=0.0236  <S**2>=0.000
     309 -> 313        0.57108
     310 -> 314        0.29677
     311 -> 316        0.24019
     312 -> 315       -0.12420

 Excited State   4:      Singlet-A      2.1928 eV  565.42 nm  f=0.1603  <S**2>=0.000
     309 -> 313       -0.29421
     310 -> 314        0.56778
     311 -> 316       -0.12883
     312 -> 315       -0.24819

 Excited State   5:      Singlet-A      2.5705 eV  482.34 nm  f=0.0000  <S**2>=0.000
     312 -> 313        0.70709

 The electronic state is 1-A.
 Alpha  occ. eigenvalues --  -46.87609 -46.87521 -19.26260 -19.26094 -19.19040
 Alpha  occ. eigenvalues --  -19.18808 -19.18713 -19.18632 -19.17966 -19.17907
 Alpha  occ. eigenvalues --  -14.42365 -14.42269 -14.41272 -14.41223 -14.39226
 Alpha  occ. eigenvalues --  -14.39220 -14.38453 -14.38386 -10.38971 -10.38872
 Alpha  occ. eigenvalues --  -10.35352 -10.35313 -10.34185 -10.34085 -10.31716
 Alpha  occ. eigenvalues --  -10.31510 -10.31211 -10.31168 -10.30905 -10.30745
 Alpha  occ. eigenvalues --  -10.30371 -10.30322 -10.30260 -10.30214 -10.30049
 Alpha  occ. eigenvalues --  -10.30016 -10.29755 -10.29737 -10.29447 -10.29308
 Alpha  occ. eigenvalues --  -10.29265 -10.29083 -10.28608 -10.28583 -10.28578
 Alpha  occ. eigenvalues --  -10.28385 -10.28272 -10.28185 -10.28023 -10.27950
 Alpha  occ. eigenvalues --  -10.27862 -10.27606 -10.27548 -10.27536 -10.27415
 Alpha  occ. eigenvalues --  -10.27389 -10.27361 -10.27353 -10.27351 -10.27350
 Alpha  occ. eigenvalues --  -10.27339 -10.27313 -10.27258 -10.27222 -10.26966
 Alpha  occ. eigenvalues --  -10.26925 -10.26583 -10.26535 -10.26378 -10.26366
 Alpha  occ. eigenvalues --  -10.26082 -10.26024 -10.25987 -10.25921 -10.25832
 Alpha  occ. eigenvalues --  -10.25792 -10.25667 -10.25593 -10.25328 -10.25303
 Alpha  occ. eigenvalues --  -10.24730 -10.24637 -10.24619 -10.24560 -10.24543
 Alpha  occ. eigenvalues --  -10.24469  -3.16351  -3.16270  -1.91232  -1.91152
 Alpha  occ. eigenvalues --   -1.90819  -1.90741  -1.90661  -1.90578  -1.16548
 Alpha  occ. eigenvalues --   -1.16439  -1.08513  -1.08419  -1.07120  -1.06888
 Alpha  occ. eigenvalues --   -1.06827  -1.06433  -1.04401  -1.04364  -1.03584
 Alpha  occ. eigenvalues --   -1.03530  -1.03049  -1.02902  -1.02228  -1.01973
 Alpha  occ. eigenvalues --   -0.91854  -0.91785  -0.89357  -0.89347  -0.89034
 Alpha  occ. eigenvalues --   -0.89018  -0.88125  -0.88089  -0.87661  -0.87641
 Alpha  occ. eigenvalues --   -0.87553  -0.87497  -0.87130  -0.87012  -0.84884
 Alpha  occ. eigenvalues --   -0.84816  -0.83770  -0.83743  -0.82854  -0.82840
 Alpha  occ. eigenvalues --   -0.82545  -0.82490  -0.81486  -0.81403  -0.80426
 Alpha  occ. eigenvalues --   -0.80329  -0.78632  -0.78510  -0.77045  -0.77020
 Alpha  occ. eigenvalues --   -0.76785  -0.76764  -0.75749  -0.75725  -0.74741
 Alpha  occ. eigenvalues --   -0.74683  -0.72588  -0.72560  -0.71504  -0.71459
 Alpha  occ. eigenvalues --   -0.69735  -0.69614  -0.68712  -0.68708  -0.67479
 Alpha  occ. eigenvalues --   -0.67473  -0.67096  -0.67065  -0.65153  -0.65112
 Alpha  occ. eigenvalues --   -0.64673  -0.64642  -0.64537  -0.64449  -0.64099
 Alpha  occ. eigenvalues --   -0.64072  -0.62170  -0.62115  -0.60293  -0.60224
 Alpha  occ. eigenvalues --   -0.59673  -0.59630  -0.58863  -0.58810  -0.58327
 Alpha  occ. eigenvalues --   -0.58298  -0.57427  -0.57390  -0.57143  -0.57113
 Alpha  occ. eigenvalues --   -0.56134  -0.56076  -0.55802  -0.55786  -0.55368
 Alpha  occ. eigenvalues --   -0.55349  -0.55167  -0.55122  -0.54366  -0.54346
 Alpha  occ. eigenvalues --   -0.53798  -0.53726  -0.53146  -0.53111  -0.53059
 Alpha  occ. eigenvalues --   -0.53029  -0.52785  -0.52741  -0.52622  -0.52579
 Alpha  occ. eigenvalues --   -0.52262  -0.52251  -0.51720  -0.51690  -0.51552
 Alpha  occ. eigenvalues --   -0.51455  -0.51070  -0.51011  -0.50461  -0.50383
 Alpha  occ. eigenvalues --   -0.49875  -0.49868  -0.49783  -0.49743  -0.49385
 Alpha  occ. eigenvalues --   -0.49363  -0.49085  -0.49041  -0.48982  -0.48926
 Alpha  occ. eigenvalues --   -0.48439  -0.48412  -0.48330  -0.48283  -0.48255
 Alpha  occ. eigenvalues --   -0.48240  -0.47537  -0.47482  -0.47141  -0.47006
 Alpha  occ. eigenvalues --   -0.46618  -0.46579  -0.46442  -0.46391  -0.46182
 Alpha  occ. eigenvalues --   -0.46141  -0.45978  -0.45956  -0.45693  -0.45623
 Alpha  occ. eigenvalues --   -0.45086  -0.45045  -0.44403  -0.44398  -0.44352
 Alpha  occ. eigenvalues --   -0.44348  -0.44014  -0.43977  -0.43949  -0.43931
 Alpha  occ. eigenvalues --   -0.43846  -0.43835  -0.43444  -0.43309  -0.43268
 Alpha  occ. eigenvalues --   -0.43221  -0.42850  -0.42824  -0.42773  -0.42523
 Alpha  occ. eigenvalues --   -0.42473  -0.42421  -0.41829  -0.41827  -0.41538
 Alpha  occ. eigenvalues --   -0.41527  -0.41368  -0.41340  -0.40976  -0.40868
 Alpha  occ. eigenvalues --   -0.40726  -0.40687  -0.40632  -0.40584  -0.40407
 Alpha  occ. eigenvalues --   -0.40362  -0.40126  -0.40076  -0.39279  -0.39268
 Alpha  occ. eigenvalues --   -0.38310  -0.38226  -0.37580  -0.37548  -0.37153
 Alpha  occ. eigenvalues --   -0.37136  -0.37088  -0.37076  -0.36659  -0.36525
 Alpha  occ. eigenvalues --   -0.36092  -0.36013  -0.34116  -0.34100  -0.33737
 Alpha  occ. eigenvalues --   -0.33563  -0.33040  -0.33000  -0.31243  -0.31190
 Alpha  occ. eigenvalues --   -0.30860  -0.30844  -0.29823  -0.29811  -0.29281
 Alpha  occ. eigenvalues --   -0.29202  -0.29120  -0.29064  -0.23900  -0.23896
 Alpha  occ. eigenvalues --   -0.20982  -0.20945
 Alpha virt. eigenvalues --   -0.08659  -0.08596  -0.01578  -0.01555   0.00083
 Alpha virt. eigenvalues --    0.00091   0.02347   0.02393   0.03298   0.03485
 Alpha virt. eigenvalues --    0.04823   0.04891   0.05282   0.05301   0.06155

 Mulliken charges:
               1
     1  Mg   0.839982
     2  C   -0.002763
     3  C   -0.094218
     4  C   -0.046196
     5  C   -0.062943
     6  N   -0.256699
     7  C   -0.052286
     8  C   -0.014061
     9  C   -0.086958
    10  C    0.046173
    11  C    0.104918
    12  C    0.053488
    13  C   -0.071577
    14  H    0.035808
    15  N   -0.432877
    16  C    0.168127
    17  C   -0.177574
    18  C   -0.004669
    19  C    0.148516
    20  C    0.110297
    21  C    0.011535
    22  O   -0.250790
    23  C    0.062795
    24  N   -0.341210
    25  C    0.041207
    26  C   -0.027819
    27  C   -0.023992
    28  C    0.075192
    29  C    0.076402
    30  C    0.034978
    31  C   -0.004200
    32  N   -0.310975
    33  C    0.081842
    34  C   -0.167553
    35  C    0.008656
    36  C    0.084213
    37  C    0.127009
    38  C    0.047130
    39  O   -0.187847
    40  C   -0.005790
    41  C    0.212808
    42  O   -0.255977
    43  O   -0.305048
    44  C    0.157799
    45  H   -0.018106
    46  H   -0.017803
    47  H   -0.041097
    48  H    0.000763
    49  H   -0.004246
    50  H    0.025308
    51  H    0.016273
    52  H    0.016258
    53  H    0.011393
    54  H    0.044544
    55  H    0.017609
    56  H    0.017860
    57  H    0.005832
    58  H    0.026166
    59  H    0.038820
    60  H    0.037508
    61  H    0.034214
    62  H    0.030873
    63  H    0.015641
    64  H    0.009081
    65  H    0.022268
    66  H    0.012452
    67  H    0.004476
    68  H    0.004548
    69  H    0.005014
    70  H    0.006348
    71  H    0.019650
    72  H    0.031763
    73  H    0.049569
    74  H    0.009611
    75  H    0.045286
    76  H    0.034757
    77  H    0.042652
    78  H    0.046023
    79  H    0.053789
    80  Mg   0.838797
    81  C   -0.016683
    82  C   -0.087670
    83  C   -0.045689
    84  C   -0.064471
    85  N   -0.254537
    86  C   -0.049696
    87  C   -0.015238
    88  C   -0.090544
    89  C    0.045676
    90  C    0.114438
    91  C    0.062358
    92  C   -0.077260
    93  H    0.033198
    94  N   -0.423331
    95  C    0.162748
    96  C   -0.174910
    97  C   -0.008279
    98  C    0.152016
    99  C    0.099504
   100  C    0.015042
   101  O   -0.253819
   102  C    0.061460
   103  N   -0.350143
   104  C    0.037517
   105  C   -0.019655
   106  C   -0.034905
   107  C    0.089213
   108  C    0.073850
   109  C    0.034701
   110  C   -0.007610
   111  N   -0.324448
   112  C    0.079345
   113  C   -0.161714
   114  C    0.002491
   115  C    0.097176
   116  C    0.131212
   117  C    0.043326
   118  O   -0.187480
   119  C    0.000458
   120  C    0.211185
   121  O   -0.249990
   122  O   -0.305673
   123  C    0.152321
   124  H   -0.019979
   125  H   -0.016125
   126  H   -0.040061
   127  H   -0.000934
   128  H   -0.004284
   129  H    0.022269
   130  H    0.014337
   131  H    0.015997
   132  H    0.014719
   133  H    0.037851
   134  H    0.020554
   135  H    0.020143
   136  H    0.008891
   137  H    0.025608
   138  H    0.039385
   139  H    0.038340
   140  H    0.035418
   141  H    0.033301
   142  H    0.014034
   143  H    0.012154
   144  H    0.024589
   145  H    0.011439
   146  H    0.005470
   147  H    0.005461
   148  H    0.004048
   149  H    0.009748
   150  H    0.019186
   151  H    0.031317
   152  H    0.047486
   153  H    0.008918
   154  H    0.046396
   155  H    0.034683
   156  H    0.043737
   157  H    0.048847
   158  H    0.052816
 Sum of Mulliken charges =  -0.00000

 Dipole moment (field-independent basis, Debye):
    X=              0.3545    Y=             -1.2228    Z=              6.7946  Tot=              6.9129
 Quadrupole moment (field-independent basis, Debye-Ang):
   XX=           -478.2431   YY=           -462.3017   ZZ=           -538.8016
   XY=             19.1101   XZ=             12.1938   YZ=              9.3667

 Normal termination of Gaussian 16 at Fri Sep 10 14:19:59 2021.
