 Gaussian 16, Revision A.03,
 Gaussian 16:  ES64L-G16RevA.03 25-Dec-2016

 -----------------------------------
 #p cam-b3lyp/Def2SVP td=(nstates=5)
 -----------------------------------

 --------------------------------
 TDDFT excited states in gaussian
 --------------------------------
 Symbolic Z-matrix:
 Charge =  0 Multiplicity = 1

                         Standard orientation:
 ---------------------------------------------------------------------
 Center     Atomic      Atomic             Coordinates (Angstroms)
 Number     Number       Type             X           Y           Z
 ---------------------------------------------------------------------
      1         12           0       -7.601540    0.703342   -0.190518
      2          6           0       -7.940119   -2.380206    1.595345
      3          6           0       -8.495601    2.297991    2.690595
      4          6           0       -7.751869    3.397466   -1.856567
      5          6           0       -7.850990   -1.144992   -3.134512
      6          7           0       -8.125074   -0.054378    1.822544
      7          6           0       -8.158747   -1.254692    2.392881
      8          6           0       -8.373787   -1.200142    3.935008
      9          6           0       -9.086131    0.222394    4.039674
     10          6           0       -8.508343    0.875435    2.796444
     11          6           0      -10.603493    0.155745    3.899418
     12          6           0       -7.022072   -1.223479    4.724978
     13          6           0       -7.147113   -1.501287    6.225825
     14          1           0       -6.109850   -2.282728    6.882165
     15          7           0       -7.577831    2.584869    0.411265
     16          6           0       -7.961343    3.052274    1.623592
     17          6           0       -7.755793    4.516005    1.579734
     18          6           0       -7.401315    4.883994    0.180798
     19          6           0       -7.590895    3.624172   -0.491724
     20          6           0       -7.851482    5.396886    2.787476
     21          6           0       -6.971629    6.169843   -0.451732
     22          8           0       -6.937929    6.325939   -1.720224
     23          6           0       -6.672038    7.284883    0.464768
     24          7           0       -7.995857    1.110418   -2.199607
     25          6           0       -7.941181    2.359725   -2.674187
     26          6           0       -7.977386    2.376277   -4.173638
     27          6           0       -7.822958    0.855822   -4.636369
     28          6           0       -7.805939    0.184958   -3.240689
     29          6           0       -9.240723    2.976371   -4.805998
     30          6           0       -6.672638    0.534503   -5.623252
     31          6           0       -5.338808    0.729925   -4.937828
     32          7           0       -7.673562   -1.400927   -0.717689
     33          6           0       -7.800967   -1.943885   -2.004406
     34          6           0       -7.913614   -3.405625   -1.847259
     35          6           0       -7.860222   -3.611413   -0.470071
     36          6           0       -7.749324   -2.355639    0.192518
     37          6           0       -8.103336   -4.344715   -2.899186
     38          6           0       -7.895845   -4.598224    0.597070
     39          8           0       -7.885128   -5.829278    0.640489
     40          6           0       -8.071645   -3.832329    1.982107
     41          6           0       -7.063546   -4.397577    2.945196
     42          8           0       -5.840725   -4.224105    2.766362
     43          8           0       -7.696944   -4.843681    4.040797
     44          6           0       -6.751039   -5.390772    5.049811
     45          1           0       -8.990608    2.889233    3.463474
     46          1           0       -7.697897    4.294522   -2.476902
     47          1           0       -7.846656   -1.792994   -4.012878
     48          1           0       -9.030614   -1.975366    4.330014
     49          1           0       -8.778000    0.767152    4.931872
     50          1           0      -10.934310   -0.844795    3.621209
     51          1           0      -10.855130    0.871363    3.116435
     52          1           0      -11.092405    0.517474    4.804346
     53          1           0       -6.606885   -0.216169    4.756713
     54          1           0       -6.328828   -1.939567    4.282309
     55          1           0       -8.134585   -1.888484    6.478585
     56          1           0       -7.085205   -0.550578    6.755466
     57          1           0       -8.288434    4.869284    3.634385
     58          1           0       -8.572477    6.180070    2.554027
     59          1           0       -6.891989    5.845486    3.045281
     60          1           0       -7.556220    7.506732    1.062726
     61          1           0       -6.295622    8.094442   -0.159552
     62          1           0       -5.899451    6.967835    1.165866
     63          1           0       -7.150603    2.958560   -4.578364
     64          1           0       -8.716874    0.489224   -5.141538
     65          1           0       -9.039180    3.805645   -5.484518
     66          1           0       -9.907530    3.283191   -4.000691
     67          1           0       -9.864929    2.263848   -5.344603
     68          1           0       -6.699898    1.216571   -6.472361
     69          1           0       -6.711850   -0.482578   -6.013456
     70          1           0       -5.166709    1.800711   -5.040926
     71          1           0       -4.562011    0.158809   -5.447361
     72          1           0       -5.403281    0.511418   -3.871721
     73          1           0       -7.434806   -5.179103   -2.687451
     74          1           0       -7.886976   -3.900391   -3.870457
     75          1           0       -9.160377   -4.578404   -2.773045
     76          1           0       -9.095394   -4.009227    2.310387
     77          1           0       -7.067703   -6.411045    5.266609
     78          1           0       -6.734051   -4.679880    5.876098
     79          1           0       -5.728737   -5.560403    4.710013
     80         12           0        8.252659    0.220610    0.182597
     81          6           0        6.022996   -1.748492   -1.824972
     82          6           0        6.635645    2.982707   -0.996685
     83          6           0       10.478302    1.998213    1.580452
     84          6           0       10.371031   -2.544472    0.294606
     85          7           0        6.562340    0.457674   -1.224138
     86          6           0        5.754795   -0.364711   -1.876749
     87          6           0        4.546893    0.329058   -2.561734
     88          6           0        5.169044    1.801874   -2.712050
     89          6           0        6.162126    1.767262   -1.552190
     90          6           0        5.948034    1.997333   -4.002133
     91          6           0        3.267535    0.335896   -1.653317
     92          6           0        1.971172    0.717940   -2.371124
     93          1           0        0.731119    0.062954   -1.964019
     94          7           0        8.238805    2.143099    0.674955
     95          6           0        7.504946    3.123179    0.107353
     96          6           0        7.871082    4.360488    0.813876
     97          6           0        9.001499    4.058569    1.733505
     98          6           0        9.303662    2.696545    1.341502
     99          6           0        7.117952    5.647864    0.643923
    100          6           0        9.703771    4.866826    2.782199
    101          8           0       10.814658    4.484910    3.294924
    102          6           0        9.100750    6.163484    3.123570
    103          7           0       10.243365   -0.134806    0.665375
    104          6           0       10.971847    0.787921    1.317927
    105          6           0       12.281063    0.209078    1.798862
    106          6           0       12.174267   -1.365931    1.542893
    107          6           0       10.797035   -1.416197    0.845694
    108          6           0       13.537922    0.750940    1.118370
    109          6           0       12.419468   -2.295447    2.762947
    110          6           0       11.306207   -2.127354    3.771802
    111          7           0        8.151126   -1.843130   -0.448849
    112          6           0        9.160910   -2.822821   -0.327899
    113          6           0        8.669171   -4.040701   -1.004201
    114          6           0        7.406905   -3.674947   -1.495539
    115          6           0        7.139955   -2.318289   -1.167340
    116          6           0        9.386361   -5.262398   -1.142781
    117          6           0        6.244101   -4.124825   -2.226417
    118          8           0        5.866177   -5.205130   -2.677917
    119          6           0        5.349949   -2.859692   -2.581850
    120          6           0        3.924322   -3.184576   -2.228947
    121          8           0        3.592884   -3.370205   -1.044763
    122          8           0        3.150414   -3.008903   -3.315499
    123          6           0        1.725468   -3.308267   -3.012645
    124          1           0        6.348795    3.918904   -1.476410
    125          1           0       11.235696    2.533190    2.158073
    126          1           0       10.930993   -3.478999    0.370496
    127          1           0        4.288631   -0.066761   -3.536625
    128          1           0        4.415749    2.567667   -2.546321
    129          1           0        6.054724    1.074172   -4.552162
    130          1           0        6.917722    2.375424   -3.705837
    131          1           0        5.488158    2.786119   -4.604350
    132          1           0        3.339311    1.167052   -0.940027
    133          1           0        3.143653   -0.609853   -1.162574
    134          1           0        2.080405    0.689843   -3.462095
    135          1           0        1.748134    1.764743   -2.150958
    136          1           0        6.442779    5.607903   -0.219758
    137          1           0        7.852866    6.415665    0.378881
    138          1           0        6.598348    5.955179    1.553992
    139          1           0        9.042078    6.780828    2.230325
    140          1           0        9.693995    6.552205    3.953532
    141          1           0        8.070874    5.993459    3.456836
    142          1           0       12.415149    0.384476    2.859212
    143          1           0       12.913169   -1.709699    0.804184
    144          1           0       14.265987    1.185765    1.828947
    145          1           0       13.238153    1.486236    0.383503
    146          1           0       14.083353    0.028694    0.513336
    147          1           0       13.344837   -2.015543    3.272367
    148          1           0       12.502583   -3.344018    2.497286
    149          1           0       11.616421   -1.243113    4.336574
    150          1           0       11.236858   -3.002246    4.415067
    151          1           0       10.358813   -1.886148    3.275923
    152          1           0        8.685863   -6.060041   -0.934030
    153          1           0       10.242787   -5.298875   -0.472728
    154          1           0        9.688171   -5.193528   -2.191320
    155          1           0        5.472809   -2.660558   -3.647130
    156          1           0        1.398424   -4.065946   -3.731428
    157          1           0        1.203766   -2.333070   -3.036297
    158          1           0        1.505538   -3.799966   -2.072265
 ---------------------------------------------------------------------

 SCF Done:  E(RCAM-B3LYP) =  -4069.81166922     A.U. after   19 cycles

 Excitation energies and oscillator strengths:

 Excited State   1:      Singlet-A      1.6692 eV  742.76 nm  f=0.0151  <S**2>=0.000
     309 -> 315       -0.10608
     310 -> 316        0.13545
     311 -> 313       -0.42188
     312 -> 314        0.54145
 This state for optimization and/or second-order correction.
 Total Energy, E(TD-HF/TD-DFT) =  -4069.75032572
 Copying the excited state density for this state as the 1-particle RhoCI density.

 Excited State   2:      Singlet-A      1.6858 eV  735.47 nm  f=0.7388  <S**2>=0.000
     309 -> 315        0.13942
     310 -> 316        0.10814
     311 -> 313        0.54055
     312 -> 314        0.42128

 Excited State   3:      Singlet-A      2.1853 eV  567.35 nm  f=0.0919  <S**2>=0.000
     310 -> 314        0.63551
     312 -> 316       -0.26944

 Excited State   4:      Singlet-A      2.1922 eV  565.56 nm  f=0.1082  <S**2>=0.000
     309 -> 313        0.63355
     311 -> 315       -0.27496

 Excited State   5:      Singlet-A      2.7556 eV  449.93 nm  f=0.0000  <S**2>=0.000
     312 -> 313        0.70699

 The electronic state is 1-A.
 Alpha  occ. eigenvalues --  -46.87861 -46.87573 -19.26251 -19.26144 -19.18996
 Alpha  occ. eigenvalues --  -19.18967 -19.18905 -19.18650 -19.18197 -19.17938
 Alpha  occ. eigenvalues --  -14.42506 -14.42406 -14.41517 -14.41274 -14.39468
 Alpha  occ. eigenvalues --  -14.39266 -14.38647 -14.38509 -10.39061 -10.38905
 Alpha  occ. eigenvalues --  -10.35540 -10.35329 -10.34416 -10.34112 -10.31620
 Alpha  occ. eigenvalues --  -10.31501 -10.31451 -10.31210 -10.30959 -10.30927
 Alpha  occ. eigenvalues --  -10.30625 -10.30573 -10.30311 -10.30284 -10.30267
 Alpha  occ. eigenvalues --  -10.30066 -10.29989 -10.29810 -10.29694 -10.29357
 Alpha  occ. eigenvalues --  -10.29322 -10.29314 -10.28770 -10.28598 -10.28519
 Alpha  occ. eigenvalues --  -10.28476 -10.28421 -10.28313 -10.28145 -10.28033
 Alpha  occ. eigenvalues --  -10.27913 -10.27850 -10.27783 -10.27651 -10.27594
 Alpha  occ. eigenvalues --  -10.27581 -10.27549 -10.27540 -10.27455 -10.27452
 Alpha  occ. eigenvalues --  -10.27401 -10.27387 -10.27383 -10.27310 -10.27176
 Alpha  occ. eigenvalues --  -10.26920 -10.26706 -10.26541 -10.26516 -10.26370
 Alpha  occ. eigenvalues --  -10.26305 -10.26260 -10.26089 -10.26078 -10.25931
 Alpha  occ. eigenvalues --  -10.25890 -10.25852 -10.25764 -10.25517 -10.25341
 Alpha  occ. eigenvalues --  -10.24886 -10.24855 -10.24845 -10.24781 -10.24670
 Alpha  occ. eigenvalues --  -10.24605  -3.16604  -3.16322  -1.91486  -1.91205
 Alpha  occ. eigenvalues --   -1.91072  -1.90914  -1.90793  -1.90630  -1.16602
 Alpha  occ. eigenvalues --   -1.16442  -1.08650  -1.08537  -1.07309  -1.06904
 Alpha  occ. eigenvalues --   -1.06754  -1.06619  -1.04635  -1.04402  -1.03825
 Alpha  occ. eigenvalues --   -1.03575  -1.03298  -1.02954  -1.02474  -1.02024
 Alpha  occ. eigenvalues --   -0.92017  -0.91884  -0.89601  -0.89414  -0.89217
 Alpha  occ. eigenvalues --   -0.89039  -0.88368  -0.88145  -0.87923  -0.87725
 Alpha  occ. eigenvalues --   -0.87703  -0.87589  -0.87346  -0.87047  -0.85018
 Alpha  occ. eigenvalues --   -0.84889  -0.84022  -0.83797  -0.83054  -0.82865
 Alpha  occ. eigenvalues --   -0.82691  -0.82548  -0.81604  -0.81455  -0.80638
 Alpha  occ. eigenvalues --   -0.80324  -0.78862  -0.78555  -0.77278  -0.77048
 Alpha  occ. eigenvalues --   -0.76966  -0.76778  -0.75952  -0.75719  -0.74965
 Alpha  occ. eigenvalues --   -0.74715  -0.72834  -0.72611  -0.71724  -0.71486
 Alpha  occ. eigenvalues --   -0.70008  -0.69687  -0.68916  -0.68720  -0.67697
 Alpha  occ. eigenvalues --   -0.67505  -0.67255  -0.67087  -0.65321  -0.65155
 Alpha  occ. eigenvalues --   -0.64901  -0.64671  -0.64665  -0.64533  -0.64345
 Alpha  occ. eigenvalues --   -0.64119  -0.62310  -0.62128  -0.60516  -0.60264
 Alpha  occ. eigenvalues --   -0.59843  -0.59692  -0.59043  -0.58897  -0.58556
 Alpha  occ. eigenvalues --   -0.58324  -0.57608  -0.57421  -0.57366  -0.57146
 Alpha  occ. eigenvalues --   -0.56364  -0.56111  -0.55979  -0.55735  -0.55580
 Alpha  occ. eigenvalues --   -0.55398  -0.55347  -0.55145  -0.54563  -0.54368
 Alpha  occ. eigenvalues --   -0.53924  -0.53797  -0.53363  -0.53267  -0.53138
 Alpha  occ. eigenvalues --   -0.53034  -0.52953  -0.52817  -0.52779  -0.52587
 Alpha  occ. eigenvalues --   -0.52538  -0.52328  -0.51963  -0.51791  -0.51652
 Alpha  occ. eigenvalues --   -0.51546  -0.51243  -0.51094  -0.50655  -0.50410
 Alpha  occ. eigenvalues --   -0.50118  -0.49984  -0.49892  -0.49794  -0.49562
 Alpha  occ. eigenvalues --   -0.49396  -0.49260  -0.49127  -0.49097  -0.48996
 Alpha  occ. eigenvalues --   -0.48626  -0.48537  -0.48496  -0.48439  -0.48295
 Alpha  occ. eigenvalues --   -0.48249  -0.47748  -0.47495  -0.47353  -0.47029
 Alpha  occ. eigenvalues --   -0.46858  -0.46615  -0.46585  -0.46442  -0.46420
 Alpha  occ. eigenvalues --   -0.46211  -0.46180  -0.45982  -0.45848  -0.45698
 Alpha  occ. eigenvalues --   -0.45277  -0.45128  -0.44614  -0.44575  -0.44402
 Alpha  occ. eigenvalues --   -0.44376  -0.44219  -0.44125  -0.44061  -0.44029
 Alpha  occ. eigenvalues --   -0.43988  -0.43839  -0.43519  -0.43438  -0.43413
 Alpha  occ. eigenvalues --   -0.43276  -0.43078  -0.42817  -0.42772  -0.42743
 Alpha  occ. eigenvalues --   -0.42663  -0.42478  -0.42077  -0.41870  -0.41752
 Alpha  occ. eigenvalues --   -0.41570  -0.41567  -0.41350  -0.41191  -0.40924
 Alpha  occ. eigenvalues --   -0.40899  -0.40895  -0.40641  -0.40637  -0.40599
 Alpha  occ. eigenvalues --   -0.40408  -0.40252  -0.40101  -0.39550  -0.39356
 Alpha  occ. eigenvalues --   -0.38543  -0.38268  -0.37773  -0.37524  -0.37393
 Alpha  occ. eigenvalues --   -0.37297  -0.37180  -0.37087  -0.36727  -0.36609
 Alpha  occ. eigenvalues --   -0.36225  -0.36102  -0.34344  -0.34161  -0.33763
 Alpha  occ. eigenvalues --   -0.33687  -0.33241  -0.33081  -0.31434  -0.31208
 Alpha  occ. eigenvalues --   -0.31093  -0.30881  -0.30054  -0.29839  -0.29515
 Alpha  occ. eigenvalues --   -0.29378  -0.29245  -0.29120  -0.24139  -0.23945
 Alpha  occ. eigenvalues --   -0.21189  -0.21030
 Alpha virt. eigenvalues --   -0.08836  -0.08705  -0.01817  -0.01599  -0.00124
 Alpha virt. eigenvalues --    0.00054   0.02150   0.02304   0.03029   0.03318
 Alpha virt. eigenvalues --    0.04674   0.04837   0.05110   0.05340   0.06167

 Mulliken charges:
               1
     1  Mg   0.838246
     2  C   -0.002698
     3  C   -0.093904
     4  C   -0.046256
     5  C   -0.064272
     6  N   -0.256783
     7  C   -0.052292
     8  C   -0.013995
     9  C   -0.086992
    10  C    0.046297
    11  C    0.104781
    12  C    0.053403
    13  C   -0.072094
    14  H    0.037069
    15  N   -0.433121
    16  C    0.168250
    17  C   -0.177139
    18  C   -0.004276
    19  C    0.148598
    20  C    0.110134
    21  C    0.011868
    22  O   -0.250069
    23  C    0.062642
    24  N   -0.341088
    25  C    0.041196
    26  C   -0.028130
    27  C   -0.023935
    28  C    0.074691
    29  C    0.076146
    30  C    0.035220
    31  C   -0.004434
    32  N   -0.310505
    33  C    0.080293
    34  C   -0.169887
    35  C    0.008627
    36  C    0.082889
    37  C    0.127279
    38  C    0.046333
    39  O   -0.187651
    40  C   -0.005382
    41  C    0.212999
    42  O   -0.256650
    43  O   -0.304953
    44  C    0.157362
    45  H   -0.017451
    46  H   -0.017155
    47  H   -0.041547
    48  H    0.001201
    49  H   -0.003880
    50  H    0.025596
    51  H    0.016317
    52  H    0.016812
    53  H    0.011075
    54  H    0.044527
    55  H    0.017864
    56  H    0.017863
    57  H    0.006112
    58  H    0.026836
    59  H    0.039276
    60  H    0.037644
    61  H    0.035179
    62  H    0.031134
    63  H    0.015992
    64  H    0.009723
    65  H    0.023033
    66  H    0.012762
    67  H    0.004915
    68  H    0.006345
    69  H    0.004942
    70  H    0.008361
    71  H    0.017305
    72  H    0.028864
    73  H    0.047873
    74  H    0.008904
    75  H    0.046302
    76  H    0.035329
    77  H    0.043218
    78  H    0.046384
    79  H    0.054525
    80  Mg   0.837847
    81  C   -0.016525
    82  C   -0.087781
    83  C   -0.045688
    84  C   -0.065092
    85  N   -0.254542
    86  C   -0.049739
    87  C   -0.015015
    88  C   -0.090476
    89  C    0.045753
    90  C    0.114409
    91  C    0.062543
    92  C   -0.078513
    93  H    0.036877
    94  N   -0.423449
    95  C    0.162809
    96  C   -0.174781
    97  C   -0.008035
    98  C    0.152072
    99  C    0.099423
   100  C    0.015401
   101  O   -0.253436
   102  C    0.061296
   103  N   -0.350117
   104  C    0.037445
   105  C   -0.019731
   106  C   -0.034833
   107  C    0.089013
   108  C    0.073737
   109  C    0.034767
   110  C   -0.007639
   111  N   -0.324176
   112  C    0.078621
   113  C   -0.163121
   114  C    0.002402
   115  C    0.096293
   116  C    0.131447
   117  C    0.042551
   118  O   -0.187316
   119  C    0.000920
   120  C    0.211365
   121  O   -0.250276
   122  O   -0.306179
   123  C    0.151451
   124  H   -0.019769
   125  H   -0.015842
   126  H   -0.040576
   127  H   -0.000623
   128  H   -0.004210
   129  H    0.022369
   130  H    0.014181
   131  H    0.016190
   132  H    0.013646
   133  H    0.038387
   134  H    0.020305
   135  H    0.019383
   136  H    0.008799
   137  H    0.025902
   138  H    0.039401
   139  H    0.038171
   140  H    0.036072
   141  H    0.033692
   142  H    0.014222
   143  H    0.012299
   144  H    0.024920
   145  H    0.011592
   146  H    0.005533
   147  H    0.006061
   148  H    0.003644
   149  H    0.010770
   150  H    0.017878
   151  H    0.030294
   152  H    0.046308
   153  H    0.008370
   154  H    0.046831
   155  H    0.034809
   156  H    0.043955
   157  H    0.049453
   158  H    0.055601
 Sum of Mulliken charges =  -0.00000

 Dipole moment (field-independent basis, Debye):
    X=             -2.5745    Y=              7.2728    Z=              1.1702  Tot=              7.8033
 Quadrupole moment (field-independent basis, Debye-Ang):
   XX=           -475.0899   YY=           -543.3018   ZZ=           -473.4844
   XY=            -21.6977   XZ=            -28.8000   YZ=             -0.6199

 Normal termination of Gaussian 16 at Sun Sep 12 01:04:21 2021.
