 Gaussian 16, Revision A.03,
 Gaussian 16:  ES64L-G16RevA.03 25-Dec-2016

 -----------------------------------
 #p cam-b3lyp/Def2SVP td=(nstates=5)
 -----------------------------------

 --------------------------------
 TDDFT excited states in gaussian
 --------------------------------
 Symbolic Z-matrix:
 Charge =  0 Multiplicity = 1

                         Standard orientation:
 ---------------------------------------------------------------------
 Center     Atomic      Atomic             Coordinates (Angstroms)
 Number     Number       Type             X           Y           Z
 ---------------------------------------------------------------------
      1         12           0        4.854634    1.352663    0.610325
      2          6           0        5.566499   -2.125240    0.152445
      3          6           0        5.964988    1.847073   -2.578050
      4          6           0        4.663754    4.472891    1.143580
      5          6           0        4.886819    0.755894    4.043763
      6          7           0        5.639279   -0.041774   -0.919552
      7          6           0        5.805317   -1.358808   -0.990442
      8          6           0        6.184783   -1.857791   -2.416765
      9          6           0        6.820105   -0.513757   -2.992903
     10          6           0        6.072236    0.494271   -2.138212
     11          6           0        8.314191   -0.379042   -2.717110
     12          6           0        4.931626   -2.300005   -3.244881
     13          6           0        5.236648   -3.099510   -4.514963
     14          1           0        4.325061   -4.163131   -4.908749
     15          7           0        4.787404    2.867157   -0.656418
     16          6           0        5.273749    2.887702   -1.920669
     17          6           0        4.979591    4.237294   -2.448641
     18          6           0        4.452837    5.060647   -1.324935
     19          6           0        4.640619    4.162743   -0.214131
     20          6           0        5.155722    4.614311   -3.887594
     21          6           0        3.882041    6.442015   -1.260560
     22          8           0        3.700258    7.051851   -0.151673
     23          6           0        3.620329    7.105457   -2.550674
     24          7           0        5.001613    2.508925    2.342113
     25          6           0        4.822388    3.833858    2.304493
     26          6           0        4.692755    4.406716    3.684698
     27          6           0        4.577429    3.157620    4.672732
     28          6           0        4.752879    2.020142    3.636571
     29          6           0        5.841873    5.315379    4.142813
     30          6           0        3.346448    3.115776    5.612601
     31          6           0        2.086801    2.916102    4.799880
     32          7           0        4.990986   -0.390688    1.896086
     33          6           0        5.007837   -0.404927    3.298294
     34          6           0        5.222133   -1.803391    3.713559
     35          6           0        5.332330   -2.507619    2.516160
     36          6           0        5.221766   -1.602295    1.422334
     37          6           0        5.349699   -2.264614    5.053498
     38          6           0        5.542381   -3.810712    1.906503
     39          8           0        5.608328   -4.965668    2.329850
     40          6           0        5.824170   -3.597869    0.353725
     41          6           0        4.962581   -4.572238   -0.402303
     42          8           0        3.719494   -4.462249   -0.400420
     43          8           0        5.737351   -5.329138   -1.194373
     44          6           0        4.941456   -6.297773   -1.994655
     45          1           0        6.506502    2.155094   -3.474613
     46          1           0        4.489777    5.526160    1.373349
     47          1           0        4.823904    0.481113    5.098272
     48          1           0        6.925098   -2.657774   -2.436398
     49          1           0        6.580520   -0.369272   -4.046204
     50          1           0        8.670271   -1.169552   -2.056638
     51          1           0        8.436183    0.595727   -2.244419
     52          1           0        8.877541   -0.332542   -3.649447
     53          1           0        4.464380   -1.420190   -3.687223
     54          1           0        4.236942   -2.864329   -2.621761
     55          1           0        6.266793   -3.456779   -4.523261
     56          1           0        5.177897   -2.422369   -5.367153
     57          1           0        5.713026    3.855276   -4.435155
     58          1           0        5.799811    5.493150   -3.909940
     59          1           0        4.205799    4.842325   -4.371318
     60          1           0        4.550348    7.173740   -3.115431
     61          1           0        3.131075    8.048618   -2.309993
     62          1           0        2.949187    6.479747   -3.139745
     63          1           0        3.793991    5.015767    3.772484
     64          1           0        5.430346    3.090570    5.348536
     65          1           0        5.519037    6.313446    4.440041
     66          1           0        6.574007    5.364881    3.337319
     67          1           0        6.443683    4.915256    4.958377
     68          1           0        3.240503    4.062604    6.141031
     69          1           0        3.401856    2.323597    6.359350
     70          1           0        1.842254    3.927565    4.477433
     71          1           0        1.293414    2.502533    5.423345
     72          1           0        2.280544    2.326299    3.903732
     73          1           0        4.758270   -3.177762    5.119383
     74          1           0        5.002482   -1.515592    5.764842
     75          1           0        6.426019   -2.426576    5.109698
     76          1           0        6.886333   -3.785209    0.199332
     77          1           0        5.338980   -7.290795   -1.784619
     78          1           0        4.973828   -5.947647   -3.026531
     79          1           0        3.899679   -6.426344   -1.698833
     80         12           0       -5.593605   -0.047844   -0.349685
     81          6           0       -3.504656   -2.961503   -0.188754
     82          6           0       -3.416171    1.202461   -2.658401
     83          6           0       -7.156019    2.708772   -0.184232
     84          6           0       -6.925321   -1.003161    2.725959
     85          7           0       -3.737399   -0.868174   -1.229354
     86          6           0       -3.074127   -2.010992   -1.137754
     87          6           0       -1.930596   -2.175840   -2.174446
     88          6           0       -1.649562   -0.622884   -2.471454
     89          6           0       -3.027385   -0.056396   -2.134733
     90          6           0       -0.634241   -0.003385   -1.525585
     91          6           0       -2.399783   -2.932079   -3.466724
     92          6           0       -1.268251   -3.399944   -4.384585
     93          1           0       -1.427725   -4.664714   -5.096918
     94          7           0       -5.625668    1.487638   -1.606598
     95          6           0       -4.667358    1.835545   -2.490841
     96          6           0       -5.160431    3.048142   -3.162154
     97          6           0       -6.413604    3.481643   -2.486606
     98          6           0       -6.436325    2.568126   -1.361855
     99          6           0       -4.499066    3.631822   -4.376788
    100          6           0       -7.417737    4.550950   -2.793999
    101          8           0       -8.304089    4.907943   -1.939736
    102          6           0       -7.274147    5.232440   -4.088776
    103          7           0       -6.703940    0.855225    1.158286
    104          6           0       -7.321976    2.031405    0.951968
    105          6           0       -8.280043    2.348601    2.075298
    106          6           0       -8.356347    1.020415    2.962816
    107          6           0       -7.315220    0.157379    2.216758
    108          6           0       -7.895910    3.532168    2.962990
    109          6           0       -9.767629    0.422636    3.215047
    110          6           0      -10.343528   -0.104940    1.920669
    111          7           0       -5.429329   -1.765739    0.950267
    112          6           0       -6.052704   -1.949445    2.203953
    113          6           0       -5.546702   -3.221323    2.759578
    114          6           0       -4.639483   -3.681556    1.793335
    115          6           0       -4.568869   -2.751446    0.721224
    116          6           0       -5.896006   -3.774229    4.023854
    117          6           0       -3.717538   -4.737450    1.441497
    118          8           0       -3.423859   -5.830657    1.923576
    119          6           0       -2.847144   -4.256053    0.201712
    120          6           0       -2.829355   -5.366683   -0.812542
    121          8           0       -3.875051   -5.711464   -1.390675
    122          8           0       -1.552981   -5.689097   -1.090567
    123          6           0       -1.483218   -6.778917   -2.100150
    124          1           0       -2.680195    1.781951   -3.216439
    125          1           0       -7.797928    3.590871   -0.126436
    126          1           0       -7.365109   -1.419044    3.634968
    127          1           0       -1.034625   -2.649147   -1.791041
    128          1           0       -1.415055   -0.457382   -3.519777
    129          1           0       -0.356308   -0.681540   -0.732493
    130          1           0       -1.110963    0.878998   -1.119164
    131          1           0        0.234048    0.354377   -2.086311
    132          1           0       -2.902121   -2.221052   -4.135178
    133          1           0       -3.027822   -3.764238   -3.214328
    134          1           0       -0.291142   -3.359080   -3.888069
    135          1           0       -1.177983   -2.692502   -5.212472
    136          1           0       -3.506349    3.195588   -4.543010
    137          1           0       -4.299088    4.686021   -4.156497
    138          1           0       -5.126333    3.569959   -5.268627
    139          1           0       -6.290158    5.691479   -4.148088
    140          1           0       -8.134904    5.899652   -4.164877
    141          1           0       -7.319982    4.482158   -4.886008
    142          1           0       -9.267578    2.571066    1.690095
    143          1           0       -7.960786    1.184112    3.976014
    144          1           0       -8.674948    4.316610    3.005764
    145          1           0       -6.962818    3.942296    2.600125
    146          1           0       -7.651175    3.276910    3.992623
    147          1           0      -10.451255    1.200113    3.564798
    148          1           0       -9.774946   -0.369776    3.956006
    149          1           0      -10.765823    0.790696    1.455288
    150          1           0      -11.113919   -0.847458    2.118684
    151          1           0       -9.551634   -0.477313    1.260450
    152          1           0       -6.060239   -4.831939    3.866452
    153          1           0       -6.778399   -3.291532    4.438790
    154          1           0       -4.993503   -3.540587    4.594968
    155          1           0       -1.848056   -4.024643    0.572983
    156          1           0       -0.884876   -7.583253   -1.661177
    157          1           0       -1.094305   -6.307491   -3.022245
    158          1           0       -2.401880   -7.303230   -2.335951
 ---------------------------------------------------------------------

 SCF Done:  E(RCAM-B3LYP) =  -4069.81135464     A.U. after   19 cycles

 Excitation energies and oscillator strengths:

 Excited State   1:      Singlet-A      1.6550 eV  749.17 nm  f=0.0019  <S**2>=0.000
     309 -> 315        0.11584
     310 -> 316       -0.12239
     311 -> 313        0.46990
     312 -> 314        0.50154
 This state for optimization and/or second-order correction.
 Total Energy, E(TD-HF/TD-DFT) =  -4069.75053590
 Copying the excited state density for this state as the 1-particle RhoCI density.

 Excited State   2:      Singlet-A      1.6974 eV  730.45 nm  f=0.7124  <S**2>=0.000
     309 -> 315        0.13160
     310 -> 316        0.12207
     311 -> 313        0.49950
     312 -> 314       -0.46808

 Excited State   3:      Singlet-A      2.1825 eV  568.08 nm  f=0.0514  <S**2>=0.000
     309 -> 313        0.22714
     310 -> 314        0.60253
     312 -> 316        0.25290

 Excited State   4:      Singlet-A      2.1943 eV  565.04 nm  f=0.1383  <S**2>=0.000
     309 -> 313        0.59894
     310 -> 314       -0.22443
     311 -> 315       -0.26229

 Excited State   5:      Singlet-A      2.4153 eV  513.32 nm  f=0.0000  <S**2>=0.000
     312 -> 313        0.70678

 The electronic state is 1-A.
 Alpha  occ. eigenvalues --  -46.88031 -46.87443 -19.26478 -19.25893 -19.19217
 Alpha  occ. eigenvalues --  -19.19038 -19.18781 -19.18543 -19.18333 -19.17743
 Alpha  occ. eigenvalues --  -14.42686 -14.42273 -14.41665 -14.41145 -14.39636
 Alpha  occ. eigenvalues --  -14.39139 -14.38807 -14.38375 -10.39276 -10.38698
 Alpha  occ. eigenvalues --  -10.35674 -10.35225 -10.34557 -10.33908 -10.31874
 Alpha  occ. eigenvalues --  -10.31628 -10.31362 -10.31157 -10.31065 -10.30785
 Alpha  occ. eigenvalues --  -10.30779 -10.30717 -10.30422 -10.30177 -10.30129
 Alpha  occ. eigenvalues --  -10.30113 -10.29957 -10.29841 -10.29679 -10.29479
 Alpha  occ. eigenvalues --  -10.29242 -10.29187 -10.29022 -10.28871 -10.28591
 Alpha  occ. eigenvalues --  -10.28423 -10.28391 -10.28365 -10.28169 -10.27998
 Alpha  occ. eigenvalues --  -10.27956 -10.27885 -10.27806 -10.27780 -10.27742
 Alpha  occ. eigenvalues --  -10.27667 -10.27627 -10.27614 -10.27461 -10.27357
 Alpha  occ. eigenvalues --  -10.27350 -10.27341 -10.27258 -10.27235 -10.27208
 Alpha  occ. eigenvalues --  -10.27061 -10.26664 -10.26657 -10.26446 -10.26439
 Alpha  occ. eigenvalues --  -10.26323 -10.26291 -10.26225 -10.25997 -10.25963
 Alpha  occ. eigenvalues --  -10.25747 -10.25732 -10.25642 -10.25581 -10.25246
 Alpha  occ. eigenvalues --  -10.25034 -10.24998 -10.24826 -10.24639 -10.24594
 Alpha  occ. eigenvalues --  -10.24474  -3.16774  -3.16193  -1.91657  -1.91242
 Alpha  occ. eigenvalues --   -1.91084  -1.91076  -1.90664  -1.90501  -1.16827
 Alpha  occ. eigenvalues --   -1.16209  -1.08786  -1.08333  -1.07439  -1.06837
 Alpha  occ. eigenvalues --   -1.06799  -1.06559  -1.04816  -1.04262  -1.03979
 Alpha  occ. eigenvalues --   -1.03452  -1.03443  -1.02826  -1.02629  -1.01892
 Alpha  occ. eigenvalues --   -0.92183  -0.91717  -0.89708  -0.89447  -0.89293
 Alpha  occ. eigenvalues --   -0.88888  -0.88471  -0.88054  -0.88033  -0.87906
 Alpha  occ. eigenvalues --   -0.87572  -0.87507  -0.87462  -0.86943  -0.85234
 Alpha  occ. eigenvalues --   -0.84760  -0.84109  -0.83685  -0.83191  -0.82882
 Alpha  occ. eigenvalues --   -0.82769  -0.82416  -0.81790  -0.81296  -0.80814
 Alpha  occ. eigenvalues --   -0.80181  -0.79017  -0.78440  -0.77434  -0.77155
 Alpha  occ. eigenvalues --   -0.76929  -0.76642  -0.76139  -0.75570  -0.75080
 Alpha  occ. eigenvalues --   -0.74595  -0.72978  -0.72482  -0.71880  -0.71347
 Alpha  occ. eigenvalues --   -0.70075  -0.69587  -0.69112  -0.68594  -0.67855
 Alpha  occ. eigenvalues --   -0.67493  -0.67375  -0.66978  -0.65533  -0.65064
 Alpha  occ. eigenvalues --   -0.65002  -0.64836  -0.64537  -0.64459  -0.64386
 Alpha  occ. eigenvalues --   -0.63999  -0.62495  -0.61949  -0.60661  -0.60152
 Alpha  occ. eigenvalues --   -0.60047  -0.59537  -0.59195  -0.58757  -0.58709
 Alpha  occ. eigenvalues --   -0.58178  -0.57778  -0.57505  -0.57233  -0.57001
 Alpha  occ. eigenvalues --   -0.56516  -0.56193  -0.55986  -0.55737  -0.55567
 Alpha  occ. eigenvalues --   -0.55517  -0.55214  -0.55005  -0.54706  -0.54214
 Alpha  occ. eigenvalues --   -0.54154  -0.53658  -0.53515  -0.53456  -0.53123
 Alpha  occ. eigenvalues --   -0.53016  -0.53000  -0.52899  -0.52637  -0.52599
 Alpha  occ. eigenvalues --   -0.52477  -0.52225  -0.52075  -0.51870  -0.51662
 Alpha  occ. eigenvalues --   -0.51423  -0.51392  -0.50949  -0.50819  -0.50323
 Alpha  occ. eigenvalues --   -0.50226  -0.50140  -0.49778  -0.49748  -0.49682
 Alpha  occ. eigenvalues --   -0.49424  -0.49315  -0.49271  -0.48954  -0.48842
 Alpha  occ. eigenvalues --   -0.48792  -0.48672  -0.48629  -0.48299  -0.48188
 Alpha  occ. eigenvalues --   -0.48115  -0.47914  -0.47508  -0.47367  -0.47004
 Alpha  occ. eigenvalues --   -0.46916  -0.46807  -0.46563  -0.46494  -0.46351
 Alpha  occ. eigenvalues --   -0.46321  -0.46063  -0.46005  -0.45846  -0.45545
 Alpha  occ. eigenvalues --   -0.45383  -0.45010  -0.44778  -0.44726  -0.44348
 Alpha  occ. eigenvalues --   -0.44321  -0.44257  -0.44253  -0.44220  -0.43895
 Alpha  occ. eigenvalues --   -0.43875  -0.43698  -0.43690  -0.43611  -0.43274
 Alpha  occ. eigenvalues --   -0.43229  -0.43139  -0.42891  -0.42833  -0.42680
 Alpha  occ. eigenvalues --   -0.42534  -0.42370  -0.42207  -0.41906  -0.41777
 Alpha  occ. eigenvalues --   -0.41751  -0.41407  -0.41353  -0.41223  -0.41106
 Alpha  occ. eigenvalues --   -0.41065  -0.40758  -0.40757  -0.40539  -0.40530
 Alpha  occ. eigenvalues --   -0.40484  -0.40283  -0.39969  -0.39608  -0.39260
 Alpha  occ. eigenvalues --   -0.38667  -0.38160  -0.38026  -0.37521  -0.37514
 Alpha  occ. eigenvalues --   -0.37425  -0.37062  -0.36962  -0.36905  -0.36433
 Alpha  occ. eigenvalues --   -0.36394  -0.35954  -0.34504  -0.34027  -0.33972
 Alpha  occ. eigenvalues --   -0.33516  -0.33402  -0.32947  -0.31566  -0.31254
 Alpha  occ. eigenvalues --   -0.31101  -0.30741  -0.30192  -0.29674  -0.29635
 Alpha  occ. eigenvalues --   -0.29524  -0.29122  -0.28980  -0.24303  -0.23806
 Alpha  occ. eigenvalues --   -0.21346  -0.20901
 Alpha virt. eigenvalues --   -0.08992  -0.08573  -0.01972  -0.01473  -0.00286
 Alpha virt. eigenvalues --    0.00174   0.02009   0.02447   0.02606   0.03425
 Alpha virt. eigenvalues --    0.04468   0.04892   0.04969   0.05542   0.05839

 Mulliken charges:
               1
     1  Mg   0.835359
     2  C   -0.003607
     3  C   -0.095084
     4  C   -0.045491
     5  C   -0.063426
     6  N   -0.256766
     7  C   -0.053176
     8  C   -0.013468
     9  C   -0.086698
    10  C    0.045346
    11  C    0.104704
    12  C    0.053571
    13  C   -0.071715
    14  H    0.035426
    15  N   -0.433303
    16  C    0.167337
    17  C   -0.178165
    18  C   -0.004459
    19  C    0.148416
    20  C    0.110235
    21  C    0.011852
    22  O   -0.248999
    23  C    0.062942
    24  N   -0.340989
    25  C    0.041050
    26  C   -0.028220
    27  C   -0.024198
    28  C    0.074941
    29  C    0.076007
    30  C    0.034947
    31  C   -0.004525
    32  N   -0.310842
    33  C    0.080606
    34  C   -0.168703
    35  C    0.009094
    36  C    0.082749
    37  C    0.126986
    38  C    0.047001
    39  O   -0.186482
    40  C   -0.005738
    41  C    0.213481
    42  O   -0.257428
    43  O   -0.304628
    44  C    0.157246
    45  H   -0.017571
    46  H   -0.016431
    47  H   -0.040532
    48  H    0.001702
    49  H   -0.004596
    50  H    0.025895
    51  H    0.016854
    52  H    0.016958
    53  H    0.008738
    54  H    0.042680
    55  H    0.019240
    56  H    0.017734
    57  H    0.005747
    58  H    0.027441
    59  H    0.037714
    60  H    0.037794
    61  H    0.036085
    62  H    0.029529
    63  H    0.016813
    64  H    0.009985
    65  H    0.023599
    66  H    0.012573
    67  H    0.005156
    68  H    0.006869
    69  H    0.005321
    70  H    0.008905
    71  H    0.018948
    72  H    0.028235
    73  H    0.049272
    74  H    0.009631
    75  H    0.046434
    76  H    0.035613
    77  H    0.043975
    78  H    0.045620
    79  H    0.053903
    80  Mg   0.837288
    81  C   -0.017064
    82  C   -0.087769
    83  C   -0.045781
    84  C   -0.065563
    85  N   -0.254523
    86  C   -0.049352
    87  C   -0.016865
    88  C   -0.091400
    89  C    0.045718
    90  C    0.112041
    91  C    0.062634
    92  C   -0.077839
    93  H    0.032496
    94  N   -0.423394
    95  C    0.162693
    96  C   -0.174998
    97  C   -0.008225
    98  C    0.151978
    99  C    0.099758
   100  C    0.015295
   101  O   -0.253663
   102  C    0.061330
   103  N   -0.350124
   104  C    0.037333
   105  C   -0.019652
   106  C   -0.034786
   107  C    0.089181
   108  C    0.073814
   109  C    0.034853
   110  C   -0.007587
   111  N   -0.324262
   112  C    0.078844
   113  C   -0.163510
   114  C    0.002986
   115  C    0.095826
   116  C    0.131508
   117  C    0.042653
   118  O   -0.186214
   119  C    0.000974
   120  C    0.210265
   121  O   -0.252960
   122  O   -0.301211
   123  C    0.153699
   124  H   -0.020978
   125  H   -0.016135
   126  H   -0.040903
   127  H    0.007541
   128  H   -0.006164
   129  H    0.028016
   130  H    0.013374
   131  H    0.016169
   132  H    0.012553
   133  H    0.037598
   134  H    0.024607
   135  H    0.017175
   136  H    0.007455
   137  H    0.025361
   138  H    0.038891
   139  H    0.037858
   140  H    0.035853
   141  H    0.033472
   142  H    0.013991
   143  H    0.012046
   144  H    0.024669
   145  H    0.011798
   146  H    0.005170
   147  H    0.005836
   148  H    0.003463
   149  H    0.010724
   150  H    0.017589
   151  H    0.030374
   152  H    0.046040
   153  H    0.007892
   154  H    0.047312
   155  H    0.041978
   156  H    0.044217
   157  H    0.047994
   158  H    0.051722
 Sum of Mulliken charges =  -0.00000

 Dipole moment (field-independent basis, Debye):
    X=              4.7908    Y=              4.9443    Z=             -5.0356  Tot=              8.5296
 Quadrupole moment (field-independent basis, Debye-Ang):
   XX=           -506.7351   YY=           -566.1682   ZZ=           -450.5874
   XY=              3.2929   XZ=            -35.1535   YZ=             15.4972

 Normal termination of Gaussian 16 at Fri Sep 10 21:21:33 2021.
