 Gaussian 16, Revision A.03,
 Gaussian 16:  ES64L-G16RevA.03 25-Dec-2016

 -----------------------------------
 #p cam-b3lyp/Def2SVP td=(nstates=5)
 -----------------------------------

 --------------------------------
 TDDFT excited states in gaussian
 --------------------------------
 Symbolic Z-matrix:
 Charge =  0 Multiplicity = 1

                         Standard orientation:
 ---------------------------------------------------------------------
 Center     Atomic      Atomic             Coordinates (Angstroms)
 Number     Number       Type             X           Y           Z
 ---------------------------------------------------------------------
      1         12           0       -6.538552   -0.701883    0.208991
      2          6           0       -6.702287    2.871865    0.091796
      3          6           0       -7.480350   -0.704054   -3.070655
      4          6           0       -6.842198   -3.852063    0.410934
      5          6           0       -6.726678   -0.449411    3.679801
      6          7           0       -7.001464    0.939989   -1.201902
      7          6           0       -6.968561    2.267433   -1.138816
      8          6           0       -7.169333    2.956825   -2.521496
      9          6           0       -7.951116    1.788708   -3.274035
     10          6           0       -7.420409    0.599150   -2.493507
     11          6           0       -9.464641    1.856328   -3.097476
     12          6           0       -5.809666    3.282843   -3.226299
     13          6           0       -5.904296    4.241000   -4.417237
     14          1           0       -4.822000    5.187166   -4.642520
     15          7           0       -6.602940   -2.076291   -1.208650
     16          6           0       -6.996294   -1.897557   -2.492634
     17          6           0       -6.865080   -3.217336   -3.146581
     18          6           0       -6.544745   -4.218222   -2.091257
     19          6           0       -6.678031   -3.416416   -0.901837
     20          6           0       -6.991829   -3.419098   -4.625424
     21          6           0       -6.187133   -5.669881   -2.145401
     22          8           0       -6.175085   -6.406835   -1.100735
     23          6           0       -5.934057   -6.234647   -3.483322
     24          7           0       -6.974603   -1.987722    1.794586
     25          6           0       -6.987956   -3.314218    1.623667
     26          6           0       -7.041208   -4.033685    2.938761
     27          6           0       -6.815563   -2.920507    4.061112
     28          6           0       -6.749702   -1.672818    3.146123
     29          6           0       -8.339901   -4.797678    3.231545
     30          6           0       -5.661315   -3.159550    5.066591
     31          6           0       -4.331641   -3.074556    4.351161
     32          7           0       -6.510404    0.906223    1.666471
     33          6           0       -6.624299    0.784225    3.058886
     34          6           0       -6.661605    2.151049    3.610671
     35          6           0       -6.583000    2.978683    2.492329
     36          6           0       -6.528196    2.179653    1.314688
     37          6           0       -6.815273    2.491617    4.983563
     38          6           0       -6.557390    4.352357    2.016702
     39          8           0       -6.484325    5.456343    2.558338
     40          6           0       -6.756440    4.339370    0.436816
     41          6           0       -5.710812    5.241170   -0.160450
     42          8           0       -4.500270    4.943663   -0.101771
     43          8           0       -6.309060    6.181674   -0.907507
     44          6           0       -5.325959    7.092205   -1.552952
     45          1           0       -7.996044   -0.835964   -4.023860
     46          1           0       -6.840125   -4.937030    0.534551
     47          1           0       -6.699299   -0.292970    4.759722
     48          1           0       -7.782032    3.858122   -2.495276
     49          1           0       -7.661104    1.714251   -4.321924
     50          1           0       -9.747735    2.622633   -2.375981
     51          1           0       -9.760414    0.869591   -2.740600
     52          1           0       -9.961277    1.988456   -4.059075
     53          1           0       -5.445326    2.390242   -3.734809
     54          1           0       -5.086139    3.670515   -2.508284
     55          1           0       -6.868253    4.749915   -4.443733
     56          1           0       -5.884522    3.650371   -5.333188
     57          1           0       -7.392492   -2.533748   -5.117531
     58          1           0       -7.753776   -4.183132   -4.778386
     59          1           0       -6.053363   -3.740074   -5.077737
     60          1           0       -6.821737   -6.104468   -4.102698
     61          1           0       -5.605611   -7.260387   -3.319520
     62          1           0       -5.138948   -5.663237   -3.963158
     63          1           0       -6.249183   -4.778065    3.009624
     64          1           0       -7.695344   -2.791565    4.692010
     65          1           0       -8.187676   -5.857676    3.436329
     66          1           0       -9.012517   -4.655352    2.386192
     67          1           0       -8.933301   -4.393213    4.051119
     68          1           0       -5.732040   -4.159004    5.494419
     69          1           0       -5.653574   -2.445881    5.890525
     70          1           0       -4.214721   -4.074579    3.935089
     71          1           0       -3.532685   -2.850190    5.058650
     72          1           0       -4.373479   -2.376504    3.514825
     73          1           0       -6.103382    3.293102    5.180546
     74          1           0       -6.632072    1.631898    5.627708
     75          1           0       -7.857797    2.809119    4.997384
     76          1           0       -7.766379    4.700484    0.245137
     77          1           0       -5.588558    8.108480   -1.258910
     78          1           0       -5.335771    6.854786   -2.616879
     79          1           0       -4.300167    7.030884   -1.187808
     80         12           0        6.694418   -0.850893   -0.065546
     81          6           0        6.540374    2.690418    0.495193
     82          6           0        5.759057   -0.230750   -3.286592
     83          6           0        6.382884   -3.982064   -0.473165
     84          6           0        6.492154   -1.266425    3.388743
     85          7           0        6.238453    1.029004   -1.138083
     86          6           0        6.273251    2.318845   -0.838978
     87          6           0        6.085992    3.266199   -2.054304
     88          6           0        5.294832    2.259886   -3.023973
     89          6           0        5.818336    0.932772   -2.478629
     90          6           0        3.788233    2.295594   -2.828459
     91          6           0        7.453669    3.711675   -2.681224
     92          6           0        7.358884    4.874963   -3.670929
     93          1           0        8.451059    5.843379   -3.713464
     94          7           0        6.632171   -1.929356   -1.730364
     95          6           0        6.249282   -1.513138   -2.955699
     96          6           0        6.362686   -2.688266   -3.833402
     97          6           0        6.685928   -3.872594   -2.992210
     98          6           0        6.556189   -3.298604   -1.667894
     99          6           0        6.247686   -2.601963   -5.327644
    100          6           0        7.039208   -5.290691   -3.324421
    101          8           0        7.047596   -6.209558   -2.430868
    102          6           0        7.283939   -5.590305   -4.742819
    103          7           0        6.257527   -2.406502    1.242713
    104          6           0        6.234481   -3.681790    0.817234
    105          6           0        6.172525   -4.643638    1.979736
    106          6           0        6.403706   -3.752535    3.287440
    107          6           0        6.473468   -2.355501    2.632600
    108          6           0        4.869730   -5.429986    2.123826
    109          6           0        7.555305   -4.182020    4.237193
    110          6           0        8.889234   -3.980436    3.554989
    111          7           0        6.728852    0.446507    1.661771
    112          6           0        6.604178    0.067011    3.016211
    113          6           0        6.570436    1.309235    3.815068
    114          6           0        6.655328    2.333981    2.860507
    115          6           0        6.715915    1.770652    1.557250
    116          6           0        6.424734    1.385331    5.228960
    117          6           0        6.696751    3.764402    2.658322
    118          8           0        6.765002    4.744740    3.398597
    119          6           0        6.496695    4.061895    1.109819
    120          6           0        7.546860    5.052604    0.687700
    121          8           0        8.751184    4.742866    0.704699
    122          8           0        6.946824    6.120273    0.130549
    123          6           0        7.947892    7.126178   -0.314242
    124          1           0        5.251641   -0.168326   -4.249677
    125          1           0        6.380751   -5.071858   -0.549403
    126          1           0        6.529249   -1.313431    4.479191
    127          1           0        5.482480    4.144093   -1.857178
    128          1           0        5.595550    2.391550   -4.060116
    129          1           0        3.505845    2.907676   -1.984804
    130          1           0        3.487991    1.268388   -2.667985
    131          1           0        3.295660    2.612767   -3.752107
    132          1           0        7.813575    2.922042   -3.353308
    133          1           0        8.165746    3.946879   -1.914242
    134          1           0        6.391731    5.388835   -3.611649
    135          1           0        7.385659    4.470357   -4.685618
    136          1           0        5.844249   -1.632369   -5.644707
    137          1           0        5.484472   -3.326359   -5.631986
    138          1           0        7.184070   -2.840284   -5.836626
    139          1           0        6.400002   -5.336797   -5.323198
    140          1           0        7.609295   -6.632081   -4.769522
    141          1           0        8.092517   -4.944152   -5.102418
    142          1           0        6.962294   -5.381843    1.913394
    143          1           0        5.518495   -3.749729    3.940304
    144          1           0        5.019128   -6.526229    2.122178
    145          1           0        4.203243   -5.135834    1.323937
    146          1           0        4.284012   -5.194744    3.010840
    147          1           0        7.480969   -5.248295    4.464522
    148          1           0        7.556202   -3.650413    5.182904
    149          1           0        8.998099   -4.887526    2.952976
    150          1           0        9.686835   -3.896718    4.290427
    151          1           0        8.853824   -3.129253    2.865142
    152          1           0        7.131692    2.127465    5.575312
    153          1           0        6.598531    0.419660    5.699109
    154          1           0        5.378557    1.694539    5.300855
    155          1           0        5.487526    4.454487    0.979352
    156          1           0        7.684686    8.073228    0.166904
    157          1           0        7.926757    7.099979   -1.419959
    158          1           0        8.970837    6.996632    0.019293
 ---------------------------------------------------------------------

 SCF Done:  E(RCAM-B3LYP) =  -4069.81162384     A.U. after   19 cycles

 Excitation energies and oscillator strengths:

 Excited State   1:      Singlet-A      1.6656 eV  744.37 nm  f=0.0116  <S**2>=0.000
     309 -> 315       -0.10972
     310 -> 316        0.13164
     311 -> 313       -0.43788
     312 -> 314        0.52888
 This state for optimization and/or second-order correction.
 Total Energy, E(TD-HF/TD-DFT) =  -4069.75041347
 Copying the excited state density for this state as the 1-particle RhoCI density.

 Excited State   2:      Singlet-A      1.6890 eV  734.05 nm  f=0.7321  <S**2>=0.000
     309 -> 315        0.13716
     310 -> 316        0.11272
     311 -> 313        0.52768
     312 -> 314        0.43697

 Excited State   3:      Singlet-A      2.1844 eV  567.58 nm  f=0.0423  <S**2>=0.000
     309 -> 313       -0.19553
     310 -> 314        0.61271
     312 -> 316       -0.25894

 Excited State   4:      Singlet-A      2.1935 eV  565.22 nm  f=0.1466  <S**2>=0.000
     309 -> 313        0.61019
     310 -> 314        0.19375
     311 -> 315       -0.26606

 Excited State   5:      Singlet-A      2.6489 eV  468.06 nm  f=0.0000  <S**2>=0.000
     312 -> 313        0.70710

 The electronic state is 1-A.
 Alpha  occ. eigenvalues --  -46.87853 -46.87548 -19.26348 -19.26218 -19.19083
 Alpha  occ. eigenvalues --  -19.19035 -19.18864 -19.18630 -19.18212 -19.17918
 Alpha  occ. eigenvalues --  -14.42510 -14.42382 -14.41504 -14.41247 -14.39459
 Alpha  occ. eigenvalues --  -14.39243 -14.38640 -14.38484 -10.39142 -10.38962
 Alpha  occ. eigenvalues --  -10.35498 -10.35310 -10.34434 -10.34093 -10.31748
 Alpha  occ. eigenvalues --  -10.31634 -10.31464 -10.31187 -10.30973 -10.30911
 Alpha  occ. eigenvalues --  -10.30624 -10.30558 -10.30285 -10.30261 -10.30244
 Alpha  occ. eigenvalues --  -10.30040 -10.29969 -10.29780 -10.29682 -10.29332
 Alpha  occ. eigenvalues --  -10.29309 -10.29293 -10.28829 -10.28658 -10.28594
 Alpha  occ. eigenvalues --  -10.28562 -10.28421 -10.28290 -10.28189 -10.28010
 Alpha  occ. eigenvalues --  -10.27888 -10.27843 -10.27786 -10.27638 -10.27559
 Alpha  occ. eigenvalues --  -10.27549 -10.27546 -10.27493 -10.27461 -10.27422
 Alpha  occ. eigenvalues --  -10.27401 -10.27366 -10.27363 -10.27276 -10.27212
 Alpha  occ. eigenvalues --  -10.26907 -10.26810 -10.26588 -10.26462 -10.26359
 Alpha  occ. eigenvalues --  -10.26298 -10.26228 -10.26071 -10.26055 -10.25870
 Alpha  occ. eigenvalues --  -10.25857 -10.25826 -10.25724 -10.25473 -10.25294
 Alpha  occ. eigenvalues --  -10.24882 -10.24840 -10.24755 -10.24736 -10.24653
 Alpha  occ. eigenvalues --  -10.24579  -3.16596  -3.16297  -1.91478  -1.91180
 Alpha  occ. eigenvalues --   -1.91064  -1.90906  -1.90768  -1.90605  -1.16696
 Alpha  occ. eigenvalues --   -1.16513  -1.08670  -1.08522  -1.07264  -1.06885
 Alpha  occ. eigenvalues --   -1.06818  -1.06704  -1.04641  -1.04379  -1.03815
 Alpha  occ. eigenvalues --   -1.03551  -1.03287  -1.02928  -1.02465  -1.01998
 Alpha  occ. eigenvalues --   -0.92027  -0.91865  -0.89570  -0.89390  -0.89263
 Alpha  occ. eigenvalues --   -0.89027  -0.88336  -0.88118  -0.87915  -0.87735
 Alpha  occ. eigenvalues --   -0.87675  -0.87573  -0.87330  -0.87032  -0.85054
 Alpha  occ. eigenvalues --   -0.84885  -0.83985  -0.83775  -0.83020  -0.82850
 Alpha  occ. eigenvalues --   -0.82714  -0.82543  -0.81645  -0.81477  -0.80654
 Alpha  occ. eigenvalues --   -0.80330  -0.78851  -0.78535  -0.77278  -0.77036
 Alpha  occ. eigenvalues --   -0.77000  -0.76784  -0.75985  -0.75716  -0.74948
 Alpha  occ. eigenvalues --   -0.74695  -0.72826  -0.72587  -0.71728  -0.71463
 Alpha  occ. eigenvalues --   -0.69956  -0.69663  -0.68940  -0.68715  -0.67696
 Alpha  occ. eigenvalues --   -0.67493  -0.67297  -0.67101  -0.65356  -0.65154
 Alpha  occ. eigenvalues --   -0.64910  -0.64681  -0.64658  -0.64539  -0.64321
 Alpha  occ. eigenvalues --   -0.64100  -0.62356  -0.62159  -0.60496  -0.60244
 Alpha  occ. eigenvalues --   -0.59871  -0.59676  -0.59042  -0.58880  -0.58558
 Alpha  occ. eigenvalues --   -0.58312  -0.57638  -0.57425  -0.57361  -0.57130
 Alpha  occ. eigenvalues --   -0.56363  -0.56095  -0.56043  -0.55769  -0.55575
 Alpha  occ. eigenvalues --   -0.55390  -0.55348  -0.55138  -0.54577  -0.54377
 Alpha  occ. eigenvalues --   -0.53970  -0.53792  -0.53352  -0.53286  -0.53124
 Alpha  occ. eigenvalues --   -0.53033  -0.52974  -0.52819  -0.52790  -0.52578
 Alpha  occ. eigenvalues --   -0.52486  -0.52309  -0.51953  -0.51761  -0.51687
 Alpha  occ. eigenvalues --   -0.51552  -0.51250  -0.51086  -0.50631  -0.50398
 Alpha  occ. eigenvalues --   -0.50083  -0.49976  -0.49873  -0.49769  -0.49577
 Alpha  occ. eigenvalues --   -0.49384  -0.49269  -0.49160  -0.49087  -0.48978
 Alpha  occ. eigenvalues --   -0.48649  -0.48510  -0.48497  -0.48439  -0.48271
 Alpha  occ. eigenvalues --   -0.48241  -0.47755  -0.47489  -0.47352  -0.47019
 Alpha  occ. eigenvalues --   -0.46853  -0.46628  -0.46600  -0.46442  -0.46412
 Alpha  occ. eigenvalues --   -0.46213  -0.46165  -0.45972  -0.45873  -0.45700
 Alpha  occ. eigenvalues --   -0.45250  -0.45102  -0.44630  -0.44569  -0.44397
 Alpha  occ. eigenvalues --   -0.44366  -0.44198  -0.44155  -0.44074  -0.44009
 Alpha  occ. eigenvalues --   -0.43979  -0.43835  -0.43550  -0.43448  -0.43436
 Alpha  occ. eigenvalues --   -0.43271  -0.43081  -0.42813  -0.42779  -0.42756
 Alpha  occ. eigenvalues --   -0.42708  -0.42456  -0.42066  -0.41861  -0.41758
 Alpha  occ. eigenvalues --   -0.41606  -0.41548  -0.41350  -0.41199  -0.40937
 Alpha  occ. eigenvalues --   -0.40883  -0.40871  -0.40631  -0.40624  -0.40594
 Alpha  occ. eigenvalues --   -0.40387  -0.40324  -0.40124  -0.39490  -0.39333
 Alpha  occ. eigenvalues --   -0.38524  -0.38247  -0.37833  -0.37548  -0.37374
 Alpha  occ. eigenvalues --   -0.37334  -0.37160  -0.37086  -0.36772  -0.36650
 Alpha  occ. eigenvalues --   -0.36250  -0.36106  -0.34341  -0.34139  -0.33832
 Alpha  occ. eigenvalues --   -0.33738  -0.33241  -0.33063  -0.31394  -0.31188
 Alpha  occ. eigenvalues --   -0.31091  -0.30860  -0.30072  -0.29820  -0.29502
 Alpha  occ. eigenvalues --   -0.29371  -0.29224  -0.29093  -0.24136  -0.23921
 Alpha  occ. eigenvalues --   -0.21182  -0.21005
 Alpha virt. eigenvalues --   -0.08828  -0.08681  -0.01804  -0.01575  -0.00113
 Alpha virt. eigenvalues --    0.00073   0.02153   0.02329   0.03054   0.03327
 Alpha virt. eigenvalues --    0.04649   0.04845   0.05038   0.05294   0.06084

 Mulliken charges:
               1
     1  Mg   0.838518
     2  C   -0.003102
     3  C   -0.094452
     4  C   -0.045781
     5  C   -0.063839
     6  N   -0.256736
     7  C   -0.052594
     8  C   -0.013954
     9  C   -0.086937
    10  C    0.046161
    11  C    0.104799
    12  C    0.053612
    13  C   -0.071507
    14  H    0.035288
    15  N   -0.433142
    16  C    0.168313
    17  C   -0.177348
    18  C   -0.003979
    19  C    0.148644
    20  C    0.110226
    21  C    0.012321
    22  O   -0.249418
    23  C    0.062507
    24  N   -0.341121
    25  C    0.041208
    26  C   -0.028199
    27  C   -0.024016
    28  C    0.074842
    29  C    0.076131
    30  C    0.035100
    31  C   -0.004505
    32  N   -0.310516
    33  C    0.080439
    34  C   -0.169453
    35  C    0.008529
    36  C    0.083016
    37  C    0.127242
    38  C    0.046290
    39  O   -0.187972
    40  C   -0.005432
    41  C    0.213016
    42  O   -0.257281
    43  O   -0.304729
    44  C    0.157647
    45  H   -0.017692
    46  H   -0.016711
    47  H   -0.041260
    48  H    0.001073
    49  H   -0.004358
    50  H    0.025598
    51  H    0.016594
    52  H    0.016626
    53  H    0.010701
    54  H    0.043924
    55  H    0.018255
    56  H    0.017648
    57  H    0.005670
    58  H    0.026947
    59  H    0.039103
    60  H    0.037319
    61  H    0.035911
    62  H    0.031181
    63  H    0.016598
    64  H    0.009613
    65  H    0.023313
    66  H    0.012566
    67  H    0.004855
    68  H    0.006434
    69  H    0.004894
    70  H    0.008762
    71  H    0.018038
    72  H    0.028960
    73  H    0.048023
    74  H    0.009240
    75  H    0.046128
    76  H    0.035251
    77  H    0.043295
    78  H    0.046026
    79  H    0.053639
    80  Mg   0.838048
    81  C   -0.016660
    82  C   -0.087835
    83  C   -0.045623
    84  C   -0.064806
    85  N   -0.254596
    86  C   -0.049332
    87  C   -0.015174
    88  C   -0.090651
    89  C    0.045935
    90  C    0.114365
    91  C    0.062574
    92  C   -0.077687
    93  H    0.034518
    94  N   -0.423452
    95  C    0.162859
    96  C   -0.174943
    97  C   -0.008038
    98  C    0.152083
    99  C    0.099563
   100  C    0.015364
   101  O   -0.253356
   102  C    0.061297
   103  N   -0.350007
   104  C    0.037568
   105  C   -0.019845
   106  C   -0.034785
   107  C    0.089019
   108  C    0.073677
   109  C    0.034774
   110  C   -0.007626
   111  N   -0.324230
   112  C    0.078707
   113  C   -0.162919
   114  C    0.002684
   115  C    0.096224
   116  C    0.131358
   117  C    0.042831
   118  O   -0.187355
   119  C    0.000695
   120  C    0.211160
   121  O   -0.251390
   122  O   -0.305241
   123  C    0.152146
   124  H   -0.020158
   125  H   -0.015783
   126  H   -0.040543
   127  H    0.000035
   128  H   -0.004954
   129  H    0.024315
   130  H    0.014451
   131  H    0.015682
   132  H    0.013625
   133  H    0.037613
   134  H    0.021015
   135  H    0.019177
   136  H    0.008417
   137  H    0.025472
   138  H    0.039423
   139  H    0.037869
   140  H    0.036101
   141  H    0.033769
   142  H    0.014152
   143  H    0.012437
   144  H    0.024929
   145  H    0.011934
   146  H    0.005647
   147  H    0.006066
   148  H    0.003564
   149  H    0.010818
   150  H    0.017739
   151  H    0.030192
   152  H    0.045915
   153  H    0.008187
   154  H    0.047860
   155  H    0.036516
   156  H    0.044080
   157  H    0.049243
   158  H    0.053300
 Sum of Mulliken charges =  -0.00000

 Dipole moment (field-independent basis, Debye):
    X=             -4.2610    Y=             -2.2564    Z=             -7.4397  Tot=              8.8655
 Quadrupole moment (field-independent basis, Debye-Ang):
   XX=           -517.7961   YY=           -550.7126   ZZ=           -448.5269
   XY=             -0.7773   XZ=             -0.1975   YZ=            -47.7382

 Normal termination of Gaussian 16 at Sat Sep  4 07:07:24 2021.
