 Gaussian 16, Revision A.03,
 Gaussian 16:  ES64L-G16RevA.03 25-Dec-2016

 -----------------------------------
 #p cam-b3lyp/Def2SVP td=(nstates=5)
 -----------------------------------

 --------------------------------
 TDDFT excited states in gaussian
 --------------------------------
 Symbolic Z-matrix:
 Charge =  0 Multiplicity = 1

                         Standard orientation:
 ---------------------------------------------------------------------
 Center     Atomic      Atomic             Coordinates (Angstroms)
 Number     Number       Type             X           Y           Z
 ---------------------------------------------------------------------
      1         12           0        6.781351   -0.540077    0.562840
      2          6           0        7.068292    2.472573   -1.348657
      3          6           0        7.417537    1.337606    3.340005
      4          6           0        6.983236   -3.242152    2.210462
      5          6           0        7.296496   -2.296236   -2.402997
      6          7           0        7.174455    1.621656    0.833080
      7          6           0        7.197559    2.678255    0.026708
      8          6           0        7.296485    4.034162    0.787698
      9          6           0        7.961323    3.515473    2.140824
     10          6           0        7.459984    2.082191    2.123936
     11          6           0        9.486132    3.502936    2.104714
     12          6           0        5.891156    4.673601    1.048269
     13          6           0        5.912190    6.139861    1.489851
     14          1           0        4.850242    7.023899    1.033681
     15          7           0        6.663535   -0.866625    2.507663
     16          6           0        6.943891    0.016884    3.495640
     17          6           0        6.703561   -0.701832    4.765431
     18          6           0        6.443882   -2.131136    4.437175
     19          6           0        6.715868   -2.142517    3.022511
     20          6           0        6.686402   -0.026766    6.102495
     21          6           0        6.028325   -3.303318    5.268699
     22          8           0        6.084387   -4.502752    4.829621
     23          6           0        5.632454   -3.015071    6.659110
     24          7           0        7.312233   -2.488756    0.035157
     25          6           0        7.259817   -3.483843    0.927366
     26          6           0        7.406328   -4.820839    0.263351
     27          6           0        7.326742   -4.545360   -1.307486
     28          6           0        7.224310   -3.000541   -1.271267
     29          6           0        8.696667   -5.588584    0.582102
     30          6           0        6.261419   -5.336647   -2.107093
     31          6           0        4.875870   -4.889017   -1.698458
     32          7           0        6.947698   -0.042920   -1.543391
     33          6           0        7.184177   -0.930504   -2.603082
     34          6           0        7.323463   -0.117100   -3.824983
     35          6           0        7.173855    1.196868   -3.385721
     36          6           0        6.981149    1.205509   -1.974664
     37          6           0        7.615170   -0.611884   -5.126724
     38          6           0        7.156536    2.597149   -3.776580
     39          8           0        7.175154    3.197550   -4.852063
     40          6           0        7.209170    3.486475   -2.456673
     41          6           0        6.147909    4.545676   -2.579672
     42          8           0        4.937502    4.241916   -2.576605
     43          8           0        6.710135    5.756322   -2.442634
     44          6           0        5.707003    6.851348   -2.525079
     45          1           0        7.838263    1.780340    4.244945
     46          1           0        6.951601   -4.205688    2.723331
     47          1           0        7.374227   -2.780331   -3.378222
     48          1           0        7.942555    4.774365    0.315346
     49          1           0        7.573796    4.042225    3.012648
     50          1           0        9.862920    3.730802    1.107704
     51          1           0        9.775978    2.494299    2.399899
     52          1           0        9.897080    4.167446    2.865191
     53          1           0        5.448300    4.219260    1.934562
     54          1           0        5.251690    4.570448    0.170905
     55          1           0        6.888153    6.594256    1.316848
     56          1           0        5.786208    6.172462    2.572102
     57          1           0        7.073327    0.989740    6.042912
     58          1           0        7.401747   -0.553108    6.734123
     59          1           0        5.698963   -0.054375    6.563510
     60          1           0        6.463842   -2.537973    7.178457
     61          1           0        5.281975   -3.959501    7.073919
     62          1           0        4.818792   -2.289232    6.651319
     63          1           0        6.596640   -5.490659    0.550010
     64          1           0        8.264927   -4.778377   -1.811654
     65          1           0        8.524009   -6.580748    0.999841
     66          1           0        9.293777   -4.977882    1.258706
     67          1           0        9.377584   -5.707744   -0.260258
     68          1           0        6.333356   -6.400728   -1.884602
     69          1           0        6.356218   -5.216337   -3.186347
     70          1           0        4.683645   -5.479014   -0.803033
     71          1           0        4.154223   -5.122263   -2.482060
     72          1           0        4.867097   -3.839116   -1.405002
     73          1           0        6.955086   -0.078609   -5.810738
     74          1           0        7.459549   -1.688910   -5.185030
     75          1           0        8.665794   -0.336309   -5.216745
     76          1           0        8.210161    3.913798   -2.406325
     77          1           0        6.033607    7.526990   -3.315693
     78          1           0        5.610205    7.259323   -1.518802
     79          1           0        4.717457    6.572194   -2.888687
     80         12           0       -6.404356   -0.786921   -0.406520
     81          6           0       -8.931660    1.590053    0.510997
     82          6           0       -4.478471    1.857842   -1.371300
     83          6           0       -4.345345   -2.863173   -1.638217
     84          6           0       -8.902169   -3.216885   -0.450320
     85          7           0       -6.768065    1.394694   -0.383301
     86          6           0       -7.740761    2.185102    0.045034
     87          6           0       -7.388274    3.696826    0.044761
     88          6           0       -6.238280    3.675403   -1.075919
     89          6           0       -5.768408    2.230945   -0.916388
     90          6           0       -6.770955    3.851182   -2.488257
     91          6           0       -6.831808    4.181076    1.429631
     92          6           0       -6.758217    5.700351    1.597433
     93          1           0       -7.025967    6.268790    2.915633
     94          7           0       -4.497059   -0.561469   -0.906484
     95          6           0       -3.875458    0.586874   -1.247352
     96          6           0       -2.483235    0.217356   -1.546234
     97          6           0       -2.374425   -1.266502   -1.513634
     98          6           0       -3.769772   -1.630011   -1.368848
     99          6           0       -1.396893    1.233612   -1.747477
    100          6           0       -1.208904   -2.203653   -1.611137
    101          8           0       -1.369994   -3.461349   -1.798430
    102          6           0        0.128050   -1.593153   -1.574406
    103          7           0       -6.625494   -2.707990   -1.170030
    104          6           0       -5.560001   -3.410785   -1.592785
    105          6           0       -5.922433   -4.855977   -1.838660
    106          6           0       -7.402583   -5.032262   -1.259300
    107          6           0       -7.686082   -3.572794   -0.840990
    108          6           0       -5.889640   -5.311121   -3.297476
    109          6           0       -7.618330   -6.157104   -0.210075
    110          6           0       -6.885427   -5.818233    1.067971
    111          7           0       -8.493943   -0.879474    0.134873
    112          6           0       -9.358597   -1.989140    0.011973
    113          6           0      -10.709285   -1.533706    0.400091
    114          6           0      -10.539819   -0.174109    0.702166
    115          6           0       -9.183561    0.196825    0.496099
    116          6           0      -11.889478   -2.329461    0.393084
    117          6           0      -11.202008    1.034194    1.138304
    118          8           0      -12.330854    1.308245    1.543698
    119          6           0      -10.216183    2.260394    0.912533
    120          6           0      -10.211254    3.089584    2.167507
    121          8           0       -9.757345    2.626990    3.228910
    122          8           0      -10.539732    4.357426    1.859226
    123          6           0      -10.537665    5.221118    3.069955
    124          1           0       -3.885681    2.595746   -1.912577
    125          1           0       -3.654449   -3.645714   -1.960345
    126          1           0       -9.715407   -3.937947   -0.343545
    127          1           0       -8.195022    4.351314   -0.262797
    128          1           0       -5.435812    4.366583   -0.831658
    129          1           0       -7.850458    3.843191   -2.515616
    130          1           0       -6.371903    3.022484   -3.058413
    131          1           0       -6.353068    4.755979   -2.938859
    132          1           0       -5.764471    3.933115    1.493150
    133          1           0       -7.395611    3.755274    2.236748
    134          1           0       -7.333290    6.228469    0.827154
    135          1           0       -5.726845    6.018704    1.427326
    136          1           0       -1.808560    2.242063   -1.877705
    137          1           0       -0.921948    1.007939   -2.708404
    138          1           0       -0.638692    1.200811   -0.962164
    139          1           0        0.222053   -0.880280   -2.390146
    140          1           0        0.830701   -2.428672   -1.566301
    141          1           0        0.226445   -1.022075   -0.644464
    142          1           0       -5.254085   -5.518832   -1.302889
    143          1           0       -8.124053   -5.277626   -2.052459
    144          1           0       -5.216930   -6.172176   -3.471040
    145          1           0       -5.596325   -4.469681   -3.911051
    146          1           0       -6.856787   -5.578823   -3.719572
    147          1           0       -7.194762   -7.097681   -0.570699
    148          1           0       -8.663028   -6.340727    0.017680
    149          1           0       -5.864468   -6.154278    0.863499
    150          1           0       -7.316377   -6.355166    1.910603
    151          1           0       -6.850198   -4.734028    1.225827
    152          1           0      -12.420859   -2.106339    1.308695
    153          1           0      -11.654142   -3.389000    0.317190
    154          1           0      -12.374550   -1.950966   -0.510633
    155          1           0      -10.583171    2.821722    0.052421
    156          1           0      -11.524501    5.690511    3.129232
    157          1           0       -9.666286    5.893041    2.956113
    158          1           0      -10.478107    4.731373    4.034864
 ---------------------------------------------------------------------

 SCF Done:  E(RCAM-B3LYP) =  -4069.81231318     A.U. after   19 cycles

 Excitation energies and oscillator strengths:

 Excited State   1:      Singlet-A      1.6696 eV  742.62 nm  f=0.2848  <S**2>=0.000
     309 -> 315        0.10727
     310 -> 316        0.13562
     311 -> 313       -0.42389
     312 -> 314        0.53979
 This state for optimization and/or second-order correction.
 Total Energy, E(TD-HF/TD-DFT) =  -4069.75095801
 Copying the excited state density for this state as the 1-particle RhoCI density.

 Excited State   2:      Singlet-A      1.6849 eV  735.85 nm  f=0.4980  <S**2>=0.000
     309 -> 315       -0.13936
     310 -> 316        0.10864
     311 -> 313        0.53905
     312 -> 314        0.42348

 Excited State   3:      Singlet-A      2.1872 eV  566.86 nm  f=0.0324  <S**2>=0.000
     309 -> 313       -0.23443
     310 -> 314        0.59854
     312 -> 316       -0.25470

 Excited State   4:      Singlet-A      2.1950 eV  564.84 nm  f=0.1549  <S**2>=0.000
     309 -> 313        0.59633
     310 -> 314        0.23271
     311 -> 315        0.26065
     312 -> 316       -0.10153

 Excited State   5:      Singlet-A      2.6089 eV  475.23 nm  f=0.0000  <S**2>=0.000
     312 -> 313        0.70692

 The electronic state is 1-A.
 Alpha  occ. eigenvalues --  -46.87944 -46.87515 -19.26538 -19.26268 -19.19290
 Alpha  occ. eigenvalues --  -19.19071 -19.18901 -19.18521 -19.18338 -19.17920
 Alpha  occ. eigenvalues --  -14.42597 -14.42353 -14.41575 -14.41216 -14.39542
 Alpha  occ. eigenvalues --  -14.39199 -14.38739 -14.38455 -10.39338 -10.38998
 Alpha  occ. eigenvalues --  -10.35532 -10.35191 -10.34563 -10.34100 -10.31944
 Alpha  occ. eigenvalues --  -10.31693 -10.31560 -10.31170 -10.31060 -10.30866
 Alpha  occ. eigenvalues --  -10.30718 -10.30641 -10.30307 -10.30256 -10.30211
 Alpha  occ. eigenvalues --  -10.30039 -10.29984 -10.29768 -10.29763 -10.29380
 Alpha  occ. eigenvalues --  -10.29269 -10.29231 -10.28929 -10.28766 -10.28593
 Alpha  occ. eigenvalues --  -10.28575 -10.28514 -10.28278 -10.28248 -10.28002
 Alpha  occ. eigenvalues --  -10.27931 -10.27865 -10.27842 -10.27712 -10.27587
 Alpha  occ. eigenvalues --  -10.27555 -10.27546 -10.27510 -10.27502 -10.27397
 Alpha  occ. eigenvalues --  -10.27346 -10.27340 -10.27289 -10.27259 -10.27112
 Alpha  occ. eigenvalues --  -10.26934 -10.26930 -10.26591 -10.26469 -10.26374
 Alpha  occ. eigenvalues --  -10.26169 -10.26143 -10.26135 -10.26033 -10.25969
 Alpha  occ. eigenvalues --  -10.25880 -10.25789 -10.25731 -10.25480 -10.25289
 Alpha  occ. eigenvalues --  -10.24980 -10.24909 -10.24721 -10.24631 -10.24626
 Alpha  occ. eigenvalues --  -10.24548  -3.16689  -3.16265  -1.91571  -1.91156
 Alpha  occ. eigenvalues --   -1.91148  -1.90998  -1.90736  -1.90573  -1.16887
 Alpha  occ. eigenvalues --   -1.16559  -1.08805  -1.08533  -1.07298  -1.06907
 Alpha  occ. eigenvalues --   -1.06855  -1.06773  -1.04730  -1.04349  -1.03889
 Alpha  occ. eigenvalues --   -1.03517  -1.03371  -1.02892  -1.02547  -1.01964
 Alpha  occ. eigenvalues --   -0.92129  -0.91847  -0.89606  -0.89361  -0.89355
 Alpha  occ. eigenvalues --   -0.89020  -0.88364  -0.88093  -0.88009  -0.87814
 Alpha  occ. eigenvalues --   -0.87654  -0.87538  -0.87387  -0.86896  -0.85142
 Alpha  occ. eigenvalues --   -0.84865  -0.84005  -0.83756  -0.83047  -0.82792
 Alpha  occ. eigenvalues --   -0.82732  -0.82489  -0.81766  -0.81480  -0.80747
 Alpha  occ. eigenvalues --   -0.80304  -0.78920  -0.78441  -0.77342  -0.77085
 Alpha  occ. eigenvalues --   -0.76993  -0.76780  -0.76082  -0.75696  -0.74990
 Alpha  occ. eigenvalues --   -0.74672  -0.72902  -0.72550  -0.71804  -0.71443
 Alpha  occ. eigenvalues --   -0.69945  -0.69637  -0.69022  -0.68685  -0.67779
 Alpha  occ. eigenvalues --   -0.67456  -0.67382  -0.67051  -0.65452  -0.65142
 Alpha  occ. eigenvalues --   -0.65005  -0.64760  -0.64634  -0.64525  -0.64358
 Alpha  occ. eigenvalues --   -0.64075  -0.62483  -0.62166  -0.60550  -0.60150
 Alpha  occ. eigenvalues --   -0.59962  -0.59657  -0.59122  -0.58854  -0.58642
 Alpha  occ. eigenvalues --   -0.58284  -0.57773  -0.57435  -0.57424  -0.57086
 Alpha  occ. eigenvalues --   -0.56450  -0.56180  -0.56044  -0.55766  -0.55647
 Alpha  occ. eigenvalues --   -0.55455  -0.55284  -0.55128  -0.54658  -0.54376
 Alpha  occ. eigenvalues --   -0.54065  -0.53781  -0.53419  -0.53368  -0.53079
 Alpha  occ. eigenvalues --   -0.53079  -0.52986  -0.52876  -0.52770  -0.52465
 Alpha  occ. eigenvalues --   -0.52447  -0.52283  -0.52053  -0.51777  -0.51756
 Alpha  occ. eigenvalues --   -0.51501  -0.51333  -0.51070  -0.50661  -0.50235
 Alpha  occ. eigenvalues --   -0.50109  -0.50021  -0.49803  -0.49716  -0.49655
 Alpha  occ. eigenvalues --   -0.49362  -0.49319  -0.49249  -0.49039  -0.48972
 Alpha  occ. eigenvalues --   -0.48759  -0.48576  -0.48547  -0.48424  -0.48252
 Alpha  occ. eigenvalues --   -0.48146  -0.47821  -0.47432  -0.47419  -0.46933
 Alpha  occ. eigenvalues --   -0.46919  -0.46720  -0.46571  -0.46490  -0.46414
 Alpha  occ. eigenvalues --   -0.46292  -0.46109  -0.45988  -0.45954  -0.45706
 Alpha  occ. eigenvalues --   -0.45283  -0.45077  -0.44735  -0.44621  -0.44384
 Alpha  occ. eigenvalues --   -0.44334  -0.44268  -0.44213  -0.44154  -0.43989
 Alpha  occ. eigenvalues --   -0.43930  -0.43752  -0.43664  -0.43518  -0.43443
 Alpha  occ. eigenvalues --   -0.43250  -0.43161  -0.42912  -0.42819  -0.42766
 Alpha  occ. eigenvalues --   -0.42721  -0.42408  -0.42107  -0.41844  -0.41843
 Alpha  occ. eigenvalues --   -0.41683  -0.41534  -0.41330  -0.41275  -0.41005
 Alpha  occ. eigenvalues --   -0.40930  -0.40850  -0.40650  -0.40584  -0.40531
 Alpha  occ. eigenvalues --   -0.40419  -0.40370  -0.40095  -0.39463  -0.39309
 Alpha  occ. eigenvalues --   -0.38559  -0.38228  -0.37931  -0.37537  -0.37432
 Alpha  occ. eigenvalues --   -0.37418  -0.37134  -0.37058  -0.36920  -0.36675
 Alpha  occ. eigenvalues --   -0.36338  -0.36096  -0.34429  -0.34112  -0.34020
 Alpha  occ. eigenvalues --   -0.33762  -0.33330  -0.33031  -0.31433  -0.31171
 Alpha  occ. eigenvalues --   -0.31085  -0.30827  -0.30202  -0.29828  -0.29582
 Alpha  occ. eigenvalues --   -0.29468  -0.29156  -0.29058  -0.24222  -0.23893
 Alpha  occ. eigenvalues --   -0.21261  -0.20965
 Alpha virt. eigenvalues --   -0.08908  -0.08633  -0.01877  -0.01537  -0.00183
 Alpha virt. eigenvalues --    0.00148   0.02055   0.02346   0.02829   0.03348
 Alpha virt. eigenvalues --    0.04562   0.04855   0.04861   0.05263   0.05978

 Mulliken charges:
               1
     1  Mg   0.836581
     2  C   -0.004012
     3  C   -0.094344
     4  C   -0.045345
     5  C   -0.063482
     6  N   -0.256884
     7  C   -0.052952
     8  C   -0.013827
     9  C   -0.086944
    10  C    0.046053
    11  C    0.104714
    12  C    0.053498
    13  C   -0.071607
    14  H    0.034919
    15  N   -0.433356
    16  C    0.168315
    17  C   -0.177089
    18  C   -0.003683
    19  C    0.148625
    20  C    0.110096
    21  C    0.012634
    22  O   -0.248717
    23  C    0.062367
    24  N   -0.341193
    25  C    0.041365
    26  C   -0.028317
    27  C   -0.024106
    28  C    0.074832
    29  C    0.076046
    30  C    0.034875
    31  C   -0.005149
    32  N   -0.310266
    33  C    0.079701
    34  C   -0.170001
    35  C    0.008095
    36  C    0.081959
    37  C    0.127431
    38  C    0.045331
    39  O   -0.188843
    40  C   -0.005001
    41  C    0.213255
    42  O   -0.259378
    43  O   -0.304205
    44  C    0.157941
    45  H   -0.017300
    46  H   -0.016023
    47  H   -0.040906
    48  H    0.001052
    49  H   -0.004007
    50  H    0.025583
    51  H    0.016802
    52  H    0.016964
    53  H    0.010863
    54  H    0.042523
    55  H    0.018508
    56  H    0.018389
    57  H    0.005867
    58  H    0.027324
    59  H    0.039863
    60  H    0.037393
    61  H    0.036446
    62  H    0.031567
    63  H    0.017546
    64  H    0.009548
    65  H    0.023792
    66  H    0.012344
    67  H    0.004960
    68  H    0.007139
    69  H    0.004747
    70  H    0.010127
    71  H    0.021564
    72  H    0.026582
    73  H    0.047017
    74  H    0.009706
    75  H    0.046258
    76  H    0.035534
    77  H    0.043403
    78  H    0.046588
    79  H    0.052296
    80  Mg   0.837251
    81  C   -0.016910
    82  C   -0.087582
    83  C   -0.045560
    84  C   -0.064968
    85  N   -0.254508
    86  C   -0.050250
    87  C   -0.015071
    88  C   -0.090438
    89  C    0.045524
    90  C    0.114306
    91  C    0.062580
    92  C   -0.077593
    93  H    0.033946
    94  N   -0.423598
    95  C    0.162638
    96  C   -0.174180
    97  C   -0.007674
    98  C    0.152243
    99  C    0.099147
   100  C    0.015346
   101  O   -0.253992
   102  C    0.060628
   103  N   -0.350006
   104  C    0.037686
   105  C   -0.019859
   106  C   -0.034632
   107  C    0.088605
   108  C    0.073725
   109  C    0.034851
   110  C   -0.007610
   111  N   -0.323947
   112  C    0.077968
   113  C   -0.163578
   114  C    0.002030
   115  C    0.095853
   116  C    0.131590
   117  C    0.042044
   118  O   -0.188637
   119  C    0.000990
   120  C    0.211202
   121  O   -0.251302
   122  O   -0.305579
   123  C    0.152181
   124  H   -0.018418
   125  H   -0.015728
   126  H   -0.040915
   127  H   -0.000908
   128  H   -0.004136
   129  H    0.022182
   130  H    0.014811
   131  H    0.016540
   132  H    0.013862
   133  H    0.037368
   134  H    0.020803
   135  H    0.019579
   136  H    0.009675
   137  H    0.029611
   138  H    0.041421
   139  H    0.041952
   140  H    0.036014
   141  H    0.033389
   142  H    0.014239
   143  H    0.012137
   144  H    0.024804
   145  H    0.011880
   146  H    0.005479
   147  H    0.005936
   148  H    0.003400
   149  H    0.010904
   150  H    0.017577
   151  H    0.030214
   152  H    0.045538
   153  H    0.008192
   154  H    0.046608
   155  H    0.034827
   156  H    0.043657
   157  H    0.049379
   158  H    0.053279
 Sum of Mulliken charges =  -0.00000

 Dipole moment (field-independent basis, Debye):
    X=              5.0756    Y=              2.8531    Z=              1.7271  Tot=              6.0733
 Quadrupole moment (field-independent basis, Debye-Ang):
   XX=           -548.6095   YY=           -468.7953   ZZ=           -516.3307
   XY=             13.9959   XZ=             54.3022   YZ=             32.6922

 Normal termination of Gaussian 16 at Sat Sep 11 03:27:14 2021.
