 Gaussian 16, Revision A.03,
 Gaussian 16:  ES64L-G16RevA.03 25-Dec-2016

 -----------------------------------
 #p cam-b3lyp/Def2SVP td=(nstates=5)
 -----------------------------------

 --------------------------------
 TDDFT excited states in gaussian
 --------------------------------
 Symbolic Z-matrix:
 Charge =  0 Multiplicity = 1

                         Standard orientation:
 ---------------------------------------------------------------------
 Center     Atomic      Atomic             Coordinates (Angstroms)
 Number     Number       Type             X           Y           Z
 ---------------------------------------------------------------------
      1         12           0        6.468784   -0.957356    0.272813
      2          6           0        7.054079    1.993458   -1.666862
      3          6           0        7.646738    0.763986    2.973270
      4          6           0        6.389168   -3.675950    1.903620
      5          6           0        6.424661   -2.738928   -2.722136
      6          7           0        7.223211    1.111587    0.498549
      7          6           0        7.339811    2.160335   -0.309971
      8          6           0        7.722060    3.474667    0.434201
      9          6           0        8.417241    2.841787    1.721906
     10          6           0        7.695280    1.506298    1.756040
     11          6           0        9.910913    2.588298    1.545307
     12          6           0        6.465942    4.325612    0.821226
     13          6           0        6.759878    5.764886    1.254180
     14          1           0        5.814497    6.811127    0.895042
     15          7           0        6.479284   -1.283327    2.221269
     16          6           0        6.985679   -0.466730    3.176266
     17          6           0        6.751635   -1.152771    4.465162
     18          6           0        6.239347   -2.519052    4.166947
     19          6           0        6.375318   -2.557202    2.733269
     20          6           0        6.964440   -0.498836    5.795888
     21          6           0        5.720897   -3.620040    5.037101
     22          8           0        5.545345   -4.808114    4.598654
     23          6           0        5.504877   -3.288638    6.457154
     24          7           0        6.632927   -2.959364   -0.295216
     25          6           0        6.505142   -3.943719    0.601278
     26          6           0        6.376058   -5.279365   -0.069041
     27          6           0        6.197652   -4.976821   -1.626729
     28          6           0        6.345552   -3.435796   -1.586272
     29          6           0        7.551836   -6.245395    0.131812
     30          6           0        4.951491   -5.580184   -2.322038
     31          6           0        3.697928   -4.923440   -1.788778
     32          7           0        6.518292   -0.468785   -1.841399
     33          6           0        6.512758   -1.370450   -2.915477
     34          6           0        6.666892   -0.575465   -4.147674
     35          6           0        6.768684    0.740504   -3.700788
     36          6           0        6.709885    0.763432   -2.278006
     37          6           0        6.755842   -1.095297   -5.469149
     38          6           0        6.938181    2.130226   -4.092965
     39          8           0        6.953285    2.732351   -5.167539
     40          6           0        7.252044    2.984843   -2.786464
     41          6           0        6.365672    4.200108   -2.814491
     42          8           0        5.127826    4.091891   -2.698765
     43          8           0        7.123145    5.304769   -2.733876
     44          6           0        6.303319    6.545734   -2.727002
     45          1           0        8.213533    1.124117    3.834078
     46          1           0        6.252069   -4.628109    2.420373
     47          1           0        6.334871   -3.218045   -3.698782
     48          1           0        8.431436    4.108540   -0.098167
     49          1           0        8.199784    3.413272    2.624036
     50          1           0       10.226158    2.764986    0.517045
     51          1           0       10.062745    1.543177    1.815793
     52          1           0       10.490074    3.170590    2.262444
     53          1           0        6.039647    3.937054    1.746081
     54          1           0        5.740556    4.335085    0.006946
     55          1           0        7.775601    6.060903    0.990381
     56          1           0        6.740354    5.804658    2.343325
     57          1           0        7.500746    0.444163    5.697531
     58          1           0        7.641959   -1.139026    6.360542
     59          1           0        6.031584   -0.374957    6.346129
     60          1           0        6.445506   -2.955220    6.896013
     61          1           0        5.048387   -4.170309    6.905621
     62          1           0        4.819534   -2.443040    6.522091
     63          1           0        5.500001   -5.815709    0.293293
     64          1           0        7.036756   -5.349724   -2.214540
     65          1           0        7.262842   -7.202393    0.566946
     66          1           0        8.297777   -5.744756    0.748435
     67          1           0        8.125126   -6.461269   -0.769384
     68          1           0        4.873643   -6.644699   -2.103649
     69          1           0        4.964914   -5.464081   -3.405823
     70          1           0        3.497315   -5.485735   -0.877510
     71          1           0        2.879689   -5.030462   -2.501688
     72          1           0        3.882885   -3.888827   -1.499205
     73          1           0        6.128950   -0.456416   -6.091086
     74          1           0        6.426513   -2.133339   -5.509320
     75          1           0        7.824171   -0.988605   -5.656622
     76          1           0        8.308534    3.247614   -2.830086
     77          1           0        6.659235    7.170105   -3.546586
     78          1           0        6.365124    6.952362   -1.717429
     79          1           0        5.252908    6.431018   -2.996844
     80         12           0       -6.635314    0.896068    0.510717
     81          6           0       -6.907230   -2.283266   -1.131542
     82          6           0       -5.622987    2.186383   -2.480081
     83          6           0       -5.954708    3.602022    2.021343
     84          6           0       -6.552657   -0.830380    3.536975
     85          7           0       -6.342892   -0.029103   -1.476953
     86          6           0       -6.536689   -1.232167   -1.996020
     87          6           0       -6.399332   -1.295867   -3.540892
     88          6           0       -5.454711   -0.014362   -3.751367
     89          6           0       -5.851147    0.787483   -2.513398
     90          6           0       -3.972730   -0.337101   -3.657015
     91          6           0       -7.776929   -1.120168   -4.271206
     92          6           0       -7.766396   -1.478375   -5.758927
     93          1           0       -8.957223   -2.097626   -6.334196
     94          7           0       -6.372871    2.731306   -0.197507
     95          6           0       -5.981186    3.074813   -1.442438
     96          6           0       -5.919768    4.544606   -1.453699
     97          6           0       -6.147606    5.034244   -0.066955
     98          6           0       -6.146538    3.779995    0.658967
     99          6           0       -5.744041    5.342052   -2.713303
    100          6           0       -6.322994    6.405461    0.512008
    101          8           0       -6.270670    6.614648    1.775466
    102          6           0       -6.464546    7.509458   -0.448525
    103          7           0       -6.089247    1.317056    2.472074
    104          6           0       -5.902738    2.584318    2.880939
    105          6           0       -5.788590    2.661095    4.384755
    106          6           0       -6.180593    1.206041    4.920217
    107          6           0       -6.375624    0.483303    3.569289
    108          6           0       -4.414020    3.049981    4.928578
    109          6           0       -7.320613    1.126803    5.972237
    110          6           0       -8.634666    1.526003    5.340344
    111          7           0       -6.897738   -1.154297    1.139356
    112          6           0       -6.795957   -1.663542    2.452519
    113          6           0       -6.940209   -3.131041    2.362790
    114          6           0       -7.094112   -3.377846    0.990239
    115          6           0       -7.028744   -2.152735    0.273076
    116          6           0       -6.871600   -4.041963    3.454400
    117          6           0       -7.286365   -4.397247   -0.016025
    118          8           0       -7.499602   -5.608784    0.004435
    119          6           0       -7.047365   -3.746754   -1.446458
    120          6           0       -8.180888   -4.165254   -2.342283
    121          8           0       -9.342186   -3.784552   -2.111953
    122          8           0       -7.678770   -4.761840   -3.438794
    123          6           0       -8.764189   -5.184962   -4.363268
    124          1           0       -5.080433    2.643429   -3.308113
    125          1           0       -5.826457    4.517802    2.603040
    126          1           0       -6.636219   -1.430678    4.445451
    127          1           0       -5.908414   -2.185436   -3.916994
    128          1           0       -5.718546    0.526419   -4.656531
    129          1           0       -3.801507   -1.356842   -3.345633
    130          1           0       -3.566935    0.353792   -2.929667
    131          1           0       -3.475436   -0.105149   -4.603181
    132          1           0       -8.013320   -0.050350   -4.337208
    133          1           0       -8.546710   -1.675298   -3.771305
    134          1           0       -6.867069   -2.038975   -6.041569
    135          1           0       -7.699085   -0.554120   -6.337932
    136          1           0       -5.437479    4.705815   -3.552715
    137          1           0       -4.890599    6.009653   -2.552666
    138          1           0       -6.622346    5.943625   -2.956959
    139          1           0       -5.588019    7.543615   -1.091177
    140          1           0       -6.669084    8.396607    0.153974
    141          1           0       -7.322538    7.300865   -1.097327
    142          1           0       -6.486313    3.384124    4.789137
    143          1           0       -5.333474    0.714054    5.420401
    144          1           0       -4.439010    3.944989    5.578503
    145          1           0       -3.747431    3.206774    4.090951
    146          1           0       -3.901454    2.269873    5.488857
    147          1           0       -7.137820    1.836395    6.782923
    148          1           0       -7.426376    0.144939    6.421411
    149          1           0       -8.612039    2.618615    5.393163
    150          1           0       -9.470802    1.120702    5.906605
    151          1           0       -8.662285    1.247725    4.280418
    152          1           0       -7.673210   -4.755169    3.315609
    153          1           0       -6.957987   -3.526312    4.408556
    154          1           0       -5.871435   -4.455804    3.300529
    155          1           0       -6.083645   -4.103658   -1.811765
    156          1           0       -8.632361   -6.256664   -4.541507
    157          1           0       -8.687510   -4.515265   -5.240409
    158          1           0       -9.780838   -5.156291   -3.989029
 ---------------------------------------------------------------------

 SCF Done:  E(RCAM-B3LYP) =  -4069.81198019     A.U. after   19 cycles

 Excitation energies and oscillator strengths:

 Excited State   1:      Singlet-A      1.6709 eV  742.03 nm  f=0.2023  <S**2>=0.000
     309 -> 315        0.10063
     310 -> 316        0.14010
     311 -> 313        0.39806
     312 -> 314        0.55898
 This state for optimization and/or second-order correction.
 Total Energy, E(TD-HF/TD-DFT) =  -4069.75057679
 Copying the excited state density for this state as the 1-particle RhoCI density.

 Excited State   2:      Singlet-A      1.6836 eV  736.41 nm  f=0.5313  <S**2>=0.000
     309 -> 315        0.14376
     310 -> 316       -0.10188
     311 -> 313        0.55832
     312 -> 314       -0.39771

 Excited State   3:      Singlet-A      2.1860 eV  567.18 nm  f=0.0871  <S**2>=0.000
     310 -> 314        0.63568
     312 -> 316       -0.26969

 Excited State   4:      Singlet-A      2.1929 eV  565.40 nm  f=0.1097  <S**2>=0.000
     309 -> 313        0.63395
     311 -> 315       -0.27521

 Excited State   5:      Singlet-A      2.6468 eV  468.43 nm  f=0.0000  <S**2>=0.000
     312 -> 313        0.70710

 The electronic state is 1-A.
 Alpha  occ. eigenvalues --  -46.87858 -46.87550 -19.26384 -19.26261 -19.19125
 Alpha  occ. eigenvalues --  -19.19070 -19.18861 -19.18618 -19.18253 -19.17950
 Alpha  occ. eigenvalues --  -14.42511 -14.42379 -14.41508 -14.41255 -14.39463
 Alpha  occ. eigenvalues --  -14.39240 -14.38653 -14.38491 -10.39180 -10.38998
 Alpha  occ. eigenvalues --  -10.35494 -10.35295 -10.34473 -10.34127 -10.31784
 Alpha  occ. eigenvalues --  -10.31676 -10.31471 -10.31184 -10.30968 -10.30901
 Alpha  occ. eigenvalues --  -10.30638 -10.30571 -10.30296 -10.30259 -10.30248
 Alpha  occ. eigenvalues --  -10.30039 -10.29981 -10.29802 -10.29695 -10.29323
 Alpha  occ. eigenvalues --  -10.29313 -10.29294 -10.28808 -10.28592 -10.28584
 Alpha  occ. eigenvalues --  -10.28537 -10.28429 -10.28290 -10.28174 -10.27984
 Alpha  occ. eigenvalues --  -10.27889 -10.27860 -10.27787 -10.27646 -10.27545
 Alpha  occ. eigenvalues --  -10.27539 -10.27532 -10.27490 -10.27468 -10.27452
 Alpha  occ. eigenvalues --  -10.27373 -10.27357 -10.27318 -10.27314 -10.27239
 Alpha  occ. eigenvalues --  -10.26948 -10.26765 -10.26572 -10.26449 -10.26316
 Alpha  occ. eigenvalues --  -10.26287 -10.26224 -10.26088 -10.26080 -10.25931
 Alpha  occ. eigenvalues --  -10.25833 -10.25819 -10.25759 -10.25467 -10.25357
 Alpha  occ. eigenvalues --  -10.24903 -10.24845 -10.24763 -10.24730 -10.24681
 Alpha  occ. eigenvalues --  -10.24589  -3.16601  -3.16299  -1.91483  -1.91182
 Alpha  occ. eigenvalues --   -1.91069  -1.90912  -1.90770  -1.90607  -1.16733
 Alpha  occ. eigenvalues --   -1.16554  -1.08714  -1.08559  -1.07261  -1.06871
 Alpha  occ. eigenvalues --   -1.06855  -1.06746  -1.04643  -1.04376  -1.03819
 Alpha  occ. eigenvalues --   -1.03553  -1.03296  -1.02934  -1.02473  -1.02003
 Alpha  occ. eigenvalues --   -0.92041  -0.91878  -0.89574  -0.89406  -0.89247
 Alpha  occ. eigenvalues --   -0.89011  -0.88337  -0.88141  -0.87943  -0.87732
 Alpha  occ. eigenvalues --   -0.87689  -0.87568  -0.87329  -0.87005  -0.85041
 Alpha  occ. eigenvalues --   -0.84875  -0.83988  -0.83804  -0.83015  -0.82832
 Alpha  occ. eigenvalues --   -0.82708  -0.82535  -0.81664  -0.81497  -0.80663
 Alpha  occ. eigenvalues --   -0.80338  -0.78858  -0.78521  -0.77277  -0.77031
 Alpha  occ. eigenvalues --   -0.76998  -0.76793  -0.75991  -0.75714  -0.74950
 Alpha  occ. eigenvalues --   -0.74721  -0.72838  -0.72591  -0.71731  -0.71471
 Alpha  occ. eigenvalues --   -0.69954  -0.69687  -0.68933  -0.68707  -0.67704
 Alpha  occ. eigenvalues --   -0.67497  -0.67276  -0.67085  -0.65349  -0.65152
 Alpha  occ. eigenvalues --   -0.64921  -0.64684  -0.64666  -0.64547  -0.64324
 Alpha  occ. eigenvalues --   -0.64118  -0.62378  -0.62184  -0.60496  -0.60235
 Alpha  occ. eigenvalues --   -0.59865  -0.59667  -0.59050  -0.58889  -0.58568
 Alpha  occ. eigenvalues --   -0.58323  -0.57666  -0.57454  -0.57369  -0.57143
 Alpha  occ. eigenvalues --   -0.56376  -0.56094  -0.56060  -0.55785  -0.55580
 Alpha  occ. eigenvalues --   -0.55402  -0.55345  -0.55166  -0.54593  -0.54407
 Alpha  occ. eigenvalues --   -0.53955  -0.53778  -0.53359  -0.53283  -0.53126
 Alpha  occ. eigenvalues --   -0.53031  -0.52986  -0.52809  -0.52795  -0.52547
 Alpha  occ. eigenvalues --   -0.52488  -0.52335  -0.51995  -0.51787  -0.51678
 Alpha  occ. eigenvalues --   -0.51537  -0.51263  -0.51101  -0.50620  -0.50361
 Alpha  occ. eigenvalues --   -0.50079  -0.49972  -0.49864  -0.49775  -0.49574
 Alpha  occ. eigenvalues --   -0.49372  -0.49283  -0.49159  -0.49085  -0.48981
 Alpha  occ. eigenvalues --   -0.48664  -0.48517  -0.48503  -0.48444  -0.48297
 Alpha  occ. eigenvalues --   -0.48233  -0.47753  -0.47483  -0.47355  -0.47011
 Alpha  occ. eigenvalues --   -0.46857  -0.46615  -0.46605  -0.46429  -0.46422
 Alpha  occ. eigenvalues --   -0.46229  -0.46167  -0.45995  -0.45900  -0.45723
 Alpha  occ. eigenvalues --   -0.45251  -0.45127  -0.44652  -0.44560  -0.44413
 Alpha  occ. eigenvalues --   -0.44355  -0.44203  -0.44146  -0.44085  -0.44010
 Alpha  occ. eigenvalues --   -0.43984  -0.43830  -0.43573  -0.43459  -0.43442
 Alpha  occ. eigenvalues --   -0.43275  -0.43091  -0.42836  -0.42801  -0.42783
 Alpha  occ. eigenvalues --   -0.42712  -0.42468  -0.42067  -0.41873  -0.41769
 Alpha  occ. eigenvalues --   -0.41591  -0.41565  -0.41346  -0.41199  -0.40924
 Alpha  occ. eigenvalues --   -0.40873  -0.40871  -0.40623  -0.40615  -0.40588
 Alpha  occ. eigenvalues --   -0.40403  -0.40290  -0.40108  -0.39486  -0.39357
 Alpha  occ. eigenvalues --   -0.38518  -0.38266  -0.37807  -0.37537  -0.37374
 Alpha  occ. eigenvalues --   -0.37326  -0.37172  -0.37079  -0.36798  -0.36684
 Alpha  occ. eigenvalues --   -0.36261  -0.36124  -0.34349  -0.34145  -0.33868
 Alpha  occ. eigenvalues --   -0.33768  -0.33252  -0.33067  -0.31391  -0.31177
 Alpha  occ. eigenvalues --   -0.31097  -0.30864  -0.30114  -0.29855  -0.29511
 Alpha  occ. eigenvalues --   -0.29391  -0.29216  -0.29103  -0.24143  -0.23925
 Alpha  occ. eigenvalues --   -0.21189  -0.21006
 Alpha virt. eigenvalues --   -0.08837  -0.08681  -0.01808  -0.01577  -0.00116
 Alpha virt. eigenvalues --    0.00084   0.02129   0.02308   0.03054   0.03325
 Alpha virt. eigenvalues --    0.04659   0.04851   0.05002   0.05259   0.06119

 Mulliken charges:
               1
     1  Mg   0.838686
     2  C   -0.003113
     3  C   -0.094085
     4  C   -0.045758
     5  C   -0.064001
     6  N   -0.256843
     7  C   -0.052469
     8  C   -0.014053
     9  C   -0.087035
    10  C    0.046409
    11  C    0.104773
    12  C    0.053445
    13  C   -0.071902
    14  H    0.036150
    15  N   -0.433215
    16  C    0.168533
    17  C   -0.177033
    18  C   -0.003867
    19  C    0.148786
    20  C    0.110138
    21  C    0.012392
    22  O   -0.249211
    23  C    0.062438
    24  N   -0.341161
    25  C    0.041299
    26  C   -0.028294
    27  C   -0.023971
    28  C    0.074808
    29  C    0.076085
    30  C    0.035114
    31  C   -0.004528
    32  N   -0.310351
    33  C    0.080198
    34  C   -0.170155
    35  C    0.008145
    36  C    0.082742
    37  C    0.127445
    38  C    0.045723
    39  O   -0.188989
    40  C   -0.005155
    41  C    0.212803
    42  O   -0.257681
    43  O   -0.304592
    44  C    0.157877
    45  H   -0.017423
    46  H   -0.016507
    47  H   -0.041608
    48  H    0.000909
    49  H   -0.003875
    50  H    0.025470
    51  H    0.016517
    52  H    0.016828
    53  H    0.011353
    54  H    0.043806
    55  H    0.017897
    56  H    0.018223
    57  H    0.005994
    58  H    0.027043
    59  H    0.039640
    60  H    0.037427
    61  H    0.035940
    62  H    0.031374
    63  H    0.016918
    64  H    0.009517
    65  H    0.023580
    66  H    0.012540
    67  H    0.004831
    68  H    0.006858
    69  H    0.004445
    70  H    0.009429
    71  H    0.017857
    72  H    0.028558
    73  H    0.046851
    74  H    0.009027
    75  H    0.046141
    76  H    0.035266
    77  H    0.042863
    78  H    0.046735
    79  H    0.053051
    80  Mg   0.838018
    81  C   -0.016770
    82  C   -0.087274
    83  C   -0.045484
    84  C   -0.064985
    85  N   -0.254600
    86  C   -0.049716
    87  C   -0.015143
    88  C   -0.090473
    89  C    0.045569
    90  C    0.114053
    91  C    0.062492
    92  C   -0.077793
    93  H    0.034417
    94  N   -0.423617
    95  C    0.162816
    96  C   -0.173824
    97  C   -0.007933
    98  C    0.152381
    99  C    0.099048
   100  C    0.015597
   101  O   -0.253648
   102  C    0.061190
   103  N   -0.349994
   104  C    0.037610
   105  C   -0.019803
   106  C   -0.034686
   107  C    0.088815
   108  C    0.073797
   109  C    0.034833
   110  C   -0.007596
   111  N   -0.324063
   112  C    0.078317
   113  C   -0.163304
   114  C    0.002214
   115  C    0.096085
   116  C    0.131497
   117  C    0.042247
   118  O   -0.188247
   119  C    0.000955
   120  C    0.211240
   121  O   -0.251133
   122  O   -0.305607
   123  C    0.152107
   124  H   -0.018232
   125  H   -0.015954
   126  H   -0.040874
   127  H   -0.000745
   128  H   -0.004128
   129  H    0.022045
   130  H    0.015629
   131  H    0.017559
   132  H    0.013880
   133  H    0.037399
   134  H    0.020895
   135  H    0.019819
   136  H    0.009536
   137  H    0.027049
   138  H    0.039514
   139  H    0.038704
   140  H    0.035958
   141  H    0.033836
   142  H    0.014131
   143  H    0.012016
   144  H    0.024519
   145  H    0.012069
   146  H    0.005026
   147  H    0.005737
   148  H    0.003474
   149  H    0.010773
   150  H    0.017695
   151  H    0.030393
   152  H    0.045732
   153  H    0.008169
   154  H    0.047037
   155  H    0.035049
   156  H    0.043648
   157  H    0.049605
   158  H    0.053432
 Sum of Mulliken charges =  -0.00000

 Dipole moment (field-independent basis, Debye):
    X=              4.5977    Y=              3.1436    Z=              1.2618  Tot=              5.7108
 Quadrupole moment (field-independent basis, Debye-Ang):
   XX=           -520.3557   YY=           -524.8809   ZZ=           -473.6188
   XY=            -15.7176   XZ=             47.7321   YZ=             21.6111

 Normal termination of Gaussian 16 at Sat Sep 11 04:11:33 2021.
