 Gaussian 16, Revision A.03,
 Gaussian 16:  ES64L-G16RevA.03 25-Dec-2016

 -----------------------------------
 #p cam-b3lyp/Def2SVP td=(nstates=5)
 -----------------------------------

 --------------------------------
 TDDFT excited states in gaussian
 --------------------------------
 Symbolic Z-matrix:
 Charge =  0 Multiplicity = 1

                         Standard orientation:
 ---------------------------------------------------------------------
 Center     Atomic      Atomic             Coordinates (Angstroms)
 Number     Number       Type             X           Y           Z
 ---------------------------------------------------------------------
      1         12           0      -15.793564   -0.731040    0.240330
      2          6           0      -15.992778    2.813084   -0.219798
      3          6           0      -16.703571   -1.057269   -3.032058
      4          6           0      -16.066846   -3.850660    0.740237
      5          6           0      -16.017783   -0.149964    3.669286
      6          7           0      -16.259631    0.763151   -1.325180
      7          6           0      -16.240945    2.090829   -1.389159
      8          6           0      -16.435408    2.642577   -2.833158
      9          6           0      -17.197874    1.399232   -3.477157
     10          6           0      -16.662566    0.295734   -2.581800
     11          6           0      -18.713646    1.466581   -3.320955
     12          6           0      -15.072409    2.914817   -3.554165
     13          6           0      -15.165347    3.753598   -4.832117
     14          1           0      -14.090679    4.685870   -5.137576
     15          7           0      -15.830168   -2.235332   -1.039753
     16          6           0      -16.212914   -2.184575   -2.338297
     17          6           0      -16.061871   -3.559294   -2.861761
     18          6           0      -15.741502   -4.451061   -1.712757
     19          6           0      -15.894481   -3.540733   -0.606738
     20          6           0      -16.172256   -3.902932   -4.315542
     21          6           0      -15.368526   -5.897177   -1.624616
     22          8           0      -15.359015   -6.530687   -0.514144
     23          6           0      -15.096764   -6.584433   -2.900103
     24          7           0      -16.231709   -1.864148    1.937896
     25          6           0      -16.229815   -3.200976    1.894619
     26          6           0      -16.288390   -3.791949    3.272029
     27          6           0      -16.085016   -2.574113    4.284585
     28          6           0      -16.023111   -1.418975    3.254977
     29          6           0      -17.581952   -4.538847    3.625372
     30          6           0      -14.938145   -2.703064    5.318256
     31          6           0      -13.602563   -2.672079    4.609483
     32          7           0      -15.795978    1.009271    1.537387
     33          6           0      -15.922060    1.019711    2.934051
     34          6           0      -15.978699    2.432533    3.352133
     35          6           0      -15.897783    3.150266    2.160430
     36          6           0      -15.823421    2.242953    1.065192
     37          6           0      -16.149103    2.901082    4.684747
     38          6           0      -15.881660    4.472367    1.555744
     39          8           0      -15.825148    5.623828    1.989836
     40          6           0      -16.065298    4.306162   -0.017304
     41          6           0      -15.023247    5.158298   -0.689095
     42          8           0      -13.810342    4.881251   -0.591759
     43          8           0      -15.623859    6.016347   -1.527879
     44          6           0      -14.643953    6.871871   -2.249000
     45          1           0      -17.208655   -1.285447   -3.972678
     46          1           0      -16.054848   -4.918745    0.967148
     47          1           0      -16.002440    0.109314    4.729471
     48          1           0      -17.057536    3.535379   -2.898617
     49          1           0      -16.897006    1.228151   -4.510565
     50          1           0      -19.011535    2.295165   -2.678591
     51          1           0      -19.002725    0.515258   -2.873838
     52          1           0      -19.202299    1.500625   -4.295037
     53          1           0      -14.694046    1.981793   -3.971740
     54          1           0      -14.359862    3.377393   -2.870333
     55          1           0      -16.134168    4.246891   -4.915524
     56          1           0      -15.130675    3.078351   -5.687126
     57          1           0      -16.577199   -3.073205   -4.893572
     58          1           0      -16.924820   -4.686521   -4.401245
     59          1           0      -15.226225   -4.255226   -4.726937
     60          1           0      -15.979708   -6.523958   -3.536736
     61          1           0      -14.759420   -7.586093   -2.636045
     62          1           0      -14.302956   -6.052712   -3.425546
     63          1           0      -15.489499   -4.517284    3.420652
     64          1           0      -16.972125   -2.395234    4.892626
     65          1           0      -17.420856   -5.572648    3.931980
     66          1           0      -18.247795   -4.485496    2.764501
     67          1           0      -18.187355   -4.064497    4.397315
     68          1           0      -15.002751   -3.657755    5.839157
     69          1           0      -14.945676   -1.913841    6.070135
     70          1           0      -13.471387   -3.705940    4.292064
     71          1           0      -12.812819   -2.372217    5.299119
     72          1           0      -13.643474   -2.057702    3.709842
     73          1           0      -15.447399    3.725600    4.810250
     74          1           0      -15.963330    2.108985    5.409781
     75          1           0      -17.194911    3.206832    4.659113
     76          1           0      -17.076987    4.636034   -0.251380
     77          1           0      -14.919782    7.908621   -2.055860
     78          1           0      -14.641055    6.533715   -3.285363
     79          1           0      -13.621161    6.857162   -1.870821
     80         12           0       15.962394   -0.799335   -0.096255
     81          6           0       15.773417    2.671964    0.794490
     82          6           0       15.054493    0.115453   -3.254335
     83          6           0       15.680899   -3.880189   -0.800893
     84          6           0       15.728735   -1.540751    3.301009
     85          7           0       15.501741    1.170095   -0.991458
     86          6           0       15.522850    2.426131   -0.571606
     87          6           0       15.340033    3.482656   -1.694050
     88          6           0       14.567044    2.566701   -2.762875
     89          6           0       15.095983    1.197851   -2.339580
     90          6           0       13.058313    2.572805   -2.581194
     91          6           0       16.710238    3.995308   -2.261293
     92          6           0       16.615828    5.246154   -3.137765
     93          1           0       17.700330    6.222182   -3.076885
     94          7           0       15.925871   -1.716154   -1.855992
     95          6           0       15.551941   -1.188858   -3.040653
     96          6           0       15.683918   -2.274968   -4.024059
     97          6           0       16.008445   -3.531068   -3.294944
     98          6           0       15.860601   -3.085691   -1.923856
     99          6           0       15.583292   -2.048747   -5.504647
    100          6           0       16.376777   -4.908843   -3.755663
    101          8           0       16.383745   -5.907913   -2.952773
    102          6           0       16.638281   -5.071343   -5.193270
    103          7           0       15.525210   -2.474695    1.054554
    104          6           0       15.517007   -3.704231    0.510396
    105          6           0       15.451280   -4.772008    1.576198
    106          6           0       15.661877   -4.006755    2.964580
    107          6           0       15.726682   -2.553637    2.445312
    108          6           0       14.153645   -5.577922    1.631310
    109          6           0       16.807354   -4.515631    3.881975
    110          6           0       18.146384   -4.240806    3.236331
    111          7           0       15.968668    0.329322    1.746060
    112          6           0       15.833478   -0.177309    3.057219
    113          6           0       15.781403    0.983629    3.969328
    114          6           0       15.867439    2.094549    3.116711
    115          6           0       15.945837    1.657295    1.766843
    116          6           0       15.620804    0.924778    5.382441
    117          6           0       15.899068    3.537938    3.050884
    118          8           0       15.951725    4.444436    3.881069
    119          6           0       15.712195    3.978895    1.535291
    120          6           0       16.758332    5.012667    1.219953
    121          8           0       17.964940    4.711489    1.220684
    122          8           0       16.155132    6.123792    0.759590
    123          6           0       17.152280    7.174474    0.422575
    124          1           0       14.556318    0.264867   -4.212659
    125          1           0       15.688564   -4.957900   -0.979669
    126          1           0       15.755202   -1.690275    4.382496
    127          1           0       14.727327    4.333591   -1.421509
    128          1           0       14.877105    2.797825   -3.778652
    129          1           0       12.762365    3.100387   -1.686645
    130          1           0       12.764974    1.532874   -2.521630
    131          1           0       12.572480    2.972204   -3.476056
    132          1           0       17.083427    3.275337   -3.000959
    133          1           0       17.412559    4.162187   -1.467874
    134          1           0       15.643905    5.745070   -3.040732
    135          1           0       16.656178    4.939410   -4.185759
    136          1           0       15.175058   -1.056509   -5.733133
    137          1           0       14.829207   -2.746700   -5.884233
    138          1           0       16.526701   -2.231102   -6.023680
    139          1           0       15.758169   -4.770598   -5.756666
    140          1           0       16.972485   -6.103545   -5.314652
    141          1           0       17.445071   -4.388242   -5.481507
    142          1           0       16.247765   -5.494878    1.449034
    143          1           0       14.770138   -4.072073    3.605180
    144          1           0       14.312118   -6.667992    1.527834
    145          1           0       13.492862   -5.214396    0.855583
    146          1           0       13.557090   -5.431787    2.530177
    147          1           0       16.739541   -5.599126    4.006850
    148          1           0       16.794299   -4.075734    4.873596
    149          1           0       18.268816   -5.086159    2.552610
    150          1           0       18.935798   -4.221120    3.984969
    151          1           0       18.110897   -3.328542    2.629547
    152          1           0       16.318072    1.636003    5.804907
    153          1           0       15.797833   -0.079695    5.761196
    154          1           0       14.571435    1.218173    5.471859
    155          1           0       14.701177    4.374695    1.431538
    156          1           0       16.876412    8.069903    0.988081
    157          1           0       17.142518    7.252684   -0.680840
    158          1           0       18.172849    7.021463    0.753446
 ---------------------------------------------------------------------

 SCF Done:  E(RCAM-B3LYP) =  -4069.81176659     A.U. after   19 cycles

 Excitation energies and oscillator strengths:

 Excited State   1:      Singlet-A      1.6753 eV  740.06 nm  f=0.2314  <S**2>=0.000
     310 -> 316        0.16911
     311 -> 314       -0.15379
     312 -> 313        0.66859
     310 <- 316        0.10195
 This state for optimization and/or second-order correction.
 Total Energy, E(TD-HF/TD-DFT) =  -4069.75019907
 Copying the excited state density for this state as the 1-particle RhoCI density.

 Excited State   2:      Singlet-A      1.6801 eV  737.97 nm  f=0.5458  <S**2>=0.000
     309 -> 315        0.17114
     311 -> 314        0.66823
     312 -> 313        0.15374
     309 <- 315        0.10247

 Excited State   3:      Singlet-A      2.1861 eV  567.16 nm  f=0.0958  <S**2>=0.000
     310 -> 313        0.64213
     312 -> 316       -0.27293

 Excited State   4:      Singlet-A      2.1925 eV  565.48 nm  f=0.1044  <S**2>=0.000
     309 -> 314        0.64035
     311 -> 315       -0.27816

 Excited State   5:      Singlet-A      3.0659 eV  404.40 nm  f=0.0000  <S**2>=0.000
     311 -> 313        0.70711

 The electronic state is 1-A.
 Alpha  occ. eigenvalues --  -46.87796 -46.87660 -19.26346 -19.26285 -19.19158
 Alpha  occ. eigenvalues --  -19.19021 -19.18815 -19.18716 -19.18169 -19.18049
 Alpha  occ. eigenvalues --  -14.42497 -14.42450 -14.41449 -14.41359 -14.39402
 Alpha  occ. eigenvalues --  -14.39352 -14.38599 -14.38586 -10.39088 -10.39080
 Alpha  occ. eigenvalues --  -10.35448 -10.35393 -10.34389 -10.34226 -10.31752
 Alpha  occ. eigenvalues --  -10.31681 -10.31405 -10.31308 -10.31023 -10.30909
 Alpha  occ. eigenvalues --  -10.30569 -10.30507 -10.30397 -10.30360 -10.30206
 Alpha  occ. eigenvalues --  -10.30141 -10.29920 -10.29894 -10.29630 -10.29437
 Alpha  occ. eigenvalues --  -10.29400 -10.29254 -10.28750 -10.28717 -10.28652
 Alpha  occ. eigenvalues --  -10.28542 -10.28404 -10.28365 -10.28138 -10.28117
 Alpha  occ. eigenvalues --  -10.28001 -10.27792 -10.27727 -10.27669 -10.27584
 Alpha  occ. eigenvalues --  -10.27518 -10.27499 -10.27483 -10.27482 -10.27468
 Alpha  occ. eigenvalues --  -10.27465 -10.27448 -10.27403 -10.27376 -10.27158
 Alpha  occ. eigenvalues --  -10.27048 -10.26707 -10.26691 -10.26418 -10.26411
 Alpha  occ. eigenvalues --  -10.26235 -10.26181 -10.26139 -10.26021 -10.26018
 Alpha  occ. eigenvalues --  -10.25934 -10.25849 -10.25841 -10.25434 -10.25398
 Alpha  occ. eigenvalues --  -10.24872 -10.24832 -10.24787 -10.24732 -10.24690
 Alpha  occ. eigenvalues --  -10.24684  -3.16539  -3.16410  -1.91421  -1.91292
 Alpha  occ. eigenvalues --   -1.91007  -1.90881  -1.90849  -1.90718  -1.16640
 Alpha  occ. eigenvalues --   -1.16634  -1.08656  -1.08627  -1.07216  -1.06968
 Alpha  occ. eigenvalues --   -1.06943  -1.06643  -1.04581  -1.04494  -1.03760
 Alpha  occ. eigenvalues --   -1.03663  -1.03233  -1.03039  -1.02411  -1.02111
 Alpha  occ. eigenvalues --   -0.91986  -0.91972  -0.89518  -0.89495  -0.89189
 Alpha  occ. eigenvalues --   -0.89149  -0.88286  -0.88220  -0.87869  -0.87793
 Alpha  occ. eigenvalues --   -0.87683  -0.87673  -0.87274  -0.87121  -0.84998
 Alpha  occ. eigenvalues --   -0.84983  -0.83935  -0.83876  -0.82967  -0.82933
 Alpha  occ. eigenvalues --   -0.82652  -0.82649  -0.81594  -0.81586  -0.80596
 Alpha  occ. eigenvalues --   -0.80442  -0.78797  -0.78636  -0.77218  -0.77144
 Alpha  occ. eigenvalues --   -0.76935  -0.76897  -0.75924  -0.75837  -0.74897
 Alpha  occ. eigenvalues --   -0.74803  -0.72774  -0.72699  -0.71672  -0.71580
 Alpha  occ. eigenvalues --   -0.69905  -0.69758  -0.68874  -0.68826  -0.67641
 Alpha  occ. eigenvalues --   -0.67601  -0.67221  -0.67199  -0.65287  -0.65270
 Alpha  occ. eigenvalues --   -0.64853  -0.64770  -0.64653  -0.64621  -0.64268
 Alpha  occ. eigenvalues --   -0.64204  -0.62298  -0.62276  -0.60442  -0.60340
 Alpha  occ. eigenvalues --   -0.59805  -0.59795  -0.58992  -0.58987  -0.58503
 Alpha  occ. eigenvalues --   -0.58425  -0.57584  -0.57552  -0.57308  -0.57236
 Alpha  occ. eigenvalues --   -0.56310  -0.56204  -0.55979  -0.55884  -0.55520
 Alpha  occ. eigenvalues --   -0.55452  -0.55339  -0.55247  -0.54523  -0.54487
 Alpha  occ. eigenvalues --   -0.53911  -0.53896  -0.53298  -0.53227  -0.53222
 Alpha  occ. eigenvalues --   -0.53141  -0.52915  -0.52901  -0.52757  -0.52669
 Alpha  occ. eigenvalues --   -0.52436  -0.52402  -0.51914  -0.51884  -0.51658
 Alpha  occ. eigenvalues --   -0.51617  -0.51200  -0.51195  -0.50573  -0.50476
 Alpha  occ. eigenvalues --   -0.50030  -0.49979  -0.49919  -0.49868  -0.49515
 Alpha  occ. eigenvalues --   -0.49487  -0.49214  -0.49201  -0.49103  -0.49097
 Alpha  occ. eigenvalues --   -0.48593  -0.48557  -0.48461  -0.48445  -0.48376
 Alpha  occ. eigenvalues --   -0.48339  -0.47695  -0.47594  -0.47297  -0.47118
 Alpha  occ. eigenvalues --   -0.46797  -0.46709  -0.46556  -0.46553  -0.46359
 Alpha  occ. eigenvalues --   -0.46270  -0.46162  -0.46085  -0.45822  -0.45820
 Alpha  occ. eigenvalues --   -0.45209  -0.45200  -0.44577  -0.44513  -0.44507
 Alpha  occ. eigenvalues --   -0.44475  -0.44144  -0.44126  -0.44089  -0.44078
 Alpha  occ. eigenvalues --   -0.44019  -0.43939  -0.43551  -0.43495  -0.43386
 Alpha  occ. eigenvalues --   -0.43385  -0.43027  -0.42928  -0.42900  -0.42699
 Alpha  occ. eigenvalues --   -0.42654  -0.42554  -0.42009  -0.41964  -0.41704
 Alpha  occ. eigenvalues --   -0.41668  -0.41534  -0.41458  -0.41141  -0.40988
 Alpha  occ. eigenvalues --   -0.40869  -0.40823  -0.40722  -0.40698  -0.40570
 Alpha  occ. eigenvalues --   -0.40493  -0.40236  -0.40226  -0.39439  -0.39426
 Alpha  occ. eigenvalues --   -0.38468  -0.38350  -0.37749  -0.37653  -0.37319
 Alpha  occ. eigenvalues --   -0.37266  -0.37264  -0.37198  -0.36769  -0.36713
 Alpha  occ. eigenvalues --   -0.36216  -0.36192  -0.34286  -0.34253  -0.33860
 Alpha  occ. eigenvalues --   -0.33771  -0.33186  -0.33175  -0.31345  -0.31275
 Alpha  occ. eigenvalues --   -0.31035  -0.30972  -0.30028  -0.29954  -0.29449
 Alpha  occ. eigenvalues --   -0.29327  -0.29321  -0.29211  -0.24080  -0.24036
 Alpha  occ. eigenvalues --   -0.21127  -0.21117
 Alpha virt. eigenvalues --   -0.08792  -0.08774  -0.01749  -0.01684  -0.00058
 Alpha virt. eigenvalues --   -0.00029   0.02201   0.02208   0.03121   0.03226
 Alpha virt. eigenvalues --    0.04717   0.04731   0.05097   0.05168   0.06174

 Mulliken charges:
               1
     1  Mg   0.838695
     2  C   -0.002954
     3  C   -0.094144
     4  C   -0.045848
     5  C   -0.063922
     6  N   -0.256782
     7  C   -0.052456
     8  C   -0.014014
     9  C   -0.086998
    10  C    0.046328
    11  C    0.104811
    12  C    0.053463
    13  C   -0.071779
    14  H    0.036087
    15  N   -0.433132
    16  C    0.168429
    17  C   -0.177162
    18  C   -0.004001
    19  C    0.148687
    20  C    0.110184
    21  C    0.012286
    22  O   -0.249615
    23  C    0.062477
    24  N   -0.341118
    25  C    0.041241
    26  C   -0.028193
    27  C   -0.023955
    28  C    0.074812
    29  C    0.076166
    30  C    0.035126
    31  C   -0.004509
    32  N   -0.310480
    33  C    0.080408
    34  C   -0.169703
    35  C    0.008366
    36  C    0.082995
    37  C    0.127308
    38  C    0.046127
    39  O   -0.188426
    40  C   -0.005364
    41  C    0.212894
    42  O   -0.257114
    43  O   -0.304795
    44  C    0.157692
    45  H   -0.017613
    46  H   -0.016830
    47  H   -0.041470
    48  H    0.000935
    49  H   -0.004053
    50  H    0.025479
    51  H    0.016458
    52  H    0.016648
    53  H    0.011196
    54  H    0.044119
    55  H    0.017876
    56  H    0.017934
    57  H    0.005861
    58  H    0.026825
    59  H    0.039532
    60  H    0.037344
    61  H    0.035653
    62  H    0.031488
    63  H    0.016562
    64  H    0.009469
    65  H    0.023221
    66  H    0.012541
    67  H    0.004764
    68  H    0.006377
    69  H    0.004748
    70  H    0.008778
    71  H    0.018168
    72  H    0.028973
    73  H    0.047587
    74  H    0.009131
    75  H    0.046015
    76  H    0.035153
    77  H    0.042950
    78  H    0.046384
    79  H    0.053681
    80  Mg   0.837801
    81  C   -0.016803
    82  C   -0.087779
    83  C   -0.045501
    84  C   -0.064866
    85  N   -0.254548
    86  C   -0.049841
    87  C   -0.015089
    88  C   -0.090494
    89  C    0.045741
    90  C    0.114364
    91  C    0.062533
    92  C   -0.077914
    93  H    0.034907
    94  N   -0.423472
    95  C    0.162908
    96  C   -0.174621
    97  C   -0.007808
    98  C    0.152103
    99  C    0.099368
   100  C    0.015554
   101  O   -0.253189
   102  C    0.061203
   103  N   -0.350055
   104  C    0.037526
   105  C   -0.019831
   106  C   -0.034826
   107  C    0.088927
   108  C    0.073645
   109  C    0.034726
   110  C   -0.007671
   111  N   -0.324113
   112  C    0.078462
   113  C   -0.163131
   114  C    0.002261
   115  C    0.096195
   116  C    0.131496
   117  C    0.042412
   118  O   -0.187807
   119  C    0.000894
   120  C    0.211275
   121  O   -0.251035
   122  O   -0.305615
   123  C    0.152021
   124  H   -0.019654
   125  H   -0.015579
   126  H   -0.040439
   127  H   -0.000604
   128  H   -0.004331
   129  H    0.022513
   130  H    0.014435
   131  H    0.016307
   132  H    0.013900
   133  H    0.037671
   134  H    0.020826
   135  H    0.019583
   136  H    0.008765
   137  H    0.026132
   138  H    0.039781
   139  H    0.038245
   140  H    0.036379
   141  H    0.033895
   142  H    0.014387
   143  H    0.012451
   144  H    0.025130
   145  H    0.011655
   146  H    0.005706
   147  H    0.006264
   148  H    0.003665
   149  H    0.010924
   150  H    0.017931
   151  H    0.030104
   152  H    0.046018
   153  H    0.008510
   154  H    0.047007
   155  H    0.035091
   156  H    0.043954
   157  H    0.049492
   158  H    0.053571
 Sum of Mulliken charges =  -0.00000

 Dipole moment (field-independent basis, Debye):
    X=             -4.0852    Y=             -2.4097    Z=             -7.5538  Tot=              8.9194
 Quadrupole moment (field-independent basis, Debye-Ang):
   XX=           -516.2295   YY=           -548.0413   ZZ=           -450.8903
   XY=             19.4153   XZ=             -5.4880   YZ=            -45.2340

 Normal termination of Gaussian 16 at Sun Sep 12 14:26:03 2021.
