 Gaussian 16, Revision A.03,
 Gaussian 16:  ES64L-G16RevA.03 25-Dec-2016

 -----------------------------------
 #p cam-b3lyp/Def2SVP td=(nstates=5)
 -----------------------------------

 --------------------------------
 TDDFT excited states in gaussian
 --------------------------------
 Symbolic Z-matrix:
 Charge =  0 Multiplicity = 1

                         Standard orientation:
 ---------------------------------------------------------------------
 Center     Atomic      Atomic             Coordinates (Angstroms)
 Number     Number       Type             X           Y           Z
 ---------------------------------------------------------------------
      1         12           0       -6.436724   -0.659260   -0.194672
      2          6           0       -6.831263    2.891065    0.032794
      3          6           0       -7.396980   -0.407304   -3.459253
      4          6           0       -6.535362   -3.827292   -0.296982
      5          6           0       -6.618958   -0.754165    3.284329
      6          7           0       -7.013373    1.077127   -1.440898
      7          6           0       -7.065728    2.391699   -1.250290
      8          6           0       -7.319200    3.196294   -2.560157
      9          6           0       -8.028751    2.057711   -3.421647
     10          6           0       -7.417565    0.835548   -2.759305
     11          6           0       -9.542348    2.009867   -3.239342
     12          6           0       -5.987830    3.675912   -3.230343
     13          6           0       -6.151509    4.735914   -4.323485
     14          1           0       -5.133902    5.767461   -4.456655
     15          7           0       -6.421258   -1.892368   -1.738063
     16          6           0       -6.833365   -1.616949   -2.998856
     17          6           0       -6.621439   -2.856503   -3.776849
     18          6           0       -6.230624   -3.931295   -2.822814
     19          6           0       -6.407864   -3.257809   -1.561711
     20          6           0       -6.744191   -2.923024   -5.268243
     21          6           0       -5.780510   -5.344807   -3.016497
     22          8           0       -5.714419   -6.176392   -2.047646
     23          6           0       -5.499947   -5.760822   -4.402591
     24          7           0       -6.779010   -2.117034    1.259760
     25          6           0       -6.707882   -3.419036    0.961910
     26          6           0       -6.706385   -4.263465    2.201618
     27          6           0       -6.545944   -3.251009    3.425932
     28          6           0       -6.566404   -1.919543    2.635331
     29          6           0       -7.951257   -5.134570    2.419526
     30          6           0       -5.372400   -3.510283    4.403681
     31          6           0       -4.055487   -3.270986    3.699710
     32          7           0       -6.503171    0.799795    1.410877
     33          6           0       -6.600226    0.537452    2.785079
     34          6           0       -6.722116    1.839634    3.465911
     35          6           0       -6.704053    2.774239    2.432454
     36          6           0       -6.605236    2.097293    1.183346
     37          6           0       -6.888805    2.036040    4.865223
     38          6           0       -6.770046    4.186018    2.091305
     39          8           0       -6.764914    5.235256    2.736723
     40          6           0       -6.977752    4.312026    0.517517
     41          6           0       -5.996210    5.332872    0.009821
     42          8           0       -4.768661    5.110147    0.039537
     43          8           0       -6.658526    6.300067   -0.643183
     44          6           0       -5.740244    7.330163   -1.197991
     45          1           0       -7.909066   -0.480143   -4.420712
     46          1           0       -6.462566   -4.916693   -0.278409
     47          1           0       -6.594947   -0.700767    4.374294
     48          1           0       -7.988558    4.049310   -2.447252
     49          1           0       -7.741121    2.103227   -4.471847
     50          1           0       -9.869728    2.683348   -2.447403
     51          1           0       -9.771643    0.976328   -2.979125
     52          1           0      -10.052492    2.201329   -4.183732
     53          1           0       -5.569896    2.861786   -3.822451
     54          1           0       -5.286313    4.038851   -2.478363
     55          1           0       -7.146419    5.181503   -4.300820
     56          1           0       -6.099443    4.238553   -5.292051
     57          1           0       -7.204181   -2.022308   -5.672800
     58          1           0       -7.456237   -3.716571   -5.494034
     59          1           0       -5.789839   -3.137585   -5.749395
     60          1           0       -6.398041   -5.629511   -5.006522
     61          1           0       -5.105030   -6.774114   -4.338330
     62          1           0       -4.746359   -5.095652   -4.825207
     63          1           0       -5.867587   -4.958333    2.200449
     64          1           0       -7.428232   -3.240545    4.066347
     65          1           0       -7.729725   -6.197242    2.521287
     66          1           0       -8.636939   -4.955548    1.591830
     67          1           0       -8.564346   -4.850017    3.274259
     68          1           0       -5.375854   -4.548692    4.733288
     69          1           0       -5.405518   -2.880087    5.292504
     70          1           0       -3.876948   -4.216721    3.189276
     71          1           0       -3.268236   -3.064355    4.425486
     72          1           0       -4.147490   -2.499989    2.934475
     73          1           0       -6.228848    2.859314    5.138438
     74          1           0       -6.646519    1.132088    5.423587
     75          1           0       -7.949524    2.282543    4.909589
     76          1           0       -8.010055    4.623702    0.361537
     77          1           0       -6.065970    8.294329   -0.807451
     78          1           0       -5.741403    7.195934   -2.279835
     79          1           0       -4.710362    7.300620   -0.840486
     80         12           0        6.760126    0.066797   -0.476844
     81          6           0        5.849456   -0.174868    2.986012
     82          6           0        6.642587   -3.340214   -0.591299
     83          6           0        7.994643    0.221303   -3.395665
     84          6           0        7.902231    3.290780    0.191898
     85          7           0        6.293287   -1.450205    1.063620
     86          6           0        5.901165   -1.421610    2.328443
     87          6           0        5.467181   -2.798627    2.898577
     88          6           0        6.295510   -3.744422    1.899464
     89          6           0        6.390968   -2.806489    0.697867
     90          6           0        7.704163   -4.044586    2.384165
     91          6           0        3.922113   -3.039270    2.768664
     92          6           0        3.385053   -4.221394    3.578532
     93          1           0        2.054930   -4.112046    4.171242
     94          7           0        6.782951   -1.279756   -1.934526
     95          6           0        6.702625   -2.620668   -1.804964
     96          6           0        6.784089   -3.162387   -3.170272
     97          6           0        7.084588   -2.041839   -4.102368
     98          6           0        7.324878   -0.969950   -3.157171
     99          6           0        6.505992   -4.601925   -3.492457
    100          6           0        7.157768   -1.953135   -5.596677
    101          8           0        7.669122   -0.936618   -6.186632
    102          6           0        6.698554   -3.131341   -6.346630
    103          7           0        7.988841    1.456028   -1.416331
    104          6           0        8.335421    1.310992   -2.707363
    105          6           0        8.989058    2.563466   -3.240707
    106          6           0        8.790161    3.669717   -2.103050
    107          6           0        8.104211    2.802910   -1.024381
    108          6           0       10.474492    2.445350   -3.581189
    109          6           0        8.108408    4.999688   -2.526177
    110          6           0        6.662571    4.746282   -2.887747
    111          7           0        6.704286    1.418470    1.207763
    112          6           0        7.265908    2.711945    1.282519
    113          6           0        7.070654    3.192085    2.665904
    114          6           0        6.424358    2.127022    3.311231
    115          6           0        6.248580    1.050741    2.400068
    116          6           0        7.513215    4.442318    3.182796
    117          6           0        5.860384    1.664424    4.558873
    118          8           0        5.645786    2.175093    5.657467
    119          6           0        5.576394    0.105235    4.437769
    120          6           0        4.187189   -0.155211    4.952339
    121          8           0        3.196251    0.302084    4.356078
    122          8           0        4.245481   -1.075941    5.931748
    123          6           0        2.890600   -1.375938    6.466646
    124          1           0        6.856308   -4.405814   -0.678997
    125          1           0        8.342896    0.369418   -4.420489
    126          1           0        8.142550    4.323354    0.454024
    127          1           0        5.770867   -2.982614    3.922147
    128          1           0        5.731612   -4.637320    1.642347
    129          1           0        7.957030   -3.474254    3.265593
    130          1           0        8.359520   -3.783368    1.563608
    131          1           0        7.828506   -5.120243    2.538505
    132          1           0        3.698555   -3.390294    1.753014
    133          1           0        3.375722   -2.151058    3.020009
    134          1           0        4.109481   -4.574390    4.322541
    135          1           0        3.255430   -5.072622    2.905770
    136          1           0        6.474661   -5.218311   -2.585545
    137          1           0        7.372245   -4.978586   -4.047066
    138          1           0        5.610925   -4.731232   -4.104659
    139          1           0        7.282540   -3.999024   -6.049016
    140          1           0        6.743782   -2.843870   -7.398860
    141          1           0        5.659735   -3.340479   -6.067830
    142          1           0        8.499759    2.899257   -4.146767
    143          1           0        9.751401    3.996009   -1.679517
    144          1           0       10.704358    2.711643   -4.630147
    145          1           0       10.794505    1.434350   -3.366647
    146          1           0       11.140322    3.036304   -2.954584
    147          1           0        8.586620    5.401913   -3.422664
    148          1           0        8.153973    5.770081   -1.763674
    149          1           0        6.723887    4.404869   -3.925416
    150          1           0        6.081337    5.662663   -2.807423
    151          1           0        6.246773    3.923842   -2.294160
    152          1           0        6.702303    4.836661    3.780639
    153          1           0        7.788988    5.127608    2.383987
    154          1           0        8.381150    4.117365    3.762766
    155          1           0        6.334740   -0.412561    5.026315
    156          1           0        2.928058   -1.203276    7.546671
    157          1           0        2.656590   -2.402910    6.128536
    158          1           0        2.079868   -0.718440    6.175350
 ---------------------------------------------------------------------

 SCF Done:  E(RCAM-B3LYP) =  -4069.81138535     A.U. after   19 cycles

 Excitation energies and oscillator strengths:

 Excited State   1:      Singlet-A      1.6652 eV  744.54 nm  f=0.0089  <S**2>=0.000
     309 -> 315       -0.11053
     310 -> 316        0.13057
     311 -> 314       -0.44249
     312 -> 313        0.52505
 This state for optimization and/or second-order correction.
 Total Energy, E(TD-HF/TD-DFT) =  -4069.75018880
 Copying the excited state density for this state as the 1-particle RhoCI density.

 Excited State   2:      Singlet-A      1.6892 eV  733.98 nm  f=0.7350  <S**2>=0.000
     309 -> 315        0.13581
     310 -> 316        0.11396
     311 -> 314        0.52382
     312 -> 313        0.44158

 Excited State   3:      Singlet-A      2.1845 eV  567.55 nm  f=0.0470  <S**2>=0.000
     309 -> 314        0.21163
     310 -> 313        0.60723
     312 -> 316       -0.25685

 Excited State   4:      Singlet-A      2.1922 eV  565.56 nm  f=0.1442  <S**2>=0.000
     309 -> 314        0.60492
     310 -> 313       -0.21014
     311 -> 315       -0.26298

 Excited State   5:      Singlet-A      2.7102 eV  457.47 nm  f=0.0000  <S**2>=0.000
     311 -> 313        0.70709

 The electronic state is 1-A.
 Alpha  occ. eigenvalues --  -46.87690 -46.87560 -19.26230 -19.26121 -19.19021
 Alpha  occ. eigenvalues --  -19.18845 -19.18763 -19.18648 -19.18036 -19.17936
 Alpha  occ. eigenvalues --  -14.42400 -14.42345 -14.41353 -14.41263 -14.39303
 Alpha  occ. eigenvalues --  -14.39256 -14.38496 -14.38472 -10.38956 -10.38911
 Alpha  occ. eigenvalues --  -10.35400 -10.35328 -10.34254 -10.34113 -10.31654
 Alpha  occ. eigenvalues --  -10.31516 -10.31289 -10.31205 -10.30930 -10.30808
 Alpha  occ. eigenvalues --  -10.30456 -10.30404 -10.30299 -10.30256 -10.30127
 Alpha  occ. eigenvalues --  -10.30054 -10.29823 -10.29797 -10.29528 -10.29345
 Alpha  occ. eigenvalues --  -10.29304 -10.29160 -10.28635 -10.28621 -10.28556
 Alpha  occ. eigenvalues --  -10.28412 -10.28306 -10.28258 -10.28045 -10.28008
 Alpha  occ. eigenvalues --  -10.27901 -10.27685 -10.27625 -10.27573 -10.27489
 Alpha  occ. eigenvalues --  -10.27442 -10.27435 -10.27410 -10.27392 -10.27392
 Alpha  occ. eigenvalues --  -10.27385 -10.27374 -10.27297 -10.27295 -10.27024
 Alpha  occ. eigenvalues --  -10.26939 -10.26582 -10.26575 -10.26392 -10.26376
 Alpha  occ. eigenvalues --  -10.26142 -10.26136 -10.26050 -10.25941 -10.25922
 Alpha  occ. eigenvalues --  -10.25837 -10.25734 -10.25707 -10.25391 -10.25332
 Alpha  occ. eigenvalues --  -10.24770 -10.24718 -10.24695 -10.24644 -10.24632
 Alpha  occ. eigenvalues --  -10.24596  -3.16432  -3.16310  -1.91314  -1.91192
 Alpha  occ. eigenvalues --   -1.90901  -1.90781  -1.90742  -1.90618  -1.16520
 Alpha  occ. eigenvalues --   -1.16469  -1.08540  -1.08488  -1.07168  -1.06902
 Alpha  occ. eigenvalues --   -1.06809  -1.06470  -1.04475  -1.04397  -1.03663
 Alpha  occ. eigenvalues --   -1.03567  -1.03130  -1.02942  -1.02308  -1.02013
 Alpha  occ. eigenvalues --   -0.91884  -0.91857  -0.89439  -0.89401  -0.89077
 Alpha  occ. eigenvalues --   -0.89054  -0.88211  -0.88132  -0.87752  -0.87687
 Alpha  occ. eigenvalues --   -0.87587  -0.87570  -0.87195  -0.87040  -0.84904
 Alpha  occ. eigenvalues --   -0.84876  -0.83863  -0.83786  -0.82912  -0.82862
 Alpha  occ. eigenvalues --   -0.82563  -0.82549  -0.81493  -0.81459  -0.80489
 Alpha  occ. eigenvalues --   -0.80346  -0.78705  -0.78545  -0.77124  -0.77051
 Alpha  occ. eigenvalues --   -0.76826  -0.76803  -0.75809  -0.75742  -0.74817
 Alpha  occ. eigenvalues --   -0.74716  -0.72671  -0.72601  -0.71574  -0.71488
 Alpha  occ. eigenvalues --   -0.69842  -0.69668  -0.68771  -0.68733  -0.67542
 Alpha  occ. eigenvalues --   -0.67507  -0.67117  -0.67108  -0.65174  -0.65172
 Alpha  occ. eigenvalues --   -0.64746  -0.64672  -0.64555  -0.64517  -0.64185
 Alpha  occ. eigenvalues --   -0.64112  -0.62172  -0.62167  -0.60363  -0.60256
 Alpha  occ. eigenvalues --   -0.59699  -0.59695  -0.58895  -0.58885  -0.58400
 Alpha  occ. eigenvalues --   -0.58326  -0.57453  -0.57441  -0.57213  -0.57144
 Alpha  occ. eigenvalues --   -0.56207  -0.56107  -0.55844  -0.55783  -0.55432
 Alpha  occ. eigenvalues --   -0.55363  -0.55245  -0.55151  -0.54414  -0.54387
 Alpha  occ. eigenvalues --   -0.53815  -0.53784  -0.53212  -0.53138  -0.53122
 Alpha  occ. eigenvalues --   -0.53048  -0.52803  -0.52799  -0.52677  -0.52594
 Alpha  occ. eigenvalues --   -0.52371  -0.52308  -0.51788  -0.51772  -0.51566
 Alpha  occ. eigenvalues --   -0.51511  -0.51100  -0.51087  -0.50515  -0.50406
 Alpha  occ. eigenvalues --   -0.49964  -0.49893  -0.49841  -0.49783  -0.49420
 Alpha  occ. eigenvalues --   -0.49403  -0.49107  -0.49105  -0.49007  -0.48987
 Alpha  occ. eigenvalues --   -0.48477  -0.48456  -0.48391  -0.48348  -0.48288
 Alpha  occ. eigenvalues --   -0.48257  -0.47602  -0.47504  -0.47206  -0.47032
 Alpha  occ. eigenvalues --   -0.46700  -0.46613  -0.46460  -0.46446  -0.46261
 Alpha  occ. eigenvalues --   -0.46175  -0.46054  -0.45986  -0.45716  -0.45694
 Alpha  occ. eigenvalues --   -0.45126  -0.45122  -0.44462  -0.44426  -0.44415
 Alpha  occ. eigenvalues --   -0.44382  -0.44061  -0.44035  -0.43989  -0.43987
 Alpha  occ. eigenvalues --   -0.43910  -0.43851  -0.43451  -0.43371  -0.43290
 Alpha  occ. eigenvalues --   -0.43289  -0.42923  -0.42827  -0.42794  -0.42609
 Alpha  occ. eigenvalues --   -0.42526  -0.42465  -0.41918  -0.41867  -0.41597
 Alpha  occ. eigenvalues --   -0.41567  -0.41429  -0.41364  -0.41043  -0.40897
 Alpha  occ. eigenvalues --   -0.40780  -0.40755  -0.40645  -0.40609  -0.40489
 Alpha  occ. eigenvalues --   -0.40402  -0.40132  -0.40122  -0.39381  -0.39335
 Alpha  occ. eigenvalues --   -0.38392  -0.38263  -0.37634  -0.37556  -0.37236
 Alpha  occ. eigenvalues --   -0.37173  -0.37150  -0.37100  -0.36653  -0.36579
 Alpha  occ. eigenvalues --   -0.36116  -0.36075  -0.34179  -0.34153  -0.33728
 Alpha  occ. eigenvalues --   -0.33608  -0.33077  -0.33075  -0.31292  -0.31206
 Alpha  occ. eigenvalues --   -0.30934  -0.30877  -0.29893  -0.29839  -0.29354
 Alpha  occ. eigenvalues --   -0.29235  -0.29205  -0.29107  -0.23975  -0.23937
 Alpha  occ. eigenvalues --   -0.21025  -0.21020
 Alpha virt. eigenvalues --   -0.08695  -0.08673  -0.01655  -0.01590   0.00028
 Alpha virt. eigenvalues --    0.00057   0.02312   0.02315   0.03267   0.03353
 Alpha virt. eigenvalues --    0.04822   0.04826   0.05259   0.05294   0.06272

 Mulliken charges:
               1
     1  Mg   0.839537
     2  C   -0.002562
     3  C   -0.094081
     4  C   -0.046152
     5  C   -0.063884
     6  N   -0.256704
     7  C   -0.052242
     8  C   -0.014070
     9  C   -0.086989
    10  C    0.046282
    11  C    0.104873
    12  C    0.053468
    13  C   -0.071804
    14  H    0.036461
    15  N   -0.432976
    16  C    0.168268
    17  C   -0.177384
    18  C   -0.004416
    19  C    0.148635
    20  C    0.110249
    21  C    0.011859
    22  O   -0.250421
    23  C    0.062667
    24  N   -0.341172
    25  C    0.041198
    26  C   -0.028023
    27  C   -0.023925
    28  C    0.074991
    29  C    0.076292
    30  C    0.035148
    31  C   -0.004137
    32  N   -0.310729
    33  C    0.081097
    34  C   -0.168804
    35  C    0.008699
    36  C    0.083667
    37  C    0.127105
    38  C    0.046886
    39  O   -0.187742
    40  C   -0.005636
    41  C    0.212826
    42  O   -0.255904
    43  O   -0.305109
    44  C    0.157568
    45  H   -0.017864
    46  H   -0.017500
    47  H   -0.041504
    48  H    0.000926
    49  H   -0.004124
    50  H    0.025423
    51  H    0.016264
    52  H    0.016447
    53  H    0.011236
    54  H    0.044768
    55  H    0.017647
    56  H    0.017748
    57  H    0.005886
    58  H    0.026425
    59  H    0.039086
    60  H    0.037431
    61  H    0.034733
    62  H    0.031198
    63  H    0.015873
    64  H    0.009348
    65  H    0.022622
    66  H    0.012597
    67  H    0.004617
    68  H    0.005512
    69  H    0.004848
    70  H    0.007737
    71  H    0.017414
    72  H    0.030525
    73  H    0.048776
    74  H    0.009048
    75  H    0.045739
    76  H    0.034930
    77  H    0.042808
    78  H    0.046111
    79  H    0.054360
    80  Mg   0.838373
    81  C   -0.016505
    82  C   -0.087737
    83  C   -0.045662
    84  C   -0.064859
    85  N   -0.254520
    86  C   -0.049718
    87  C   -0.015162
    88  C   -0.090523
    89  C    0.045742
    90  C    0.114435
    91  C    0.062448
    92  C   -0.077632
    93  H    0.034501
    94  N   -0.423400
    95  C    0.162831
    96  C   -0.174811
    97  C   -0.008078
    98  C    0.152083
    99  C    0.099452
   100  C    0.015323
   101  O   -0.253555
   102  C    0.061322
   103  N   -0.350117
   104  C    0.037504
   105  C   -0.019753
   106  C   -0.034837
   107  C    0.089059
   108  C    0.073772
   109  C    0.034749
   110  C   -0.007660
   111  N   -0.324289
   112  C    0.078832
   113  C   -0.162596
   114  C    0.002456
   115  C    0.096713
   116  C    0.131328
   117  C    0.042995
   118  O   -0.187417
   119  C    0.000641
   120  C    0.211174
   121  O   -0.249762
   122  O   -0.305897
   123  C    0.151993
   124  H   -0.019869
   125  H   -0.015917
   126  H   -0.040376
   127  H   -0.000798
   128  H   -0.004295
   129  H    0.022342
   130  H    0.014293
   131  H    0.016078
   132  H    0.014229
   133  H    0.038222
   134  H    0.020443
   135  H    0.019798
   136  H    0.008815
   137  H    0.025803
   138  H    0.039456
   139  H    0.038223
   140  H    0.035848
   141  H    0.033617
   142  H    0.014192
   143  H    0.012263
   144  H    0.024822
   145  H    0.011532
   146  H    0.005524
   147  H    0.005898
   148  H    0.003794
   149  H    0.010490
   150  H    0.018263
   151  H    0.030626
   152  H    0.046801
   153  H    0.008566
   154  H    0.046676
   155  H    0.034752
   156  H    0.043600
   157  H    0.048916
   158  H    0.054144
 Sum of Mulliken charges =  -0.00000

 Dipole moment (field-independent basis, Debye):
    X=             -0.8599    Y=             -5.1807    Z=             -4.9512  Tot=              7.2175
 Quadrupole moment (field-independent basis, Debye-Ang):
   XX=           -473.6766   YY=           -498.1566   ZZ=           -502.9973
   XY=             -5.4644   XZ=             25.0510   YZ=            -38.9527

 Normal termination of Gaussian 16 at Sat Sep 11 08:05:05 2021.
