 Gaussian 16, Revision A.03,
 Gaussian 16:  ES64L-G16RevA.03 25-Dec-2016

 -----------------------------------
 #p cam-b3lyp/Def2SVP td=(nstates=5)
 -----------------------------------

 --------------------------------
 TDDFT excited states in gaussian
 --------------------------------
 Symbolic Z-matrix:
 Charge =  0 Multiplicity = 1

                         Standard orientation:
 ---------------------------------------------------------------------
 Center     Atomic      Atomic             Coordinates (Angstroms)
 Number     Number       Type             X           Y           Z
 ---------------------------------------------------------------------
      1         12           0        4.771389    0.235767    0.584958
      2          6           0        4.919757   -2.878941   -1.172539
      3          6           0        5.963154    1.720041   -2.246948
      4          6           0        5.079637    2.916819    2.250360
      5          6           0        4.689755   -1.605923    3.542520
      6          7           0        5.330672   -0.581758   -1.394815
      7          6           0        5.284124   -1.784247   -1.959639
      8          6           0        5.586250   -1.761100   -3.487892
      9          6           0        6.431507   -0.411000   -3.556968
     10          6           0        5.850190    0.301612   -2.348590
     11          6           0        7.926435   -0.616032   -3.334135
     12          6           0        4.282799   -1.665711   -4.350241
     13          6           0        4.462525   -1.964911   -5.841392
     14          1           0        3.394505   -2.652352   -6.551397
     15          7           0        4.954043    2.106997   -0.021661
     16          6           0        5.443983    2.528156   -1.212404
     17          6           0        5.372396    4.004877   -1.183258
     18          6           0        4.978379    4.414245    0.193427
     19          6           0        5.014228    3.147313    0.878245
     20          6           0        5.614094    4.864278   -2.386072
     21          6           0        4.635724    5.738823    0.798585
     22          8           0        4.548126    5.906707    2.062988
     23          6           0        4.490303    6.869921   -0.135498
     24          7           0        5.092530    0.619614    2.611572
     25          6           0        5.127890    1.872114    3.079521
     26          6           0        5.084437    1.896318    4.578676
     27          6           0        4.765517    0.399992    5.035897
     28          6           0        4.762027   -0.276729    3.642948
     29          6           0        6.361783    2.382196    5.277476
     30          6           0        3.538832    0.193232    5.959430
     31          6           0        2.267715    0.505568    5.201930
     32          7           0        4.620234   -1.862251    1.120232
     33          6           0        4.627285   -2.405130    2.413254
     34          6           0        4.612806   -3.872151    2.265924
     35          6           0        4.615095   -4.082298    0.888361
     36          6           0        4.656566   -2.826568    0.217755
     37          6           0        4.657922   -4.816937    3.328833
     38          6           0        4.617029   -5.076040   -0.172926
     39          8           0        4.495051   -6.301165   -0.213960
     40          6           0        4.937337   -4.339817   -1.548137
     41          6           0        3.934843   -4.816937   -2.563357
     42          8           0        2.725396   -4.530304   -2.451787
     43          8           0        4.582584   -5.327528   -3.621785
     44          6           0        3.646084   -5.792633   -4.679518
     45          1           0        6.551652    2.257481   -2.993118
     46          1           0        5.075302    3.819584    2.864717
     47          1           0        4.578178   -2.244280    4.420873
     48          1           0        6.189062   -2.596396   -3.844715
     49          1           0        6.223626    0.153219   -4.465904
     50          1           0        8.147946   -1.640701   -3.035965
     51          1           0        8.200418    0.079133   -2.540301
     52          1           0        8.494812   -0.307535   -4.211947
     53          1           0        3.964715   -0.624716   -4.406914
     54          1           0        3.503507   -2.311648   -3.944291
     55          1           0        5.422230   -2.443232   -6.039090
     56          1           0        4.517357   -1.016472   -6.375860
     57          1           0        6.045561    4.292456   -3.206683
     58          1           0        6.390659    5.579454   -2.115556
     59          1           0        4.715449    5.397398   -2.696801
     60          1           0        5.422190    7.005007   -0.684942
     61          1           0        4.157080    7.715279    0.465487
     62          1           0        3.730738    6.620189   -0.876877
     63          1           0        4.294305    2.555217    4.936405
     64          1           0        5.593173   -0.043615    5.589858
     65          1           0        6.201323    3.231485    5.942056
     66          1           0        7.096586    2.620375    4.508953
     67          1           0        6.887532    1.619221    5.850952
     68          1           0        3.583057    0.876136    6.807152
     69          1           0        3.462835   -0.820234    6.353589
     70          1           0        2.189904    1.588383    5.292978
     71          1           0        1.415124    0.012170    5.669753
     72          1           0        2.369217    0.274198    4.141434
     73          1           0        3.927620   -5.587770    3.082977
     74          1           0        4.431375   -4.347431    4.285831
     75          1           0        5.694132   -5.147878    3.260993
     76          1           0        5.956607   -4.612635   -1.819764
     77          1           0        3.878434   -6.839298   -4.876343
     78          1           0        3.739456   -5.089309   -5.507179
     79          1           0        2.595634   -5.864911   -4.395495
     80         12           0       -4.187329    0.793818   -0.107179
     81          6           0       -6.942635   -1.481990    0.221502
     82          6           0       -6.318964    2.905655   -1.729185
     83          6           0       -1.687860    2.618058   -0.808764
     84          6           0       -2.066304   -1.905672    0.492587
     85          7           0       -6.330788    0.622205   -0.625264
     86          6           0       -7.289879   -0.261760   -0.394852
     87          6           0       -8.714700    0.220533   -0.778035
     88          6           0       -8.309057    1.322484   -1.873495
     89          6           0       -6.911834    1.670555   -1.364299
     90          6           0       -8.178321    0.755726   -3.277431
     91          6           0       -9.472884    0.867348    0.433900
     92          6           0      -10.972644    1.078821    0.215393
     93          1           0      -11.872406    0.909961    1.353106
     94          7           0       -4.102895    2.693892   -0.673893
     95          6           0       -5.067801    3.400048   -1.299641
     96          6           0       -4.507496    4.742997   -1.515793
     97          6           0       -3.074524    4.723545   -1.114641
     98          6           0       -2.890058    3.308127   -0.864311
     99          6           0       -5.336262    5.905456   -1.979764
    100          6           0       -2.037902    5.798839   -0.990739
    101          8           0       -0.793721    5.522292   -0.855300
    102          6           0       -2.510967    7.184238   -1.126305
    103          7           0       -2.166277    0.378721   -0.362859
    104          6           0       -1.284388    1.362893   -0.611076
    105          6           0        0.136333    0.867460   -0.482686
    106          6           0        0.024665   -0.600188    0.142712
    107          6           0       -1.512825   -0.740259    0.186601
    108          6           0        0.939756    0.807096   -1.781628
    109          6           0        0.829251   -0.874308    1.442774
    110          6           0        0.254198   -0.068389    2.585222
    111          7           0       -4.427211   -1.274661    0.468929
    112          6           0       -3.407365   -2.236404    0.639389
    113          6           0       -4.068741   -3.527275    0.919864
    114          6           0       -5.438858   -3.229324    0.869958
    115          6           0       -5.618948   -1.854415    0.558986
    116          6           0       -3.409772   -4.771627    1.128367
    117          6           0       -6.773889   -3.767562    0.999144
    118          8           0       -7.243937   -4.852699    1.338644
    119          6           0       -7.808407   -2.687830    0.460315
    120          6           0       -8.918499   -2.564869    1.467840
    121          8           0       -8.693055   -2.114304    2.604843
    122          8           0      -10.095368   -2.792971    0.856846
    123          6           0      -11.228030   -2.671498    1.812960
    124          1           0       -6.841104    3.540108   -2.445927
    125          1           0       -0.788974    3.226063   -0.934447
    126          1           0       -1.473311   -2.774040    0.787500
    127          1           0       -9.344900   -0.536992   -1.228341
    128          1           0       -8.961216    2.190406   -1.820948
    129          1           0       -8.264575   -0.320660   -3.287030
    130          1           0       -7.200701    1.060083   -3.627674
    131          1           0       -8.900202    1.233880   -3.945712
    132          1           0       -9.149905    1.910707    0.542685
    133          1           0       -9.314863    0.298619    1.329569
    134          1           0      -11.344717    0.523988   -0.654474
    135          1           0      -11.141253    2.127033   -0.043135
    136          1           0       -6.314868    5.578504   -2.352361
    137          1           0       -4.836237    6.323472   -2.860166
    138          1           0       -5.428467    6.686193   -1.221732
    139          1           0       -2.987513    7.309901   -2.095616
    140          1           0       -1.641710    7.811437   -0.919187
    141          1           0       -3.282904    7.365908   -0.370176
    142          1           0        0.705139    1.494835    0.192561
    143          1           0        0.390475   -1.368833   -0.553851
    144          1           0        1.875847    1.395612   -1.743594
    145          1           0        0.307736    1.149766   -2.590125
    146          1           0        1.212232   -0.194473   -2.109976
    147          1           0        1.865151   -0.547595    1.323033
    148          1           0        0.852416   -1.921970    1.723606
    149          1           0        0.724181    0.911314    2.457235
    150          1           0        0.522971   -0.513226    3.541223
    151          1           0       -0.827138    0.066696    2.466417
    152          1           0       -3.901389   -5.247706    1.966324
    153          1           0       -2.347283   -4.632205    1.316630
    154          1           0       -3.596111   -5.254747    0.165493
    155          1           0       -8.170831   -3.035901   -0.507709
    156          1           0      -11.787446   -3.610952    1.766568
    157          1           0      -11.766454   -1.749763    1.522687
    158          1           0      -10.989284   -2.619420    2.868766
 ---------------------------------------------------------------------

 SCF Done:  E(RCAM-B3LYP) =  -4069.81138462     A.U. after   19 cycles

 Excitation energies and oscillator strengths:

 Excited State   1:      Singlet-A      1.6399 eV  756.06 nm  f=0.0015  <S**2>=0.000
     309 -> 315       -0.11439
     310 -> 316        0.11771
     311 -> 313       -0.47701
     312 -> 314        0.49564
 This state for optimization and/or second-order correction.
 Total Energy, E(TD-HF/TD-DFT) =  -4069.75112061
 Copying the excited state density for this state as the 1-particle RhoCI density.

 Excited State   2:      Singlet-A      1.7048 eV  727.25 nm  f=0.6837  <S**2>=0.000
     309 -> 315        0.13150
     310 -> 316        0.12442
     311 -> 313        0.49292
     312 -> 314        0.47425

 Excited State   3:      Singlet-A      2.1822 eV  568.15 nm  f=0.1149  <S**2>=0.000
     310 -> 314        0.64297
     312 -> 316       -0.26919

 Excited State   4:      Singlet-A      2.1979 eV  564.10 nm  f=0.0888  <S**2>=0.000
     309 -> 313        0.63934
     311 -> 315       -0.27920

 Excited State   5:      Singlet-A      2.3279 eV  532.61 nm  f=0.0002  <S**2>=0.000
     312 -> 313        0.70482

 The electronic state is 1-A.
 Alpha  occ. eigenvalues --  -46.87930 -46.87420 -19.26442 -19.26188 -19.19230
 Alpha  occ. eigenvalues --  -19.18990 -19.18642 -19.18586 -19.18258 -19.17834
 Alpha  occ. eigenvalues --  -14.42550 -14.42262 -14.41544 -14.41102 -14.39498
 Alpha  occ. eigenvalues --  -14.39123 -14.38702 -14.38349 -10.39270 -10.38914
 Alpha  occ. eigenvalues --  -10.35268 -10.35265 -10.34488 -10.34011 -10.31804
 Alpha  occ. eigenvalues --  -10.31616 -10.31530 -10.31065 -10.30977 -10.30828
 Alpha  occ. eigenvalues --  -10.30693 -10.30592 -10.30257 -10.30143 -10.30101
 Alpha  occ. eigenvalues --  -10.30021 -10.29870 -10.29676 -10.29627 -10.29307
 Alpha  occ. eigenvalues --  -10.29195 -10.29155 -10.28849 -10.28640 -10.28543
 Alpha  occ. eigenvalues --  -10.28523 -10.28441 -10.28208 -10.28191 -10.27955
 Alpha  occ. eigenvalues --  -10.27855 -10.27820 -10.27762 -10.27598 -10.27525
 Alpha  occ. eigenvalues --  -10.27503 -10.27476 -10.27435 -10.27374 -10.27311
 Alpha  occ. eigenvalues --  -10.27275 -10.27251 -10.27242 -10.27139 -10.27085
 Alpha  occ. eigenvalues --  -10.26846 -10.26845 -10.26538 -10.26342 -10.26306
 Alpha  occ. eigenvalues --  -10.26141 -10.26114 -10.26024 -10.25928 -10.25907
 Alpha  occ. eigenvalues --  -10.25857 -10.25601 -10.25442 -10.25430 -10.25145
 Alpha  occ. eigenvalues --  -10.24912 -10.24853 -10.24632 -10.24608 -10.24458
 Alpha  occ. eigenvalues --  -10.24268  -3.16651  -3.16170  -1.91537  -1.91117
 Alpha  occ. eigenvalues --   -1.91052  -1.90960  -1.90641  -1.90478  -1.16796
 Alpha  occ. eigenvalues --   -1.16480  -1.08728  -1.08443  -1.07029  -1.06844
 Alpha  occ. eigenvalues --   -1.06836  -1.06773  -1.04673  -1.04268  -1.03843
 Alpha  occ. eigenvalues --   -1.03421  -1.03319  -1.02783  -1.02497  -1.01866
 Alpha  occ. eigenvalues --   -0.92070  -0.91754  -0.89576  -0.89285  -0.89212
 Alpha  occ. eigenvalues --   -0.88957  -0.88335  -0.87970  -0.87945  -0.87757
 Alpha  occ. eigenvalues --   -0.87507  -0.87437  -0.87209  -0.86935  -0.85056
 Alpha  occ. eigenvalues --   -0.84801  -0.83996  -0.83623  -0.82893  -0.82764
 Alpha  occ. eigenvalues --   -0.82615  -0.82462  -0.81682  -0.81381  -0.80647
 Alpha  occ. eigenvalues --   -0.80231  -0.78794  -0.78411  -0.77279  -0.77035
 Alpha  occ. eigenvalues --   -0.76909  -0.76672  -0.76005  -0.75631  -0.74959
 Alpha  occ. eigenvalues --   -0.74552  -0.72846  -0.72438  -0.71745  -0.71351
 Alpha  occ. eigenvalues --   -0.70054  -0.69400  -0.68918  -0.68625  -0.67692
 Alpha  occ. eigenvalues --   -0.67378  -0.67243  -0.67030  -0.65382  -0.65075
 Alpha  occ. eigenvalues --   -0.64947  -0.64703  -0.64526  -0.64439  -0.64329
 Alpha  occ. eigenvalues --   -0.63928  -0.62410  -0.62062  -0.60426  -0.60135
 Alpha  occ. eigenvalues --   -0.59889  -0.59588  -0.59066  -0.58753  -0.58575
 Alpha  occ. eigenvalues --   -0.58196  -0.57702  -0.57348  -0.57337  -0.57008
 Alpha  occ. eigenvalues --   -0.56363  -0.56085  -0.55962  -0.55697  -0.55490
 Alpha  occ. eigenvalues --   -0.55418  -0.55263  -0.55023  -0.54620  -0.54313
 Alpha  occ. eigenvalues --   -0.53988  -0.53723  -0.53355  -0.53200  -0.53047
 Alpha  occ. eigenvalues --   -0.52993  -0.52933  -0.52709  -0.52656  -0.52522
 Alpha  occ. eigenvalues --   -0.52456  -0.52209  -0.51999  -0.51641  -0.51562
 Alpha  occ. eigenvalues --   -0.51476  -0.51298  -0.50969  -0.50416  -0.50318
 Alpha  occ. eigenvalues --   -0.50043  -0.49926  -0.49784  -0.49634  -0.49507
 Alpha  occ. eigenvalues --   -0.49314  -0.49246  -0.49155  -0.49001  -0.48885
 Alpha  occ. eigenvalues --   -0.48670  -0.48503  -0.48371  -0.48344  -0.48181
 Alpha  occ. eigenvalues --   -0.48116  -0.47705  -0.47381  -0.47311  -0.46917
 Alpha  occ. eigenvalues --   -0.46876  -0.46641  -0.46461  -0.46446  -0.46343
 Alpha  occ. eigenvalues --   -0.46293  -0.45990  -0.45935  -0.45809  -0.45569
 Alpha  occ. eigenvalues --   -0.45247  -0.45057  -0.44676  -0.44486  -0.44334
 Alpha  occ. eigenvalues --   -0.44252  -0.44167  -0.44117  -0.43970  -0.43940
 Alpha  occ. eigenvalues --   -0.43872  -0.43751  -0.43586  -0.43446  -0.43379
 Alpha  occ. eigenvalues --   -0.43175  -0.43065  -0.42829  -0.42788  -0.42693
 Alpha  occ. eigenvalues --   -0.42593  -0.42308  -0.41999  -0.41799  -0.41708
 Alpha  occ. eigenvalues --   -0.41548  -0.41431  -0.41281  -0.41177  -0.40912
 Alpha  occ. eigenvalues --   -0.40790  -0.40702  -0.40640  -0.40578  -0.40466
 Alpha  occ. eigenvalues --   -0.40273  -0.40180  -0.40070  -0.39463  -0.38880
 Alpha  occ. eigenvalues --   -0.38522  -0.38087  -0.37841  -0.37467  -0.37379
 Alpha  occ. eigenvalues --   -0.37355  -0.37004  -0.36975  -0.36851  -0.36577
 Alpha  occ. eigenvalues --   -0.36286  -0.35935  -0.34367  -0.34009  -0.33957
 Alpha  occ. eigenvalues --   -0.33678  -0.33276  -0.32925  -0.31228  -0.31144
 Alpha  occ. eigenvalues --   -0.31067  -0.30737  -0.30126  -0.29737  -0.29479
 Alpha  occ. eigenvalues --   -0.29379  -0.29114  -0.28963  -0.24180  -0.23784
 Alpha  occ. eigenvalues --   -0.21206  -0.20872
 Alpha virt. eigenvalues --   -0.08828  -0.08556  -0.01828  -0.01464  -0.00021
 Alpha virt. eigenvalues --    0.00152   0.02122   0.02429   0.03053   0.03552
 Alpha virt. eigenvalues --    0.04609   0.04891   0.04948   0.05348   0.05961

 Mulliken charges:
               1
     1  Mg   0.802657
     2  C   -0.000833
     3  C   -0.091455
     4  C   -0.045012
     5  C   -0.063641
     6  N   -0.252828
     7  C   -0.056984
     8  C   -0.013061
     9  C   -0.086914
    10  C    0.046724
    11  C    0.104610
    12  C    0.049549
    13  C   -0.071787
    14  H    0.036265
    15  N   -0.436272
    16  C    0.167532
    17  C   -0.175757
    18  C   -0.001138
    19  C    0.151230
    20  C    0.110033
    21  C    0.018406
    22  O   -0.249078
    23  C    0.059578
    24  N   -0.333483
    25  C    0.039340
    26  C   -0.027979
    27  C   -0.024183
    28  C    0.071163
    29  C    0.076594
    30  C    0.044946
    31  C   -0.022289
    32  N   -0.311074
    33  C    0.077720
    34  C   -0.172814
    35  C    0.008179
    36  C    0.077588
    37  C    0.127907
    38  C    0.044783
    39  O   -0.188422
    40  C   -0.007039
    41  C    0.213649
    42  O   -0.260335
    43  O   -0.304183
    44  C    0.157379
    45  H   -0.017612
    46  H   -0.016124
    47  H   -0.042919
    48  H    0.000915
    49  H   -0.003478
    50  H    0.025704
    51  H    0.017248
    52  H    0.017060
    53  H    0.012872
    54  H    0.044003
    55  H    0.018286
    56  H    0.018603
    57  H    0.005148
    58  H    0.026905
    59  H    0.044195
    60  H    0.034625
    61  H    0.036152
    62  H    0.041209
    63  H    0.017626
    64  H    0.009617
    65  H    0.023795
    66  H    0.012743
    67  H    0.004921
    68  H    0.005063
    69  H    0.003089
    70  H    0.010083
    71  H    0.026579
    72  H    0.031628
    73  H    0.046441
    74  H    0.009063
    75  H    0.046496
    76  H    0.035862
    77  H    0.043699
    78  H    0.046787
    79  H    0.053448
    80  Mg   0.837757
    81  C   -0.017503
    82  C   -0.088458
    83  C   -0.045179
    84  C   -0.063300
    85  N   -0.254662
    86  C   -0.049622
    87  C   -0.015083
    88  C   -0.090429
    89  C    0.045600
    90  C    0.114600
    91  C    0.062598
    92  C   -0.077581
    93  H    0.034373
    94  N   -0.423198
    95  C    0.162484
    96  C   -0.175575
    97  C   -0.008935
    98  C    0.151983
    99  C    0.099732
   100  C    0.015420
   101  O   -0.255659
   102  C    0.061415
   103  N   -0.350124
   104  C    0.036482
   105  C   -0.027657
   106  C   -0.039589
   107  C    0.088718
   108  C    0.056443
   109  C    0.020910
   110  C   -0.008351
   111  N   -0.324296
   112  C    0.077727
   113  C   -0.162002
   114  C    0.001978
   115  C    0.096608
   116  C    0.131751
   117  C    0.042642
   118  O   -0.187871
   119  C    0.000914
   120  C    0.211171
   121  O   -0.251269
   122  O   -0.305633
   123  C    0.152173
   124  H   -0.020730
   125  H   -0.016753
   126  H   -0.033116
   127  H   -0.000927
   128  H   -0.004905
   129  H    0.022365
   130  H    0.014282
   131  H    0.015490
   132  H    0.013868
   133  H    0.037605
   134  H    0.020608
   135  H    0.019302
   136  H    0.008344
   137  H    0.024655
   138  H    0.039073
   139  H    0.037427
   140  H    0.034586
   141  H    0.034601
   142  H    0.016672
   143  H    0.029613
   144  H    0.039523
   145  H    0.008000
   146  H    0.018823
   147  H    0.017456
   148  H    0.013790
   149  H    0.013068
   150  H    0.024343
   151  H    0.025090
   152  H    0.044914
   153  H    0.012697
   154  H    0.048670
   155  H    0.034790
   156  H    0.043669
   157  H    0.049237
   158  H    0.053370
 Sum of Mulliken charges =  -0.00000

 Dipole moment (field-independent basis, Debye):
    X=              1.3682    Y=              6.1960    Z=             -5.3928  Tot=              8.3273
 Quadrupole moment (field-independent basis, Debye-Ang):
   XX=           -459.8980   YY=           -544.6625   ZZ=           -476.4141
   XY=            -30.5811   XZ=              8.6269   YZ=            -11.5425

 Normal termination of Gaussian 16 at Fri Sep 10 08:22:35 2021.
