 Gaussian 16, Revision A.03,
 Gaussian 16:  ES64L-G16RevA.03 25-Dec-2016

 -----------------------------------
 #p cam-b3lyp/Def2SVP td=(nstates=5)
 -----------------------------------

 --------------------------------
 TDDFT excited states in gaussian
 --------------------------------
 Symbolic Z-matrix:
 Charge =  0 Multiplicity = 1

                         Standard orientation:
 ---------------------------------------------------------------------
 Center     Atomic      Atomic             Coordinates (Angstroms)
 Number     Number       Type             X           Y           Z
 ---------------------------------------------------------------------
      1         12           0        5.033641   -1.342911   -0.068580
      2          6           0        6.136066    2.041929   -0.442380
      3          6           0        6.059380   -1.161339    3.180721
      4          6           0        4.490206   -4.458597    0.163364
      5          6           0        5.156212   -1.610830   -3.541166
      6          7           0        5.962853    0.288694    1.104057
      7          6           0        6.278138    1.556760    0.859569
      8          6           0        6.702985    2.344664    2.134750
      9          6           0        7.176485    1.121047    3.040597
     10          6           0        6.323671    0.022767    2.430338
     11          6           0        8.647076    0.760298    2.856957
     12          6           0        5.503361    3.110330    2.787734
     13          6           0        5.889679    4.157727    3.836101
     14          1           0        5.103339    5.378529    3.929168
     15          7           0        4.785227   -2.485031    1.524123
     16          6           0        5.257811   -2.248992    2.771614
     17          6           0        4.807639   -3.388002    3.600277
     18          6           0        4.197373   -4.398322    2.692025
     19          6           0        4.493931   -3.825336    1.403957
     20          6           0        4.930106   -3.418746    5.092861
     21          6           0        3.472590   -5.682477    2.944549
     22          8           0        3.229370   -6.521218    2.010776
     23          6           0        3.128273   -5.977641    4.347177
     24          7           0        5.058487   -2.896375   -1.462770
     25          6           0        4.728492   -4.144081   -1.111605
     26          6           0        4.543072   -5.019233   -2.315626
     27          6           0        4.577940   -4.044696   -3.580069
     28          6           0        4.875755   -2.714678   -2.844795
     29          6           0        5.583536   -6.132464   -2.500458
     30          6           0        3.365967   -4.099410   -4.543681
     31          6           0        2.132224   -3.570475   -3.847118
     32          7           0        5.377049    0.007489   -1.732772
     33          6           0        5.404513   -0.323430   -3.095275
     34          6           0        5.780215    0.898960   -3.829222
     35          6           0        5.962555    1.858118   -2.834932
     36          6           0        5.741966    1.265380   -1.558886
     37          6           0        5.968440    1.001798   -5.235789
     38          6           0        6.316474    3.239647   -2.552129
     39          8           0        6.516976    4.241688   -3.240028
     40          6           0        6.561962    3.383340   -0.985312
     41          6           0        5.812722    4.601234   -0.517678
     42          8           0        4.565255    4.630866   -0.535435
     43          8           0        6.663910    5.439309    0.093591
     44          6           0        5.978986    6.655307    0.607773
     45          1           0        6.556238   -1.298197    4.143188
     46          1           0        4.198266   -5.510509    0.189657
     47          1           0        5.132014   -1.596996   -4.632347
     48          1           0        7.529888    3.039184    1.985425
     49          1           0        6.915105    1.265563    4.088699
     50          1           0        9.095605    1.321485    2.037315
     51          1           0        8.659716   -0.307763    2.638830
     52          1           0        9.195338    0.881761    3.791533
     53          1           0        4.935588    2.421943    3.413688
     54          1           0        4.881918    3.577738    2.023101
     55          1           0        6.953881    4.391217    3.792909
     56          1           0        5.748254    3.720091    4.824369
     57          1           0        5.567093   -2.614585    5.459082
     58          1           0        5.469172   -4.330508    5.349388
     59          1           0        3.957206   -3.416200    5.584584
     60          1           0        4.040674   -6.007161    4.943164
     61          1           0        2.535814   -6.891627    4.325433
     62          1           0        2.529384   -5.157327    4.743871
     63          1           0        3.581070   -5.529115   -2.284043
     64          1           0        5.437289   -4.238663   -4.222385
     65          1           0        5.150477   -7.131388   -2.558040
     66          1           0        6.299947   -6.063376   -1.682367
     67          1           0        6.232479   -6.012210   -3.367539
     68          1           0        3.155734   -5.129229   -4.830425
     69          1           0        3.516559   -3.524797   -5.457679
     70          1           0        1.771384   -4.439385   -3.297916
     71          1           0        1.395470   -3.237594   -4.578961
     72          1           0        2.386410   -2.804351   -3.114363
     73          1           0        5.485898    1.930208   -5.541037
     74          1           0        5.542363    0.144250   -5.756051
     75          1           0        7.056568    1.026295   -5.292647
     76          1           0        7.637566    3.485319   -0.844601
     77          1           0        6.488953    7.517187    0.177272
     78          1           0        5.964363    6.566690    1.694207
     79          1           0        4.960724    6.820889    0.254130
     80         12           0       -5.199193    1.378505    0.149313
     81          6           0       -5.921060   -2.136805    0.173462
     82          6           0       -4.451587    1.050329   -3.162478
     83          6           0       -4.126818    4.364333    0.197412
     84          6           0       -4.894184    1.198424    3.616335
     85          7           0       -5.222364   -0.368744   -1.206711
     86          6           0       -5.573212   -1.641537   -1.100570
     87          6           0       -5.627392   -2.408386   -2.449107
     88          6           0       -4.614603   -1.488366   -3.289763
     89          6           0       -4.794067   -0.173443   -2.533829
     90          6           0       -3.162850   -1.918785   -3.161442
     91          6           0       -7.063855   -2.406578   -3.080443
     92          6           0       -7.260423   -3.392325   -4.234324
     93          1           0       -8.557548   -4.047858   -4.376408
     94          7           0       -4.876432    2.651285   -1.338779
     95          6           0       -4.610218    2.347159   -2.626373
     96          6           0       -4.432368    3.634704   -3.315403
     97          6           0       -4.452332    4.718868   -2.296140
     98          6           0       -4.465424    3.934767   -1.077490
     99          6           0       -4.345038    3.752879   -4.809329
    100          6           0       -4.446083    6.213934   -2.400676
    101          8           0       -4.226173    6.959276   -1.381388
    102          6           0       -4.612207    6.777597   -3.748329
    103          7           0       -4.390094    2.561982    1.654998
    104          6           0       -4.054473    3.843054    1.422300
    105          6           0       -3.755285    4.571277    2.710928
    106          6           0       -4.196310    3.573719    3.880518
    107          6           0       -4.609283    2.352809    3.029496
    108          6           0       -2.298665    4.985679    2.918113
    109          6           0       -5.204823    4.119637    4.928162
    110          6           0       -6.548613    4.355313    4.276949
    111          7           0       -5.548810   -0.120304    1.665694
    112          6           0       -5.331898    0.005488    3.055374
    113          6           0       -5.603632   -1.314885    3.659695
    114          6           0       -5.940134   -2.129623    2.568156
    115          6           0       -5.862612   -1.375764    1.366001
    116          6           0       -5.478440   -1.639704    5.039896
    117          6           0       -6.332988   -3.458703    2.158379
    118          8           0       -6.639176   -4.494470    2.747599
    119          6           0       -6.215345   -3.555180    0.576216
    120          6           0       -7.477977   -4.184167    0.054059
    121          8           0       -8.568879   -3.597307    0.164316
    122          8           0       -7.160475   -5.267379   -0.678198
    123          6           0       -8.379313   -5.919390   -1.226958
    124          1           0       -3.977026    1.014643   -4.143500
    125          1           0       -3.856478    5.419337    0.283203
    126          1           0       -4.916456    1.085488    4.702350
    127          1           0       -5.258321   -3.426167   -2.408060
    128          1           0       -4.940485   -1.382715   -4.321272
    129          1           0       -3.038299   -2.702895   -2.429461
    130          1           0       -2.618540   -1.032456   -2.862769
    131          1           0       -2.765355   -2.200903   -4.140593
    132          1           0       -7.219480   -1.459841   -3.613548
    133          1           0       -7.810446   -2.576187   -2.329139
    134          1           0       -6.449516   -4.128720   -4.290010
    135          1           0       -7.188655   -2.842890   -5.176128
    136          1           0       -4.193454    2.774638   -5.282052
    137          1           0       -3.427508    4.307783   -5.033107
    138          1           0       -5.194847    4.286740   -5.240018
    139          1           0       -3.819049    6.408750   -4.394330
    140          1           0       -4.670982    7.858642   -3.607739
    141          1           0       -5.555707    6.410333   -4.167302
    142          1           0       -4.339024    5.480520    2.785810
    143          1           0       -3.337820    3.255845    4.490259
    144          1           0       -2.173452    6.072275    3.084565
    145          1           0       -1.726704    4.664379    2.057777
    146          1           0       -1.787233    4.482131    3.736699
    147          1           0       -4.869703    5.088073    5.307611
    148          1           0       -5.334813    3.465841    5.784114
    149          1           0       -6.431865    5.342809    3.820532
    150          1           0       -7.340852    4.356422    5.022865
    151          1           0       -6.725273    3.637042    3.467918
    152          1           0       -6.345734   -2.231697    5.300332
    153          1           0       -5.408124   -0.744475    5.654228
    154          1           0       -4.540510   -2.201215    5.023823
    155          1           0       -5.334218   -4.156585    0.349298
    156          1           0       -8.356554   -6.964173   -0.902006
    157          1           0       -8.354497   -5.730130   -2.316591
    158          1           0       -9.338197   -5.597695   -0.837733
 ---------------------------------------------------------------------

 SCF Done:  E(RCAM-B3LYP) =  -4069.81166407     A.U. after   19 cycles

 Excitation energies and oscillator strengths:

 Excited State   1:      Singlet-A      1.6574 eV  748.07 nm  f=0.0065  <S**2>=0.000
     309 -> 315        0.11269
     310 -> 316        0.12654
     311 -> 313        0.45602
     312 -> 314        0.51401
 This state for optimization and/or second-order correction.
 Total Energy, E(TD-HF/TD-DFT) =  -4069.75075654
 Copying the excited state density for this state as the 1-particle RhoCI density.

 Excited State   2:      Singlet-A      1.6976 eV  730.37 nm  f=0.7136  <S**2>=0.000
     309 -> 315        0.13471
     310 -> 316       -0.11910
     311 -> 313        0.51211
     312 -> 314       -0.45440

 Excited State   3:      Singlet-A      2.1843 eV  567.62 nm  f=0.0196  <S**2>=0.000
     309 -> 313        0.28959
     310 -> 314        0.57528
     311 -> 315       -0.12109
     312 -> 316       -0.24194

 Excited State   4:      Singlet-A      2.1955 eV  564.72 nm  f=0.1615  <S**2>=0.000
     309 -> 313        0.57162
     310 -> 314       -0.28652
     311 -> 315       -0.25068
     312 -> 316        0.12655

 Excited State   5:      Singlet-A      2.4868 eV  498.57 nm  f=0.0000  <S**2>=0.000
     312 -> 313        0.70710

 The electronic state is 1-A.
 Alpha  occ. eigenvalues --  -46.87878 -46.87493 -19.26319 -19.26229 -19.19060
 Alpha  occ. eigenvalues --  -19.19036 -19.18843 -19.18509 -19.18240 -19.17902
 Alpha  occ. eigenvalues --  -14.42528 -14.42332 -14.41538 -14.41194 -14.39478
 Alpha  occ. eigenvalues --  -14.39178 -14.38670 -14.38439 -10.39122 -10.38963
 Alpha  occ. eigenvalues --  -10.35472 -10.35183 -10.34459 -10.34081 -10.31697
 Alpha  occ. eigenvalues --  -10.31651 -10.31487 -10.31158 -10.30973 -10.30847
 Alpha  occ. eigenvalues --  -10.30654 -10.30590 -10.30296 -10.30234 -10.30207
 Alpha  occ. eigenvalues --  -10.30017 -10.29969 -10.29736 -10.29706 -10.29329
 Alpha  occ. eigenvalues --  -10.29258 -10.29238 -10.28811 -10.28593 -10.28571
 Alpha  occ. eigenvalues --  -10.28548 -10.28435 -10.28231 -10.28182 -10.27992
 Alpha  occ. eigenvalues --  -10.27869 -10.27835 -10.27805 -10.27652 -10.27634
 Alpha  occ. eigenvalues --  -10.27564 -10.27524 -10.27501 -10.27477 -10.27383
 Alpha  occ. eigenvalues --  -10.27318 -10.27291 -10.27255 -10.27219 -10.27216
 Alpha  occ. eigenvalues --  -10.26900 -10.26765 -10.26565 -10.26390 -10.26379
 Alpha  occ. eigenvalues --  -10.26293 -10.26189 -10.26117 -10.26040 -10.25962
 Alpha  occ. eigenvalues --  -10.25866 -10.25784 -10.25764 -10.25531 -10.25193
 Alpha  occ. eigenvalues --  -10.24938 -10.24910 -10.24869 -10.24712 -10.24634
 Alpha  occ. eigenvalues --  -10.24514  -3.16621  -3.16243  -1.91502  -1.91125
 Alpha  occ. eigenvalues --   -1.91089  -1.90931  -1.90714  -1.90551  -1.16669
 Alpha  occ. eigenvalues --   -1.16521  -1.08697  -1.08514  -1.07241  -1.06820
 Alpha  occ. eigenvalues --   -1.06757  -1.06683  -1.04657  -1.04330  -1.03845
 Alpha  occ. eigenvalues --   -1.03496  -1.03315  -1.02873  -1.02493  -1.01946
 Alpha  occ. eigenvalues --   -0.92046  -0.91828  -0.89638  -0.89346  -0.89256
 Alpha  occ. eigenvalues --   -0.89004  -0.88400  -0.88068  -0.87961  -0.87752
 Alpha  occ. eigenvalues --   -0.87656  -0.87525  -0.87325  -0.86928  -0.85050
 Alpha  occ. eigenvalues --   -0.84848  -0.84064  -0.83729  -0.83018  -0.82743
 Alpha  occ. eigenvalues --   -0.82707  -0.82489  -0.81648  -0.81458  -0.80661
 Alpha  occ. eigenvalues --   -0.80288  -0.78863  -0.78464  -0.77311  -0.77010
 Alpha  occ. eigenvalues --   -0.76994  -0.76755  -0.75990  -0.75689  -0.74996
 Alpha  occ. eigenvalues --   -0.74639  -0.72862  -0.72545  -0.71750  -0.71418
 Alpha  occ. eigenvalues --   -0.70058  -0.69625  -0.68940  -0.68675  -0.67711
 Alpha  occ. eigenvalues --   -0.67441  -0.67275  -0.67043  -0.65359  -0.65124
 Alpha  occ. eigenvalues --   -0.64933  -0.64701  -0.64618  -0.64505  -0.64377
 Alpha  occ. eigenvalues --   -0.64056  -0.62359  -0.62140  -0.60509  -0.60159
 Alpha  occ. eigenvalues --   -0.59874  -0.59644  -0.59070  -0.58835  -0.58583
 Alpha  occ. eigenvalues --   -0.58269  -0.57650  -0.57412  -0.57391  -0.57076
 Alpha  occ. eigenvalues --   -0.56383  -0.56051  -0.56029  -0.55746  -0.55579
 Alpha  occ. eigenvalues --   -0.55440  -0.55287  -0.55105  -0.54612  -0.54349
 Alpha  occ. eigenvalues --   -0.53960  -0.53765  -0.53376  -0.53274  -0.53072
 Alpha  occ. eigenvalues --   -0.52989  -0.52981  -0.52803  -0.52755  -0.52591
 Alpha  occ. eigenvalues --   -0.52475  -0.52281  -0.52014  -0.51771  -0.51672
 Alpha  occ. eigenvalues --   -0.51500  -0.51284  -0.51058  -0.50611  -0.50278
 Alpha  occ. eigenvalues --   -0.50148  -0.49970  -0.49813  -0.49703  -0.49569
 Alpha  occ. eigenvalues --   -0.49317  -0.49281  -0.49163  -0.49043  -0.48958
 Alpha  occ. eigenvalues --   -0.48665  -0.48549  -0.48488  -0.48412  -0.48222
 Alpha  occ. eigenvalues --   -0.48151  -0.47766  -0.47433  -0.47364  -0.46944
 Alpha  occ. eigenvalues --   -0.46892  -0.46618  -0.46561  -0.46444  -0.46403
 Alpha  occ. eigenvalues --   -0.46249  -0.46111  -0.45938  -0.45900  -0.45691
 Alpha  occ. eigenvalues --   -0.45304  -0.45034  -0.44658  -0.44574  -0.44372
 Alpha  occ. eigenvalues --   -0.44326  -0.44243  -0.44154  -0.44074  -0.43975
 Alpha  occ. eigenvalues --   -0.43923  -0.43766  -0.43565  -0.43466  -0.43420
 Alpha  occ. eigenvalues --   -0.43232  -0.43110  -0.42810  -0.42792  -0.42754
 Alpha  occ. eigenvalues --   -0.42726  -0.42400  -0.42122  -0.41827  -0.41782
 Alpha  occ. eigenvalues --   -0.41606  -0.41516  -0.41313  -0.41217  -0.40962
 Alpha  occ. eigenvalues --   -0.40859  -0.40829  -0.40678  -0.40571  -0.40521
 Alpha  occ. eigenvalues --   -0.40346  -0.40292  -0.40076  -0.39605  -0.39296
 Alpha  occ. eigenvalues --   -0.38578  -0.38199  -0.37815  -0.37515  -0.37423
 Alpha  occ. eigenvalues --   -0.37331  -0.37116  -0.37044  -0.36778  -0.36640
 Alpha  occ. eigenvalues --   -0.36270  -0.36068  -0.34368  -0.34094  -0.33817
 Alpha  occ. eigenvalues --   -0.33728  -0.33265  -0.33012  -0.31375  -0.31111
 Alpha  occ. eigenvalues --   -0.31070  -0.30805  -0.30100  -0.29810  -0.29516
 Alpha  occ. eigenvalues --   -0.29400  -0.29149  -0.29050  -0.24161  -0.23870
 Alpha  occ. eigenvalues --   -0.21210  -0.20951
 Alpha virt. eigenvalues --   -0.08849  -0.08621  -0.01829  -0.01513  -0.00111
 Alpha virt. eigenvalues --    0.00156   0.02122   0.02360   0.03013   0.03382
 Alpha virt. eigenvalues --    0.04642   0.04882   0.05052   0.05296   0.06117

 Mulliken charges:
               1
     1  Mg   0.838588
     2  C   -0.002744
     3  C   -0.094019
     4  C   -0.045906
     5  C   -0.064434
     6  N   -0.256761
     7  C   -0.052547
     8  C   -0.013963
     9  C   -0.087046
    10  C    0.046396
    11  C    0.104764
    12  C    0.053466
    13  C   -0.071907
    14  H    0.036292
    15  N   -0.433263
    16  C    0.168577
    17  C   -0.176883
    18  C   -0.003628
    19  C    0.148846
    20  C    0.110142
    21  C    0.012736
    22  O   -0.249238
    23  C    0.062277
    24  N   -0.341000
    25  C    0.041155
    26  C   -0.028322
    27  C   -0.023708
    28  C    0.074420
    29  C    0.076073
    30  C    0.035314
    31  C   -0.004514
    32  N   -0.310339
    33  C    0.080028
    34  C   -0.170480
    35  C    0.008354
    36  C    0.082758
    37  C    0.127479
    38  C    0.045977
    39  O   -0.188524
    40  C   -0.005247
    41  C    0.212800
    42  O   -0.256853
    43  O   -0.304884
    44  C    0.157436
    45  H   -0.017285
    46  H   -0.016596
    47  H   -0.042216
    48  H    0.001096
    49  H   -0.003934
    50  H    0.025563
    51  H    0.016476
    52  H    0.016881
    53  H    0.010926
    54  H    0.044286
    55  H    0.018053
    56  H    0.017823
    57  H    0.005868
    58  H    0.027232
    59  H    0.040027
    60  H    0.037229
    61  H    0.036875
    62  H    0.031932
    63  H    0.016418
    64  H    0.009583
    65  H    0.023446
    66  H    0.012944
    67  H    0.004750
    68  H    0.006362
    69  H    0.004159
    70  H    0.009125
    71  H    0.015241
    72  H    0.029565
    73  H    0.046910
    74  H    0.008309
    75  H    0.046230
    76  H    0.035252
    77  H    0.043091
    78  H    0.046358
    79  H    0.054344
    80  Mg   0.838028
    81  C   -0.016813
    82  C   -0.087339
    83  C   -0.044080
    84  C   -0.065286
    85  N   -0.254543
    86  C   -0.050040
    87  C   -0.015086
    88  C   -0.090643
    89  C    0.045840
    90  C    0.114090
    91  C    0.062614
    92  C   -0.077653
    93  H    0.034433
    94  N   -0.423884
    95  C    0.163264
    96  C   -0.173183
    97  C   -0.006766
    98  C    0.152424
    99  C    0.098748
   100  C    0.016511
   101  O   -0.252821
   102  C    0.061012
   103  N   -0.349951
   104  C    0.037935
   105  C   -0.020074
   106  C   -0.034335
   107  C    0.088752
   108  C    0.073100
   109  C    0.034882
   110  C   -0.007551
   111  N   -0.323901
   112  C    0.078161
   113  C   -0.163879
   114  C    0.002069
   115  C    0.095892
   116  C    0.131583
   117  C    0.042074
   118  O   -0.188643
   119  C    0.000924
   120  C    0.211117
   121  O   -0.251299
   122  O   -0.305472
   123  C    0.152186
   124  H   -0.019231
   125  H   -0.014921
   126  H   -0.041566
   127  H   -0.000719
   128  H   -0.004725
   129  H    0.023027
   130  H    0.015659
   131  H    0.015285
   132  H    0.013827
   133  H    0.037542
   134  H    0.020593
   135  H    0.019389
   136  H    0.008530
   137  H    0.028304
   138  H    0.039426
   139  H    0.039633
   140  H    0.036293
   141  H    0.033159
   142  H    0.014029
   143  H    0.011371
   144  H    0.024601
   145  H    0.015438
   146  H    0.004413
   147  H    0.005704
   148  H    0.002843
   149  H    0.010954
   150  H    0.017370
   151  H    0.030390
   152  H    0.045573
   153  H    0.007817
   154  H    0.045785
   155  H    0.035423
   156  H    0.043734
   157  H    0.049346
   158  H    0.053312
 Sum of Mulliken charges =  -0.00000

 Dipole moment (field-independent basis, Debye):
    X=              4.0908    Y=             -0.6518    Z=              0.1094  Tot=              4.1439
 Quadrupole moment (field-independent basis, Debye-Ang):
   XX=           -525.2907   YY=           -546.2277   ZZ=           -448.3229
   XY=            -21.2596   XZ=             56.5821   YZ=             40.3617

 Normal termination of Gaussian 16 at Fri Sep 10 13:09:11 2021.
