 Gaussian 16, Revision A.03,
 Gaussian 16:  ES64L-G16RevA.03 25-Dec-2016

 -----------------------------------
 #p cam-b3lyp/Def2SVP td=(nstates=5)
 -----------------------------------

 --------------------------------
 TDDFT excited states in gaussian
 --------------------------------
 Symbolic Z-matrix:
 Charge =  0 Multiplicity = 1

                         Standard orientation:
 ---------------------------------------------------------------------
 Center     Atomic      Atomic             Coordinates (Angstroms)
 Number     Number       Type             X           Y           Z
 ---------------------------------------------------------------------
      1         12           0        3.942273   -0.505258    1.172453
      2          6           0        4.622880    2.462770   -0.708981
      3          6           0        3.928311    1.449599    3.969130
      4          6           0        3.794404   -3.162473    2.896972
      5          6           0        5.119621   -2.327036   -1.555300
      6          7           0        4.247420    1.667862    1.464140
      7          6           0        4.440829    2.704340    0.654524
      8          6           0        4.356546    4.079983    1.381074
      9          6           0        4.707533    3.604503    2.861860
     10          6           0        4.234417    2.164293    2.773077
     11          6           0        6.202124    3.612649    3.166214
     12          6           0        2.923245    4.705746    1.304904
     13          6           0        2.833266    6.182666    1.699827
     14          1           0        1.892342    7.039995    0.994846
     15          7           0        3.396907   -0.785062    3.050520
     16          6           0        3.442832    0.126579    4.051564
     17          6           0        2.931641   -0.563723    5.255245
     18          6           0        2.763431   -2.004266    4.916665
     19          6           0        3.343787   -2.046912    3.598809
     20          6           0        2.611499    0.144016    6.536012
     21          6           0        2.182796   -3.161207    5.666653
     22          8           0        2.345168   -4.370258    5.284023
     23          6           0        1.484785   -2.844164    6.925742
     24          7           0        4.593449   -2.458729    0.829591
     25          6           0        4.351837   -3.432004    1.714658
     26          6           0        4.653624   -4.782865    1.136696
     27          6           0        4.923671   -4.547618   -0.419417
     28          6           0        4.802978   -3.003980   -0.449158
     29          6           0        5.846843   -5.524127    1.755380
     30          6           0        4.069806   -5.373504   -1.414025
     31          6           0        2.624394   -4.935517   -1.336253
     32          7           0        4.569492   -0.058236   -0.856786
     33          6           0        5.043407   -0.968417   -1.812636
     34          6           0        5.444646   -0.183707   -2.994712
     35          6           0        5.190093    1.138512   -2.635846
     36          6           0        4.687849    1.179451   -1.303792
     37          6           0        6.023069   -0.706476   -4.184911
     38          6           0        5.248699    2.528273   -3.058912
     39          8           0        5.501452    3.101995   -4.119314
     40          6           0        4.998645    3.450747   -1.785200
     41          6           0        3.982728    4.491446   -2.170124
     42          8           0        2.804602    4.170760   -2.428089
     43          8           0        4.490275    5.712955   -1.944614
     44          6           0        3.521694    6.791294   -2.278064
     45          1           0        4.133214    1.920570    4.932532
     46          1           0        3.657287   -4.113332    3.416110
     47          1           0        5.416631   -2.834042   -2.475182
     48          1           0        5.085459    4.817300    1.044217
     49          1           0        4.131200    4.147198    3.610889
     50          1           0        6.789634    3.821003    2.272156
     51          1           0        6.427263    2.615852    3.545955
     52          1           0        6.427842    4.301580    3.980586
     53          1           0        2.297865    4.267326    2.082559
     54          1           0        2.496156    4.571808    0.310429
     55          1           0        3.819454    6.646390    1.735906
     56          1           0        2.469111    6.240338    2.725627
     57          1           0        2.993559    1.164102    6.536216
     58          1           0        3.172501   -0.356311    7.325100
     59          1           0        1.546441    0.113891    6.766392
     60          1           0        2.175625   -2.342606    7.603775
     61          1           0        1.058531   -3.782870    7.277864
     62          1           0        0.687330   -2.130327    6.717293
     63          1           0        3.805991   -5.456751    1.254263
     64          1           0        5.952482   -4.779781   -0.695679
     65          1           0        5.593678   -6.507958    2.151219
     66          1           0        6.273166   -4.888430    2.530898
     67          1           0        6.699251   -5.654514    1.089184
     68          1           0        4.099169   -6.430610   -1.152088
     69          1           0        4.401632   -5.278694   -2.448024
     70          1           0        2.242424   -5.505765   -0.490233
     71          1           0        2.097380   -5.198330   -2.254075
     72          1           0        2.541794   -3.878884   -1.080930
     73          1           0        5.527550   -0.199737   -5.012948
     74          1           0        5.893255   -1.786712   -4.246894
     75          1           0        7.065034   -0.418383   -4.046461
     76          1           0        5.959703    3.893307   -1.525144
     77          1           0        4.010606    7.451655   -2.994389
     78          1           0        3.199809    7.222712   -1.330080
     79          1           0        2.640347    6.489226   -2.844918
     80         12           0       -3.634779   -0.776538   -1.150212
     81          6           0       -5.981150    1.408180    0.462424
     82          6           0       -2.451606    1.960830   -2.805972
     83          6           0       -1.865288   -2.731866   -2.914587
     84          6           0       -5.709155   -3.432517   -0.262297
     85          7           0       -4.221866    1.355221   -1.093579
     86          6           0       -5.085867    2.078284   -0.397140
     87          6           0       -4.931108    3.612576   -0.574867
     88          6           0       -4.216659    3.617206   -2.013065
     89          6           0       -3.555930    2.241147   -1.962182
     90          6           0       -5.198567    3.632972   -3.172778
     91          6           0       -4.012596    4.252044    0.524867
     92          6           0       -4.065286    5.779657    0.598152
     93          1           0       -3.951325    6.418064    1.906555
     94          7           0       -2.035797   -0.406658   -2.266016
     95          6           0       -1.697803    0.767103   -2.839871
     96          6           0       -0.446944    0.512060   -3.570952
     97          6           0       -0.161757   -0.947578   -3.517679
     98          6           0       -1.380732   -1.432021   -2.901656
     99          6           0        0.387907    1.610196   -4.163016
    100          6           0        1.008341   -1.772538   -3.960963
    101          8           0        0.942211   -3.050486   -4.033801
    102          6           0        2.203218   -1.034843   -4.396342
    103          7           0       -3.868577   -2.762384   -1.719496
    104          6           0       -2.925904   -3.389126   -2.445095
    105          6           0       -3.178233   -4.877027   -2.498538
    106          6           0       -4.356377   -5.150849   -1.452314
    107          6           0       -4.655082   -3.698033   -1.021640
    108          6           0       -3.571705   -5.436354   -3.865551
    109          6           0       -4.084799   -6.208316   -0.347468
    110          6           0       -3.018846   -5.704208    0.598576
    111          7           0       -5.406623   -1.028956    0.060124
    112          6           0       -6.128717   -2.223021    0.276657
    113          6           0       -7.321434   -1.871926    1.074515
    114          6           0       -7.221732   -0.483325    1.248642
    115          6           0       -6.060321    0.000067    0.587632
    116          6           0       -8.338033   -2.776109    1.492970
    117          6           0       -7.840565    0.685030    1.832330
    118          8           0       -8.798490    0.878839    2.579697
    119          6           0       -7.132413    1.979960    1.242361
    120          6           0       -6.813706    2.898653    2.389946
    121          8           0       -5.987105    2.563983    3.256737
    122          8           0       -7.369957    4.101786    2.158811
    123          6           0       -7.072432    5.051079    3.264316
    124          1           0       -2.158472    2.709251   -3.542739
    125          1           0       -1.231743   -3.466260   -3.417338
    126          1           0       -6.353089   -4.218511    0.138013
    127          1           0       -5.864361    4.160886   -0.621531
    128          1           0       -3.464537    4.399164   -2.077950
    129          1           0       -6.218974    3.518775   -2.838300
    130          1           0       -4.914485    2.805773   -3.810023
    131          1           0       -5.059217    4.537046   -3.772422
    132          1           0       -2.962010    4.113798    0.238665
    133          1           0       -4.227858    3.836331    1.489998
    134          1           0       -4.917925    6.189766    0.043390
    135          1           0       -3.190673    6.182228    0.081411
    136          1           0       -0.157978    2.561389   -4.188404
    137          1           0        0.545273    1.359104   -5.217552
    138          1           0        1.359635    1.710470   -3.674788
    139          1           0        1.941720   -0.380226   -5.224335
    140          1           0        2.961959   -1.795595   -4.589853
    141          1           0        2.533273   -0.387955   -3.575834
    142          1           0       -2.299166   -5.429662   -2.190423
    143          1           0       -5.263888   -5.524233   -1.949146
    144          1           0       -2.897491   -6.239136   -4.219185
    145          1           0       -3.595110   -4.619570   -4.574673
    146          1           0       -4.585661   -5.827429   -3.930062
    147          1           0       -3.696181   -7.128282   -0.791089
    148          1           0       -4.968706   -6.474087    0.222666
    149          1           0       -2.089185   -5.954689    0.078901
    150          1           0       -3.084997   -6.214682    1.557270
    151          1           0       -3.060212   -4.612826    0.692538
    152          1           0       -8.562856   -2.536427    2.523752
    153          1           0       -8.018991   -3.810673    1.385031
    154          1           0       -9.132521   -2.515926    0.788439
    155          1           0       -7.823141    2.436297    0.532272
    156          1           0       -8.033084    5.426172    3.630573
    157          1           0       -6.370564    5.793383    2.839908
    158          1           0       -6.644069    4.644070    4.172776
 ---------------------------------------------------------------------

 SCF Done:  E(RCAM-B3LYP) =  -4069.81848346     A.U. after   17 cycles

 Excitation energies and oscillator strengths:

 Excited State   1:      Singlet-A      1.6249 eV  763.03 nm  f=0.1149  <S**2>=0.000
     309 -> 315       -0.11584
     310 -> 316       -0.11265
     311 -> 313        0.48819
     312 -> 314       -0.48090
 This state for optimization and/or second-order correction.
 Total Energy, E(TD-HF/TD-DFT) =  -4069.75876987
 Copying the excited state density for this state as the 1-particle RhoCI density.

 Excited State   2:      Singlet-A      1.7132 eV  723.71 nm  f=0.6021  <S**2>=0.000
     309 -> 315       -0.12979
     310 -> 316        0.12918
     311 -> 313        0.47996
     312 -> 314        0.48685

 Excited State   3:      Singlet-A      2.1839 eV  567.73 nm  f=0.0023  <S**2>=0.000
     309 -> 313        0.47029
     310 -> 314       -0.43920
     311 -> 315        0.19528
     312 -> 316        0.18337

 Excited State   4:      Singlet-A      2.2001 eV  563.55 nm  f=0.1645  <S**2>=0.000
     309 -> 313        0.43617
     310 -> 314        0.46073
     311 -> 315        0.19395
     312 -> 316       -0.20403

 Excited State   5:      Singlet-A      2.2110 eV  560.76 nm  f=0.0014  <S**2>=0.000
     312 -> 313        0.70045

 The electronic state is 1-A.
 Alpha  occ. eigenvalues --  -46.87947 -46.87293 -19.26919 -19.26206 -19.19853
 Alpha  occ. eigenvalues --  -19.18997 -19.18881 -19.18533 -19.18366 -19.17720
 Alpha  occ. eigenvalues --  -14.42610 -14.42134 -14.41543 -14.40984 -14.39549
 Alpha  occ. eigenvalues --  -14.38968 -14.38840 -14.38229 -10.39775 -10.38914
 Alpha  occ. eigenvalues --  -10.35504 -10.34974 -10.34771 -10.33910 -10.32256
 Alpha  occ. eigenvalues --  -10.31676 -10.31633 -10.31086 -10.30949 -10.30793
 Alpha  occ. eigenvalues --  -10.30684 -10.30608 -10.30197 -10.30065 -10.30038
 Alpha  occ. eigenvalues --  -10.29950 -10.29822 -10.29723 -10.29602 -10.29379
 Alpha  occ. eigenvalues --  -10.28982 -10.28981 -10.28945 -10.28833 -10.28608
 Alpha  occ. eigenvalues --  -10.28520 -10.28418 -10.28319 -10.28016 -10.27987
 Alpha  occ. eigenvalues --  -10.27880 -10.27803 -10.27749 -10.27618 -10.27568
 Alpha  occ. eigenvalues --  -10.27562 -10.27527 -10.27328 -10.27265 -10.27239
 Alpha  occ. eigenvalues --  -10.27217 -10.27126 -10.27116 -10.26987 -10.26972
 Alpha  occ. eigenvalues --  -10.26769 -10.26463 -10.26413 -10.26371 -10.26074
 Alpha  occ. eigenvalues --  -10.26059 -10.26045 -10.25863 -10.25715 -10.25591
 Alpha  occ. eigenvalues --  -10.25589 -10.25546 -10.25537 -10.25363 -10.25184
 Alpha  occ. eigenvalues --  -10.25127 -10.24918 -10.24473 -10.24441 -10.24341
 Alpha  occ. eigenvalues --  -10.23651  -3.16688  -3.16045  -1.91569  -1.91155
 Alpha  occ. eigenvalues --   -1.91000  -1.90928  -1.90515  -1.90352  -1.17281
 Alpha  occ. eigenvalues --   -1.16493  -1.09032  -1.08352  -1.07383  -1.07274
 Alpha  occ. eigenvalues --   -1.06777  -1.06593  -1.04765  -1.04123  -1.03879
 Alpha  occ. eigenvalues --   -1.03412  -1.03296  -1.02662  -1.02575  -1.01729
 Alpha  occ. eigenvalues --   -0.92236  -0.91634  -0.89506  -0.89357  -0.89151
 Alpha  occ. eigenvalues --   -0.88838  -0.88185  -0.88097  -0.87906  -0.87818
 Alpha  occ. eigenvalues --   -0.87429  -0.87379  -0.87300  -0.86417  -0.85177
 Alpha  occ. eigenvalues --   -0.84673  -0.83846  -0.83581  -0.82913  -0.82775
 Alpha  occ. eigenvalues --   -0.82465  -0.82100  -0.81899  -0.81326  -0.80794
 Alpha  occ. eigenvalues --   -0.80092  -0.78933  -0.78058  -0.77332  -0.77089
 Alpha  occ. eigenvalues --   -0.76723  -0.76617  -0.76127  -0.75451  -0.74867
 Alpha  occ. eigenvalues --   -0.74460  -0.72919  -0.72297  -0.71825  -0.71239
 Alpha  occ. eigenvalues --   -0.69581  -0.69443  -0.69038  -0.68473  -0.67828
 Alpha  occ. eigenvalues --   -0.67405  -0.67244  -0.66819  -0.65512  -0.65092
 Alpha  occ. eigenvalues --   -0.64955  -0.64760  -0.64436  -0.64337  -0.64157
 Alpha  occ. eigenvalues --   -0.63878  -0.62616  -0.62019  -0.60520  -0.60008
 Alpha  occ. eigenvalues --   -0.59807  -0.59449  -0.59155  -0.58690  -0.58643
 Alpha  occ. eigenvalues --   -0.58063  -0.58002  -0.57372  -0.57275  -0.56842
 Alpha  occ. eigenvalues --   -0.56578  -0.56306  -0.55812  -0.55705  -0.55561
 Alpha  occ. eigenvalues --   -0.55481  -0.55041  -0.54924  -0.54592  -0.54227
 Alpha  occ. eigenvalues --   -0.54113  -0.53601  -0.53432  -0.53411  -0.53188
 Alpha  occ. eigenvalues --   -0.52908  -0.52866  -0.52780  -0.52623  -0.52412
 Alpha  occ. eigenvalues --   -0.52098  -0.51996  -0.51818  -0.51716  -0.51552
 Alpha  occ. eigenvalues --   -0.51305  -0.51229  -0.50863  -0.50582  -0.50101
 Alpha  occ. eigenvalues --   -0.49891  -0.49795  -0.49695  -0.49506  -0.49474
 Alpha  occ. eigenvalues --   -0.49297  -0.49246  -0.49076  -0.48832  -0.48792
 Alpha  occ. eigenvalues --   -0.48670  -0.48607  -0.48445  -0.48218  -0.48083
 Alpha  occ. eigenvalues --   -0.47825  -0.47791  -0.47417  -0.47133  -0.46898
 Alpha  occ. eigenvalues --   -0.46757  -0.46621  -0.46513  -0.46359  -0.46261
 Alpha  occ. eigenvalues --   -0.46171  -0.46112  -0.45835  -0.45678  -0.45544
 Alpha  occ. eigenvalues --   -0.45156  -0.44884  -0.44843  -0.44590  -0.44380
 Alpha  occ. eigenvalues --   -0.44200  -0.44185  -0.44131  -0.44034  -0.43795
 Alpha  occ. eigenvalues --   -0.43760  -0.43703  -0.43475  -0.43364  -0.43287
 Alpha  occ. eigenvalues --   -0.43206  -0.43124  -0.43049  -0.42680  -0.42555
 Alpha  occ. eigenvalues --   -0.42539  -0.42147  -0.41964  -0.41824  -0.41655
 Alpha  occ. eigenvalues --   -0.41529  -0.41328  -0.41297  -0.41128  -0.40986
 Alpha  occ. eigenvalues --   -0.40897  -0.40646  -0.40451  -0.40393  -0.40361
 Alpha  occ. eigenvalues --   -0.40262  -0.40193  -0.39875  -0.39122  -0.39053
 Alpha  occ. eigenvalues --   -0.38396  -0.38058  -0.37973  -0.37512  -0.37394
 Alpha  occ. eigenvalues --   -0.37315  -0.37175  -0.36931  -0.36828  -0.36577
 Alpha  occ. eigenvalues --   -0.36270  -0.35922  -0.34543  -0.34386  -0.33896
 Alpha  occ. eigenvalues --   -0.33658  -0.33369  -0.32801  -0.31415  -0.31201
 Alpha  occ. eigenvalues --   -0.30889  -0.30615  -0.30404  -0.29673  -0.29640
 Alpha  occ. eigenvalues --   -0.29523  -0.28891  -0.28771  -0.24246  -0.23669
 Alpha  occ. eigenvalues --   -0.21289  -0.20714
 Alpha virt. eigenvalues --   -0.08952  -0.08366  -0.01881  -0.01332  -0.00223
 Alpha virt. eigenvalues --    0.00404   0.01937   0.02352   0.02584   0.04137
 Alpha virt. eigenvalues --    0.04475   0.04540   0.05048   0.05361   0.05897

 Mulliken charges:
               1
     1  Mg   0.838807
     2  C   -0.005392
     3  C   -0.093827
     4  C   -0.044792
     5  C   -0.057436
     6  N   -0.257429
     7  C   -0.053776
     8  C   -0.014390
     9  C   -0.087313
    10  C    0.047389
    11  C    0.104622
    12  C    0.053241
    13  C   -0.071591
    14  H    0.033498
    15  N   -0.433682
    16  C    0.170028
    17  C   -0.175773
    18  C   -0.002673
    19  C    0.149604
    20  C    0.109767
    21  C    0.013450
    22  O   -0.248380
    23  C    0.061699
    24  N   -0.341881
    25  C    0.043265
    26  C   -0.028180
    27  C   -0.023938
    28  C    0.075007
    29  C    0.076294
    30  C    0.033347
    31  C   -0.001565
    32  N   -0.306263
    33  C    0.073041
    34  C   -0.183882
    35  C    0.008755
    36  C    0.078214
    37  C    0.129230
    38  C    0.037355
    39  O   -0.189019
    40  C   -0.005807
    41  C    0.217925
    42  O   -0.261026
    43  O   -0.302516
    44  C    0.157721
    45  H   -0.016869
    46  H   -0.015469
    47  H   -0.039488
    48  H    0.000413
    49  H   -0.003196
    50  H    0.025437
    51  H    0.017083
    52  H    0.017338
    53  H    0.013152
    54  H    0.041171
    55  H    0.018395
    56  H    0.019706
    57  H    0.006271
    58  H    0.027500
    59  H    0.042841
    60  H    0.037255
    61  H    0.036670
    62  H    0.034057
    63  H    0.018265
    64  H    0.008324
    65  H    0.023396
    66  H    0.011411
    67  H    0.005064
    68  H    0.003262
    69  H    0.007291
    70  H   -0.000696
    71  H    0.034112
    72  H    0.025815
    73  H    0.043963
    74  H    0.013845
    75  H    0.046518
    76  H    0.036377
    77  H    0.044474
    78  H    0.048138
    79  H    0.050823
    80  Mg   0.835034
    81  C   -0.017050
    82  C   -0.081732
    83  C   -0.047114
    84  C   -0.065219
    85  N   -0.254281
    86  C   -0.051619
    87  C   -0.015001
    88  C   -0.090479
    89  C    0.044186
    90  C    0.114403
    91  C    0.061971
    92  C   -0.076761
    93  H    0.031163
    94  N   -0.424038
    95  C    0.160887
    96  C   -0.171084
    97  C   -0.010591
    98  C    0.152029
    99  C    0.101849
   100  C    0.018375
   101  O   -0.259373
   102  C    0.053034
   103  N   -0.350330
   104  C    0.038676
   105  C   -0.019798
   106  C   -0.034228
   107  C    0.088101
   108  C    0.074075
   109  C    0.035008
   110  C   -0.007232
   111  N   -0.323592
   112  C    0.076781
   113  C   -0.164684
   114  C    0.001560
   115  C    0.094716
   116  C    0.131835
   117  C    0.041055
   118  O   -0.190381
   119  C    0.001189
   120  C    0.211235
   121  O   -0.252540
   122  O   -0.305341
   123  C    0.152584
   124  H   -0.017289
   125  H   -0.016884
   126  H   -0.041813
   127  H   -0.001717
   128  H   -0.002832
   129  H    0.021716
   130  H    0.014827
   131  H    0.015995
   132  H    0.015629
   133  H    0.036099
   134  H    0.020681
   135  H    0.019636
   136  H    0.010252
   137  H    0.021648
   138  H    0.058797
   139  H    0.040193
   140  H    0.024316
   141  H    0.059873
   142  H    0.013220
   143  H    0.011500
   144  H    0.023508
   145  H    0.011873
   146  H    0.005331
   147  H    0.004849
   148  H    0.003084
   149  H    0.010355
   150  H    0.018303
   151  H    0.030306
   152  H    0.044411
   153  H    0.007648
   154  H    0.045825
   155  H    0.034362
   156  H    0.043327
   157  H    0.049116
   158  H    0.052198
 Sum of Mulliken charges =  -0.00000

 Dipole moment (field-independent basis, Debye):
    X=              3.3010    Y=              3.2976    Z=              1.2763  Tot=              4.8373
 Quadrupole moment (field-independent basis, Debye-Ang):
   XX=           -539.2431   YY=           -463.9006   ZZ=           -513.1768
   XY=              3.7105   XZ=             42.0865   YZ=             20.5163

 Normal termination of Gaussian 16 at Wed Sep  8 16:02:46 2021.
