 Gaussian 16, Revision A.03,
 Gaussian 16:  ES64L-G16RevA.03 25-Dec-2016

 -----------------------------------
 #p cam-b3lyp/Def2SVP td=(nstates=5)
 -----------------------------------

 --------------------------------
 TDDFT excited states in gaussian
 --------------------------------
 Symbolic Z-matrix:
 Charge =  0 Multiplicity = 1

                         Standard orientation:
 ---------------------------------------------------------------------
 Center     Atomic      Atomic             Coordinates (Angstroms)
 Number     Number       Type             X           Y           Z
 ---------------------------------------------------------------------
      1         12           0        3.511176   -1.728812    0.049726
      2          6           0        4.770642    0.981633   -1.919905
      3          6           0        5.347781   -0.497785    2.648673
      4          6           0        2.776815   -4.354080    1.670005
      5          6           0        2.715199   -3.336142   -2.938345
      6          7           0        4.848208    0.027333    0.219862
      7          6           0        5.199187    1.020402   -0.591187
      8          6           0        6.003693    2.146942    0.123691
      9          6           0        6.585520    1.304149    1.345646
     10          6           0        5.512618    0.233236    1.434807
     11          6           0        7.922712    0.635746    1.042896
     12          6           0        5.082909    3.312668    0.618637
     13          6           0        5.814697    4.593097    1.031362
     14          1           0        5.187687    5.877305    0.757467
     15          7           0        3.581320   -2.099156    1.988998
     16          6           0        4.376725   -1.490782    2.901411
     17          6           0        4.056950   -2.116481    4.202536
     18          6           0        3.148741   -3.267899    3.942755
     19          6           0        3.153627   -3.302913    2.502572
     20          6           0        4.555004   -1.589780    5.513367
     21          6           0        2.404232   -4.196814    4.848820
     22          8           0        1.857716   -5.270814    4.421713
     23          6           0        2.406895   -3.857659    6.283396
     24          7           0        3.042514   -3.676109   -0.538513
     25          6           0        2.706508   -4.606821    0.361409
     26          6           0        2.143153   -5.828876   -0.301276
     27          6           0        1.937077   -5.443624   -1.837136
     28          6           0        2.527921   -4.012542   -1.802793
     29          6           0        3.000600   -7.098271   -0.204158
     30          6           0        0.518480   -5.641925   -2.427626
     31          6           0       -0.444541   -4.666956   -1.787997
     32          7           0        3.532238   -1.215446   -2.059078
     33          6           0        3.180452   -2.046314   -3.132660
     34          6           0        3.460078   -1.294911   -4.370105
     35          6           0        3.973973   -0.077470   -3.927844
     36          6           0        4.037418   -0.078974   -2.505077
     37          6           0        3.289433   -1.780559   -5.696551
     38          6           0        4.507245    1.214858   -4.327049
     39          8           0        4.610883    1.817303   -5.396541
     40          6           0        5.157921    1.905169   -3.048019
     41          6           0        4.662445    3.324722   -2.996237
     42          8           0        3.459613    3.574885   -2.777194
     43          8           0        5.711433    4.161212   -2.975017
     44          6           0        5.289646    5.585178   -2.893950
     45          1           0        6.061045   -0.341033    3.460229
     46          1           0        2.411127   -5.240508    2.192456
     47          1           0        2.413229   -3.741063   -3.905974
     48          1           0        6.821743    2.564131   -0.463822
     49          1           0        6.615293    1.888207    2.265272
     50          1           0        8.193011    0.743129   -0.007499
     51          1           0        7.786127   -0.415994    1.295246
     52          1           0        8.700751    1.005639    1.711185
     53          1           0        4.637090    3.037473    1.574448
     54          1           0        4.329179    3.554077   -0.131655
     55          1           0        6.848343    4.590945    0.684259
     56          1           0        5.894013    4.605863    2.118444
     57          1           0        5.331996   -0.839142    5.374187
     58          1           0        5.060501   -2.413942    6.016299
     59          1           0        3.744803   -1.217788    6.140685
     60          1           0        3.435504   -3.822312    6.642929
     61          1           0        1.751581   -4.582565    6.764982
     62          1           0        2.003411   -2.852528    6.409338
     63          1           0        1.180895   -6.099817    0.131247
     64          1           0        2.582713   -6.025845   -2.495047
     65          1           0        2.482157   -7.943202    0.249729
     66          1           0        3.906077   -6.851776    0.349595
     67          1           0        3.413344   -7.444636   -1.151306
     68          1           0        0.153074   -6.644502   -2.207937
     69          1           0        0.478940   -5.503898   -3.508198
     70          1           0       -0.726531   -5.173137   -0.865450
     71          1           0       -1.312551   -4.513141   -2.429955
     72          1           0        0.054662   -3.738315   -1.510671
     73          1           0        2.827299   -0.970625   -6.260828
     74          1           0        2.671322   -2.677923   -5.713225
     75          1           0        4.324446   -1.981251   -5.972824
     76          1           0        6.238285    1.853186   -3.179299
     77          1           0        5.745025    6.103374   -3.737949
     78          1           0        5.546530    5.927857   -1.891460
     79          1           0        4.233114    5.786011   -3.074907
     80         12           0       -3.656504    1.602206    0.855977
     81          6           0       -4.867989   -0.961240   -1.344041
     82          6           0       -2.297419    3.106012   -1.887390
     83          6           0       -2.197205    3.629045    2.812966
     84          6           0       -4.102332   -0.639052    3.487273
     85          7           0       -3.651720    1.047808   -1.285250
     86          6           0       -4.197048    0.084177   -2.012146
     87          6           0       -4.082172    0.292237   -3.546128
     88          6           0       -2.795726    1.253306   -3.562767
     89          6           0       -2.935315    1.872629   -2.173663
     90          6           0       -1.479393    0.495967   -3.617988
     91          6           0       -5.341892    1.008212   -4.148202
     92          6           0       -5.436577    0.967039   -5.674995
     93          1           0       -6.757323    0.854138   -6.287662
     94          7           0       -2.853357    3.381133    0.496871
     95          6           0       -2.374123    3.834929   -0.680274
     96          6           0       -1.873890    5.192604   -0.414468
     97          6           0       -1.946768    5.440796    1.051075
     98          6           0       -2.324041    4.123616    1.523052
     99          6           0       -1.464203    6.137219   -1.506849
    100          6           0       -1.703155    6.658472    1.890198
    101          8           0       -1.592845    6.586569    3.165141
    102          6           0       -1.504563    7.923460    1.167796
    103          7           0       -3.012997    1.443495    2.826527
    104          6           0       -2.455106    2.491247    3.458113
    105          6           0       -2.326101    2.229455    4.939738
    106          6           0       -3.138251    0.878467    5.209627
    107          6           0       -3.538798    0.529965    3.759278
    108          6           0       -0.899268    2.079164    5.466958
    109          6           0       -4.251439    0.930722    6.291628
    110          6           0       -5.383586    1.817198    5.824937
    111          7           0       -4.524122   -0.361887    1.096065
    112          6           0       -4.582618   -1.129658    2.279789
    113          6           0       -5.160993   -2.440625    1.920267
    114          6           0       -5.379260   -2.352186    0.537150
    115          6           0       -4.947400   -1.083548    0.064323
    116          6           0       -5.371396   -3.529819    2.812186
    117          6           0       -5.866982   -3.047473   -0.632212
    118          8           0       -6.434455   -4.120887   -0.830918
    119          6           0       -5.440782   -2.224781   -1.923698
    120          6           0       -6.645922   -2.103046   -2.815510
    121          8           0       -7.639615   -1.450834   -2.449693
    122          8           0       -6.344133   -2.589918   -4.032981
    123          6           0       -7.504734   -2.480975   -4.956539
    124          1           0       -1.640994    3.538300   -2.643109
    125          1           0       -1.800838    4.331051    3.550233
    126          1           0       -4.364175   -1.356571    4.267832
    127          1           0       -3.880509   -0.608797   -4.112913
    128          1           0       -2.883107    2.016958   -4.331248
    129          1           0       -1.623100   -0.569569   -3.517356
    130          1           0       -0.886168    0.876924   -2.797016
    131          1           0       -0.933539    0.754807   -4.529785
    132          1           0       -5.245767    2.090821   -3.995045
    133          1           0       -6.243867    0.616678   -3.719526
    134          1           0       -4.746716    0.234372   -6.111158
    135          1           0       -5.093527    1.926385   -6.069946
    136          1           0       -1.361355    5.619669   -2.468590
    137          1           0       -0.449917    6.477456   -1.271653
    138          1           0       -2.120683    7.006927   -1.579807
    139          1           0       -0.657027    7.825123    0.493639
    140          1           0       -1.434252    8.692662    1.939340
    141          1           0       -2.384319    8.110856    0.542087
    142          1           0       -2.775109    3.030183    5.514470
    143          1           0       -2.479082    0.069206    5.556672
    144          1           0       -0.655433    2.793320    6.276036
    145          1           0       -0.214735    2.196216    4.637353
    146          1           0       -0.645887    1.087313    5.837373
    147          1           0       -3.865454    1.378289    7.210786
    148          1           0       -4.648226   -0.045233    6.550602
    149          1           0       -5.033801    2.821046    6.083824
    150          1           0       -6.303963    1.572024    6.351087
    151          1           0       -5.491486    1.776664    4.734819
    152          1           0       -6.349992   -3.932317    2.586679
    153          1           0       -5.300703   -3.212747    3.850566
    154          1           0       -4.541505   -4.180730    2.524338
    155          1           0       -4.628132   -2.769583   -2.405745
    156          1           0       -7.700672   -3.485813   -5.343321
    157          1           0       -7.228659   -1.702815   -5.692753
    158          1           0       -8.466509   -2.229093   -4.525281
 ---------------------------------------------------------------------

 SCF Done:  E(RCAM-B3LYP) =  -4069.81307389     A.U. after   19 cycles

 Excitation energies and oscillator strengths:

 Excited State   1:      Singlet-A      1.6587 eV  747.48 nm  f=0.2246  <S**2>=0.000
     309 -> 315        0.11554
     310 -> 316        0.12259
     311 -> 313        0.46578
     312 -> 314        0.50418
 This state for optimization and/or second-order correction.
 Total Energy, E(TD-HF/TD-DFT) =  -4069.75211820
 Copying the excited state density for this state as the 1-particle RhoCI density.

 Excited State   2:      Singlet-A      1.6847 eV  735.93 nm  f=0.4224  <S**2>=0.000
     309 -> 315        0.12955
     310 -> 316       -0.11893
     311 -> 313        0.50296
     312 -> 314       -0.46506

 Excited State   3:      Singlet-A      2.1856 eV  567.27 nm  f=0.0853  <S**2>=0.000
     309 -> 313        0.16871
     310 -> 314        0.62010
     312 -> 316       -0.26133

 Excited State   4:      Singlet-A      2.1920 eV  565.63 nm  f=0.1093  <S**2>=0.000
     309 -> 313        0.61855
     310 -> 314       -0.16699
     311 -> 315       -0.26737

 Excited State   5:      Singlet-A      2.2165 eV  559.37 nm  f=0.0000  <S**2>=0.000
     312 -> 313        0.70702

 The electronic state is 1-A.
 Alpha  occ. eigenvalues --  -46.87953 -46.87382 -19.26639 -19.26181 -19.19410
 Alpha  occ. eigenvalues --  -19.18973 -19.18972 -19.18506 -19.18429 -19.17814
 Alpha  occ. eigenvalues --  -14.42604 -14.42186 -14.41593 -14.41101 -14.39559
 Alpha  occ. eigenvalues --  -14.39065 -14.38770 -14.38326 -10.39447 -10.38900
 Alpha  occ. eigenvalues --  -10.35606 -10.35185 -10.34651 -10.33995 -10.32051
 Alpha  occ. eigenvalues --  -10.31607 -10.31581 -10.31065 -10.30956 -10.30756
 Alpha  occ. eigenvalues --  -10.30699 -10.30681 -10.30327 -10.30150 -10.30072
 Alpha  occ. eigenvalues --  -10.30049 -10.29881 -10.29817 -10.29686 -10.29413
 Alpha  occ. eigenvalues --  -10.29131 -10.29128 -10.28897 -10.28658 -10.28547
 Alpha  occ. eigenvalues --  -10.28367 -10.28359 -10.28258 -10.28109 -10.27987
 Alpha  occ. eigenvalues --  -10.27881 -10.27762 -10.27702 -10.27675 -10.27629
 Alpha  occ. eigenvalues --  -10.27582 -10.27567 -10.27518 -10.27416 -10.27391
 Alpha  occ. eigenvalues --  -10.27285 -10.27270 -10.27206 -10.27183 -10.27004
 Alpha  occ. eigenvalues --  -10.26837 -10.26837 -10.26578 -10.26381 -10.26367
 Alpha  occ. eigenvalues --  -10.26225 -10.26193 -10.26170 -10.26094 -10.26036
 Alpha  occ. eigenvalues --  -10.25665 -10.25577 -10.25488 -10.25439 -10.25369
 Alpha  occ. eigenvalues --  -10.25041 -10.24936 -10.24683 -10.24621 -10.24587
 Alpha  occ. eigenvalues --  -10.24448  -3.16695  -3.16133  -1.91576  -1.91162
 Alpha  occ. eigenvalues --   -1.91016  -1.91005  -1.90604  -1.90441  -1.16990
 Alpha  occ. eigenvalues --   -1.16469  -1.08903  -1.08432  -1.07371  -1.07021
 Alpha  occ. eigenvalues --   -1.06765  -1.06756  -1.04742  -1.04182  -1.03909
 Alpha  occ. eigenvalues --   -1.03401  -1.03383  -1.02776  -1.02575  -1.01838
 Alpha  occ. eigenvalues --   -0.92173  -0.91715  -0.89637  -0.89332  -0.89287
 Alpha  occ. eigenvalues --   -0.88755  -0.88387  -0.88078  -0.88053  -0.87824
 Alpha  occ. eigenvalues --   -0.87510  -0.87440  -0.87365  -0.86816  -0.85134
 Alpha  occ. eigenvalues --   -0.84666  -0.84043  -0.83736  -0.83111  -0.82816
 Alpha  occ. eigenvalues --   -0.82699  -0.82346  -0.81826  -0.81360  -0.80791
 Alpha  occ. eigenvalues --   -0.80185  -0.78971  -0.78325  -0.77363  -0.77106
 Alpha  occ. eigenvalues --   -0.76867  -0.76620  -0.76112  -0.75504  -0.75019
 Alpha  occ. eigenvalues --   -0.74632  -0.72943  -0.72410  -0.71828  -0.71305
 Alpha  occ. eigenvalues --   -0.69974  -0.69604  -0.69033  -0.68507  -0.67819
 Alpha  occ. eigenvalues --   -0.67370  -0.67344  -0.66910  -0.65452  -0.65049
 Alpha  occ. eigenvalues --   -0.64960  -0.64784  -0.64506  -0.64387  -0.64385
 Alpha  occ. eigenvalues --   -0.63999  -0.62551  -0.62063  -0.60593  -0.60083
 Alpha  occ. eigenvalues --   -0.59963  -0.59444  -0.59156  -0.58729  -0.58685
 Alpha  occ. eigenvalues --   -0.58172  -0.57850  -0.57468  -0.57325  -0.57018
 Alpha  occ. eigenvalues --   -0.56508  -0.56237  -0.55912  -0.55703  -0.55648
 Alpha  occ. eigenvalues --   -0.55508  -0.55191  -0.55075  -0.54716  -0.54320
 Alpha  occ. eigenvalues --   -0.54047  -0.53546  -0.53468  -0.53405  -0.53132
 Alpha  occ. eigenvalues --   -0.52979  -0.52917  -0.52873  -0.52618  -0.52504
 Alpha  occ. eigenvalues --   -0.52356  -0.52248  -0.52148  -0.51790  -0.51613
 Alpha  occ. eigenvalues --   -0.51377  -0.51342  -0.50948  -0.50723  -0.50190
 Alpha  occ. eigenvalues --   -0.50133  -0.50065  -0.49739  -0.49691  -0.49597
 Alpha  occ. eigenvalues --   -0.49419  -0.49269  -0.49188  -0.48901  -0.48809
 Alpha  occ. eigenvalues --   -0.48757  -0.48639  -0.48587  -0.48281  -0.48194
 Alpha  occ. eigenvalues --   -0.48079  -0.47852  -0.47460  -0.47305  -0.46946
 Alpha  occ. eigenvalues --   -0.46843  -0.46717  -0.46537  -0.46436  -0.46339
 Alpha  occ. eigenvalues --   -0.46221  -0.46054  -0.45998  -0.45880  -0.45575
 Alpha  occ. eigenvalues --   -0.45313  -0.45052  -0.44801  -0.44647  -0.44321
 Alpha  occ. eigenvalues --   -0.44275  -0.44225  -0.44203  -0.44158  -0.43859
 Alpha  occ. eigenvalues --   -0.43804  -0.43739  -0.43662  -0.43521  -0.43330
 Alpha  occ. eigenvalues --   -0.43201  -0.43104  -0.43003  -0.42755  -0.42727
 Alpha  occ. eigenvalues --   -0.42656  -0.42344  -0.42138  -0.41879  -0.41745
 Alpha  occ. eigenvalues --   -0.41676  -0.41417  -0.41293  -0.41165  -0.41003
 Alpha  occ. eigenvalues --   -0.40966  -0.40695  -0.40673  -0.40478  -0.40425
 Alpha  occ. eigenvalues --   -0.40364  -0.40241  -0.39928  -0.39489  -0.39278
 Alpha  occ. eigenvalues --   -0.38565  -0.38171  -0.37898  -0.37440  -0.37432
 Alpha  occ. eigenvalues --   -0.37353  -0.37036  -0.37004  -0.36879  -0.36590
 Alpha  occ. eigenvalues --   -0.36373  -0.36000  -0.34457  -0.34127  -0.33979
 Alpha  occ. eigenvalues --   -0.33656  -0.33365  -0.32890  -0.31500  -0.31202
 Alpha  occ. eigenvalues --   -0.31067  -0.30696  -0.30293  -0.29725  -0.29632
 Alpha  occ. eigenvalues --   -0.29519  -0.29042  -0.28932  -0.24245  -0.23749
 Alpha  occ. eigenvalues --   -0.21292  -0.20826
 Alpha virt. eigenvalues --   -0.08948  -0.08501  -0.01901  -0.01419  -0.00232
 Alpha virt. eigenvalues --    0.00260   0.01985   0.02354   0.02572   0.03608
 Alpha virt. eigenvalues --    0.04570   0.04757   0.05076   0.05368   0.06007

 Mulliken charges:
               1
     1  Mg   0.839173
     2  C   -0.003553
     3  C   -0.093664
     4  C   -0.045254
     5  C   -0.064431
     6  N   -0.257028
     7  C   -0.052107
     8  C   -0.014293
     9  C   -0.087231
    10  C    0.046952
    11  C    0.104694
    12  C    0.053343
    13  C   -0.071753
    14  H    0.035355
    15  N   -0.433355
    16  C    0.169110
    17  C   -0.177026
    18  C   -0.003757
    19  C    0.149516
    20  C    0.110108
    21  C    0.012311
    22  O   -0.248677
    23  C    0.062589
    24  N   -0.341323
    25  C    0.041816
    26  C   -0.028545
    27  C   -0.023998
    28  C    0.075191
    29  C    0.075976
    30  C    0.034715
    31  C   -0.006323
    32  N   -0.310059
    33  C    0.079837
    34  C   -0.171734
    35  C    0.007192
    36  C    0.081948
    37  C    0.127823
    38  C    0.043881
    39  O   -0.190103
    40  C   -0.004797
    41  C    0.213316
    42  O   -0.260914
    43  O   -0.303694
    44  C    0.158552
    45  H   -0.017110
    46  H   -0.016066
    47  H   -0.041632
    48  H    0.000643
    49  H   -0.003266
    50  H    0.025414
    51  H    0.016602
    52  H    0.017162
    53  H    0.013125
    54  H    0.042584
    55  H    0.017673
    56  H    0.019513
    57  H    0.006578
    58  H    0.027350
    59  H    0.039510
    60  H    0.037928
    61  H    0.035918
    62  H    0.030270
    63  H    0.017816
    64  H    0.009635
    65  H    0.024189
    66  H    0.012263
    67  H    0.005069
    68  H    0.008610
    69  H    0.003889
    70  H    0.011646
    71  H    0.019512
    72  H    0.027822
    73  H    0.044871
    74  H    0.009304
    75  H    0.046679
    76  H    0.035784
    77  H    0.043366
    78  H    0.047660
    79  H    0.050148
    80  Mg   0.836569
    81  C   -0.016148
    82  C   -0.085325
    83  C   -0.046364
    84  C   -0.064759
    85  N   -0.254758
    86  C   -0.050068
    87  C   -0.014924
    88  C   -0.090076
    89  C    0.043323
    90  C    0.112138
    91  C    0.062521
    92  C   -0.077424
    93  H    0.033293
    94  N   -0.424026
    95  C    0.161374
    96  C   -0.169866
    97  C   -0.009255
    98  C    0.153356
    99  C    0.099029
   100  C    0.015171
   101  O   -0.255051
   102  C    0.061417
   103  N   -0.350271
   104  C    0.037498
   105  C   -0.019441
   106  C   -0.034579
   107  C    0.088478
   108  C    0.074906
   109  C    0.035030
   110  C   -0.007503
   111  N   -0.323987
   112  C    0.077542
   113  C   -0.163335
   114  C    0.001890
   115  C    0.095543
   116  C    0.131695
   117  C    0.041860
   118  O   -0.189581
   119  C    0.000203
   120  C    0.211180
   121  O   -0.250993
   122  O   -0.305959
   123  C    0.152146
   124  H   -0.009334
   125  H   -0.017359
   126  H   -0.041106
   127  H   -0.002347
   128  H   -0.003320
   129  H    0.018690
   130  H    0.021869
   131  H    0.021664
   132  H    0.013973
   133  H    0.036703
   134  H    0.020535
   135  H    0.020475
   136  H    0.013300
   137  H    0.028908
   138  H    0.037707
   139  H    0.038349
   140  H    0.034807
   141  H    0.034065
   142  H    0.013858
   143  H    0.011020
   144  H    0.023378
   145  H    0.011528
   146  H    0.001950
   147  H    0.004625
   148  H    0.003662
   149  H    0.010365
   150  H    0.017535
   151  H    0.031022
   152  H    0.044937
   153  H    0.007966
   154  H    0.047766
   155  H    0.033839
   156  H    0.042955
   157  H    0.049890
   158  H    0.053415
 Sum of Mulliken charges =  -0.00000

 Dipole moment (field-independent basis, Debye):
    X=              5.8969    Y=              2.0825    Z=              1.3986  Tot=              6.4083
 Quadrupole moment (field-independent basis, Debye-Ang):
   XX=           -522.2579   YY=           -513.4389   ZZ=           -484.6139
   XY=            -10.1048   XZ=             31.1451   YZ=              2.9911

 Normal termination of Gaussian 16 at Wed Sep  8 14:08:19 2021.
