 Gaussian 16, Revision A.03,
 Gaussian 16:  ES64L-G16RevA.03 25-Dec-2016

 -----------------------------------
 #p cam-b3lyp/Def2SVP td=(nstates=5)
 -----------------------------------

 --------------------------------
 TDDFT excited states in gaussian
 --------------------------------
 Symbolic Z-matrix:
 Charge =  0 Multiplicity = 1

                         Standard orientation:
 ---------------------------------------------------------------------
 Center     Atomic      Atomic             Coordinates (Angstroms)
 Number     Number       Type             X           Y           Z
 ---------------------------------------------------------------------
      1         12           0        5.132195    0.880659    0.500597
      2          6           0        5.873214   -2.020816   -1.460156
      3          6           0        5.703915    2.738761   -2.303624
      4          6           0        4.928718    3.476450    2.310869
      5          6           0        5.730152   -1.061389    3.331950
      6          7           0        5.707384    0.315343   -1.561010
      7          6           0        5.902170   -0.835195   -2.197793
      8          6           0        6.065341   -0.668805   -3.738269
      9          6           0        6.557301    0.847266   -3.776997
     10          6           0        5.923217    1.341375   -2.488696
     11          6           0        8.071142    0.999512   -3.669251
     12          6           0        4.711088   -0.851360   -4.502732
     13          6           0        4.835339   -1.028709   -6.018801
     14          1           0        3.907251   -1.920184   -6.697972
     15          7           0        4.815441    2.766635    0.005008
     16          6           0        5.093225    3.348522   -1.186433
     17          6           0        4.675560    4.761168   -1.057324
     18          6           0        4.308438    4.998816    0.366347
     19          6           0        4.699514    3.747731    0.964029
     20          6           0        4.607983    5.708380   -2.215760
     21          6           0        3.711173    6.171747    1.077430
     22          8           0        3.688923    6.254610    2.353052
     23          6           0        3.226101    7.276263    0.230204
     24          7           0        5.516054    1.236253    2.521448
     25          6           0        5.290713    2.437055    3.065762
     26          6           0        5.364336    2.380431    4.562863
     27          6           0        5.448041    0.831827    4.943088
     28          6           0        5.492556    0.239729    3.512805
     29          6           0        6.542017    3.127656    5.203749
     30          6           0        4.384521    0.292081    5.932035
     31          6           0        3.018535    0.322748    5.283775
     32          7           0        5.527524   -1.214206    0.908398
     33          6           0        5.768024   -1.798697    2.160278
     34          6           0        6.090499   -3.217258    1.919936
     35          6           0        6.031040   -3.356450    0.534680
     36          6           0        5.718622   -2.098194   -0.054793
     37          6           0        6.444659   -4.171415    2.914214
     38          6           0        6.182964   -4.269900   -0.586206
     39          8           0        6.352539   -5.484919   -0.697857
     40          6           0        6.206772   -3.415077   -1.929537
     41          6           0        5.267438   -4.072696   -2.903445
     42          8           0        4.037651   -4.092373   -2.692251
     43          8           0        5.929987   -4.361902   -4.033901
     44          6           0        5.048238   -4.989953   -5.053816
     45          1           0        6.085498    3.436539   -3.051583
     46          1           0        4.759874    4.321885    2.981070
     47          1           0        5.844905   -1.747846    4.172819
     48          1           0        6.818348   -1.316152   -4.188097
     49          1           0        6.148442    1.386076   -4.631538
     50          1           0        8.553082    0.046057   -3.453429
     51          1           0        8.235556    1.702670   -2.852531
     52          1           0        8.476959    1.476636   -4.561687
     53          1           0        4.151350    0.083368   -4.470540
     54          1           0        4.143027   -1.684621   -4.087630
     55          1           0        5.861926   -1.251187   -6.311257
     56          1           0        4.619865   -0.071382   -6.493454
     57          1           0        5.094984    5.296516   -3.098791
     58          1           0        5.211755    6.576693   -1.952699
     59          1           0        3.586304    6.022329   -2.430095
     60          1           0        4.051580    7.657926   -0.371017
     61          1           0        2.751443    7.987187    0.905583
     62          1           0        2.490098    6.885041   -0.472786
     63          1           0        4.471971    2.811490    5.014857
     64          1           0        6.399446    0.576191    5.410158
     65          1           0        6.238813    3.881194    5.931040
     66          1           0        7.134488    3.571775    4.404357
     67          1           0        7.278606    2.488600    5.690023
     68          1           0        4.333805    0.925322    6.817122
     69          1           0        4.583586   -0.726876    6.264226
     70          1           0        2.693415    1.349226    5.449524
     71          1           0        2.348303   -0.383253    5.775265
     72          1           0        3.085839    0.172249    4.206136
     73          1           0        5.900887   -5.083635    2.668993
     74          1           0        6.191370   -3.815522    3.912607
     75          1           0        7.520819   -4.238582    2.755391
     76          1           0        7.236222   -3.420546   -2.286363
     77          1           0        5.505799   -5.939132   -5.332977
     78          1           0        4.904538   -4.247279   -5.838794
     79          1           0        4.071572   -5.327077   -4.704803
     80         12           0       -5.291557   -0.991812    0.439925
     81          6           0       -5.552657    1.699479   -1.919702
     82          6           0       -4.841231    1.370857    2.858525
     83          6           0       -4.609787   -3.337479    2.464871
     84          6           0       -4.622810   -3.102276   -2.251625
     85          7           0       -5.226165    1.217487    0.356287
     86          6           0       -5.399311    2.132073   -0.585992
     87          6           0       -5.488963    3.589430   -0.059086
     88          6           0       -4.690601    3.395783    1.320763
     89          6           0       -4.960423    1.910531    1.552901
     90          6           0       -3.190263    3.592487    1.180698
     91          6           0       -6.969506    4.043932    0.192820
     92          6           0       -7.152354    5.547479    0.411086
     93          1           0       -8.362809    6.183151   -0.101932
     94          7           0       -5.283542   -1.013533    2.424373
     95          6           0       -5.110041    0.040588    3.248990
     96          6           0       -5.167462   -0.503250    4.614683
     97          6           0       -5.224236   -1.987737    4.526443
     98          6           0       -5.015853   -2.175444    3.104678
     99          6           0       -5.244934    0.367811    5.834803
    100          6           0       -5.419370   -3.061369    5.553784
    101          8           0       -5.196169   -4.295396    5.288839
    102          6           0       -5.789284   -2.616126    6.905228
    103          7           0       -4.494518   -2.893953    0.177450
    104          6           0       -4.350027   -3.732672    1.218409
    105          6           0       -4.019631   -5.130148    0.751188
    106          6           0       -4.211162   -5.108891   -0.836402
    107          6           0       -4.547424   -3.614050   -1.030735
    108          6           0       -2.614526   -5.629181    1.087388
    109          6           0       -5.171914   -6.167631   -1.443600
    110          6           0       -6.592839   -5.881894   -1.013815
    111          7           0       -5.294398   -0.814947   -1.713391
    112          6           0       -4.958224   -1.815141   -2.651837
    113          6           0       -4.997681   -1.188426   -3.989038
    114          6           0       -5.334263    0.149118   -3.731793
    115          6           0       -5.473561    0.347093   -2.331473
    116          6           0       -4.695427   -1.835557   -5.220293
    117          6           0       -5.592986    1.441052   -4.325656
    118          8           0       -5.704284    1.861485   -5.476560
    119          6           0       -5.621908    2.531832   -3.169914
    120          6           0       -6.839501    3.391371   -3.372809
    121          8           0       -7.979986    2.909146   -3.257183
    122          8           0       -6.460689    4.679870   -3.454231
    123          6           0       -7.634774    5.572670   -3.644634
    124          1           0       -4.465923    2.015232    3.654008
    125          1           0       -4.469193   -4.207038    3.111080
    126          1           0       -4.522384   -3.716245   -3.149191
    127          1           0       -4.990726    4.327175   -0.676552
    128          1           0       -5.128246    3.991880    2.117321
    129          1           0       -2.894441    3.714230    0.149284
    130          1           0       -2.736612    2.705023    1.602178
    131          1           0       -2.859348    4.426321    1.806440
    132          1           0       -7.296977    3.670777    1.171732
    133          1           0       -7.609893    3.713628   -0.601811
    134          1           0       -6.263654    6.118050    0.115085
    135          1           0       -7.245351    5.733632    1.483804
    136          1           0       -5.017437    1.414293    5.597058
    137          1           0       -4.432596    0.057856    6.501061
    138          1           0       -6.194527    0.267021    6.364683
    139          1           0       -5.023728   -1.944467    7.286353
    140          1           0       -5.971347   -3.529829    7.474332
    141          1           0       -6.715113   -2.033670    6.840518
    142          1           0       -4.704331   -5.852644    1.178120
    143          1           0       -3.262763   -5.288780   -1.363674
    144          1           0       -2.613162   -6.570018    1.669543
    145          1           0       -2.094631   -4.848019    1.625939
    146          1           0       -1.964144   -5.790484    0.229375
    147          1           0       -4.927136   -7.162845   -1.064395
    148          1           0       -5.131593   -6.216776   -2.526635
    149          1           0       -6.649103   -6.344823   -0.024061
    150          1           0       -7.300596   -6.337455   -1.703438
    151          1           0       -6.755908   -4.805685   -0.884108
    152          1           0       -5.449798   -1.522648   -5.929875
    153          1           0       -4.679258   -2.917560   -5.107271
    154          1           0       -3.699755   -1.428300   -5.415388
    155          1           0       -4.698161    3.107518   -3.239588
    156          1           0       -7.446596    6.159459   -4.549042
    157          1           0       -7.742801    6.130656   -2.695564
    158          1           0       -8.583389    5.108295   -3.887381
 ---------------------------------------------------------------------

 SCF Done:  E(RCAM-B3LYP) =  -4069.81208517     A.U. after   19 cycles

 Excitation energies and oscillator strengths:

 Excited State   1:      Singlet-A      1.6699 eV  742.46 nm  f=0.2583  <S**2>=0.000
     310 -> 316       -0.14710
     311 -> 313        0.35907
     312 -> 314        0.58486
 This state for optimization and/or second-order correction.
 Total Energy, E(TD-HF/TD-DFT) =  -4069.75071689
 Copying the excited state density for this state as the 1-particle RhoCI density.

 Excited State   2:      Singlet-A      1.6809 eV  737.62 nm  f=0.4445  <S**2>=0.000
     309 -> 315       -0.14950
     311 -> 313        0.58409
     312 -> 314       -0.35860

 Excited State   3:      Singlet-A      2.1842 eV  567.64 nm  f=0.0882  <S**2>=0.000
     309 -> 313        0.15567
     310 -> 314        0.62396
     312 -> 316        0.26351

 Excited State   4:      Singlet-A      2.1923 eV  565.54 nm  f=0.1083  <S**2>=0.000
     309 -> 313        0.62154
     310 -> 314       -0.15461
     311 -> 315        0.26967

 Excited State   5:      Singlet-A      2.4845 eV  499.03 nm  f=0.0000  <S**2>=0.000
     312 -> 313        0.70709

 The electronic state is 1-A.
 Alpha  occ. eigenvalues --  -46.87886 -46.87499 -19.26360 -19.26312 -19.19106
 Alpha  occ. eigenvalues --  -19.19103 -19.18950 -19.18579 -19.18254 -19.17955
 Alpha  occ. eigenvalues --  -14.42531 -14.42342 -14.41543 -14.41178 -14.39495
 Alpha  occ. eigenvalues --  -14.39196 -14.38674 -14.38446 -10.39164 -10.39030
 Alpha  occ. eigenvalues --  -10.35584 -10.35258 -10.34473 -10.34134 -10.31750
 Alpha  occ. eigenvalues --  -10.31740 -10.31477 -10.31165 -10.30989 -10.30882
 Alpha  occ. eigenvalues --  -10.30651 -10.30604 -10.30307 -10.30241 -10.30215
 Alpha  occ. eigenvalues --  -10.30019 -10.29943 -10.29723 -10.29704 -10.29346
 Alpha  occ. eigenvalues --  -10.29273 -10.29258 -10.28799 -10.28611 -10.28589
 Alpha  occ. eigenvalues --  -10.28544 -10.28453 -10.28262 -10.28165 -10.28011
 Alpha  occ. eigenvalues --  -10.27880 -10.27860 -10.27805 -10.27680 -10.27616
 Alpha  occ. eigenvalues --  -10.27571 -10.27553 -10.27512 -10.27489 -10.27343
 Alpha  occ. eigenvalues --  -10.27338 -10.27324 -10.27248 -10.27238 -10.27099
 Alpha  occ. eigenvalues --  -10.26964 -10.26736 -10.26603 -10.26557 -10.26315
 Alpha  occ. eigenvalues --  -10.26305 -10.26279 -10.26110 -10.25914 -10.25905
 Alpha  occ. eigenvalues --  -10.25884 -10.25753 -10.25726 -10.25551 -10.25003
 Alpha  occ. eigenvalues --  -10.24919 -10.24887 -10.24842 -10.24736 -10.24534
 Alpha  occ. eigenvalues --  -10.24516  -3.16629  -3.16248  -1.91510  -1.91130
 Alpha  occ. eigenvalues --   -1.91097  -1.90939  -1.90719  -1.90556  -1.16710
 Alpha  occ. eigenvalues --   -1.16601  -1.08711  -1.08570  -1.07355  -1.06889
 Alpha  occ. eigenvalues --   -1.06831  -1.06727  -1.04662  -1.04346  -1.03852
 Alpha  occ. eigenvalues --   -1.03502  -1.03325  -1.02867  -1.02502  -1.01947
 Alpha  occ. eigenvalues --   -0.92056  -0.91853  -0.89626  -0.89305  -0.89241
 Alpha  occ. eigenvalues --   -0.89023  -0.88395  -0.87998  -0.87951  -0.87750
 Alpha  occ. eigenvalues --   -0.87655  -0.87525  -0.87373  -0.86985  -0.85047
 Alpha  occ. eigenvalues --   -0.84868  -0.84050  -0.83660  -0.83086  -0.82780
 Alpha  occ. eigenvalues --   -0.82728  -0.82521  -0.81666  -0.81494  -0.80683
 Alpha  occ. eigenvalues --   -0.80319  -0.78887  -0.78496  -0.77304  -0.77005
 Alpha  occ. eigenvalues --   -0.77003  -0.76752  -0.75994  -0.75718  -0.74998
 Alpha  occ. eigenvalues --   -0.74576  -0.72861  -0.72544  -0.71757  -0.71405
 Alpha  occ. eigenvalues --   -0.70026  -0.69535  -0.68946  -0.68697  -0.67734
 Alpha  occ. eigenvalues --   -0.67455  -0.67285  -0.67086  -0.65353  -0.65150
 Alpha  occ. eigenvalues --   -0.64941  -0.64706  -0.64624  -0.64519  -0.64372
 Alpha  occ. eigenvalues --   -0.64004  -0.62382  -0.62171  -0.60544  -0.60181
 Alpha  occ. eigenvalues --   -0.59870  -0.59666  -0.59076  -0.58833  -0.58593
 Alpha  occ. eigenvalues --   -0.58278  -0.57668  -0.57458  -0.57408  -0.57069
 Alpha  occ. eigenvalues --   -0.56395  -0.56072  -0.56054  -0.55793  -0.55616
 Alpha  occ. eigenvalues --   -0.55441  -0.55339  -0.55073  -0.54621  -0.54321
 Alpha  occ. eigenvalues --   -0.53952  -0.53788  -0.53397  -0.53303  -0.53080
 Alpha  occ. eigenvalues --   -0.53017  -0.53004  -0.52847  -0.52781  -0.52561
 Alpha  occ. eigenvalues --   -0.52546  -0.52198  -0.51994  -0.51755  -0.51686
 Alpha  occ. eigenvalues --   -0.51545  -0.51282  -0.51067  -0.50678  -0.50338
 Alpha  occ. eigenvalues --   -0.50138  -0.50016  -0.49841  -0.49647  -0.49597
 Alpha  occ. eigenvalues --   -0.49360  -0.49300  -0.49160  -0.49083  -0.48981
 Alpha  occ. eigenvalues --   -0.48672  -0.48572  -0.48545  -0.48441  -0.48219
 Alpha  occ. eigenvalues --   -0.48153  -0.47781  -0.47451  -0.47387  -0.46953
 Alpha  occ. eigenvalues --   -0.46884  -0.46617  -0.46549  -0.46450  -0.46417
 Alpha  occ. eigenvalues --   -0.46253  -0.46114  -0.45909  -0.45897  -0.45700
 Alpha  occ. eigenvalues --   -0.45306  -0.44976  -0.44661  -0.44601  -0.44391
 Alpha  occ. eigenvalues --   -0.44338  -0.44246  -0.44155  -0.44107  -0.44001
 Alpha  occ. eigenvalues --   -0.43912  -0.43822  -0.43578  -0.43466  -0.43445
 Alpha  occ. eigenvalues --   -0.43235  -0.43113  -0.42846  -0.42799  -0.42753
 Alpha  occ. eigenvalues --   -0.42747  -0.42358  -0.42106  -0.41800  -0.41792
 Alpha  occ. eigenvalues --   -0.41598  -0.41528  -0.41317  -0.41223  -0.40955
 Alpha  occ. eigenvalues --   -0.40930  -0.40826  -0.40669  -0.40595  -0.40559
 Alpha  occ. eigenvalues --   -0.40284  -0.40280  -0.40124  -0.39566  -0.39206
 Alpha  occ. eigenvalues --   -0.38569  -0.38134  -0.37803  -0.37537  -0.37418
 Alpha  occ. eigenvalues --   -0.37328  -0.37091  -0.37052  -0.36802  -0.36681
 Alpha  occ. eigenvalues --   -0.36282  -0.36041  -0.34373  -0.34098  -0.33858
 Alpha  occ. eigenvalues --   -0.33785  -0.33276  -0.33017  -0.31479  -0.31135
 Alpha  occ. eigenvalues --   -0.31126  -0.30817  -0.30112  -0.29862  -0.29546
 Alpha  occ. eigenvalues --   -0.29409  -0.29186  -0.29073  -0.24168  -0.23876
 Alpha  occ. eigenvalues --   -0.21216  -0.20957
 Alpha virt. eigenvalues --   -0.08865  -0.08642  -0.01845  -0.01515  -0.00159
 Alpha virt. eigenvalues --    0.00105   0.02109   0.02340   0.03015   0.03379
 Alpha virt. eigenvalues --    0.04648   0.04879   0.05016   0.05232   0.06134

 Mulliken charges:
               1
     1  Mg   0.838736
     2  C   -0.002963
     3  C   -0.093547
     4  C   -0.046395
     5  C   -0.063930
     6  N   -0.256814
     7  C   -0.052212
     8  C   -0.014094
     9  C   -0.087058
    10  C    0.046295
    11  C    0.104735
    12  C    0.053283
    13  C   -0.072104
    14  H    0.036470
    15  N   -0.433092
    16  C    0.168261
    17  C   -0.176940
    18  C   -0.004396
    19  C    0.148579
    20  C    0.110023
    21  C    0.011471
    22  O   -0.250519
    23  C    0.062714
    24  N   -0.341116
    25  C    0.041291
    26  C   -0.028045
    27  C   -0.023964
    28  C    0.074750
    29  C    0.076187
    30  C    0.035206
    31  C   -0.004463
    32  N   -0.310515
    33  C    0.080485
    34  C   -0.169552
    35  C    0.008370
    36  C    0.083004
    37  C    0.127317
    38  C    0.046041
    39  O   -0.188315
    40  C   -0.005297
    41  C    0.212996
    42  O   -0.257593
    43  O   -0.304592
    44  C    0.157825
    45  H   -0.017200
    46  H   -0.017389
    47  H   -0.041348
    48  H    0.001056
    49  H   -0.003453
    50  H    0.025478
    51  H    0.016342
    52  H    0.017027
    53  H    0.011744
    54  H    0.043788
    55  H    0.017852
    56  H    0.018727
    57  H    0.006506
    58  H    0.026865
    59  H    0.039773
    60  H    0.038038
    61  H    0.034770
    62  H    0.031167
    63  H    0.015597
    64  H    0.009700
    65  H    0.022828
    66  H    0.012807
    67  H    0.004973
    68  H    0.005922
    69  H    0.005320
    70  H    0.007172
    71  H    0.018451
    72  H    0.029423
    73  H    0.047717
    74  H    0.009295
    75  H    0.046159
    76  H    0.035419
    77  H    0.043074
    78  H    0.046848
    79  H    0.053026
    80  Mg   0.838133
    81  C   -0.017226
    82  C   -0.088124
    83  C   -0.045340
    84  C   -0.063282
    85  N   -0.254628
    86  C   -0.049974
    87  C   -0.015056
    88  C   -0.090417
    89  C    0.045759
    90  C    0.114315
    91  C    0.062578
    92  C   -0.077624
    93  H    0.034300
    94  N   -0.423546
    95  C    0.163116
    96  C   -0.174752
    97  C   -0.007821
    98  C    0.152288
    99  C    0.099462
   100  C    0.015356
   101  O   -0.252911
   102  C    0.061297
   103  N   -0.350000
   104  C    0.038377
   105  C   -0.020504
   106  C   -0.034941
   107  C    0.089044
   108  C    0.072422
   109  C    0.034587
   110  C   -0.007552
   111  N   -0.324033
   112  C    0.078297
   113  C   -0.163025
   114  C    0.001717
   115  C    0.096376
   116  C    0.131657
   117  C    0.041886
   118  O   -0.189187
   119  C    0.001115
   120  C    0.211168
   121  O   -0.250951
   122  O   -0.305969
   123  C    0.152130
   124  H   -0.019488
   125  H   -0.015178
   126  H   -0.040072
   127  H   -0.001650
   128  H   -0.004428
   129  H    0.021049
   130  H    0.015228
   131  H    0.017345
   132  H    0.014015
   133  H    0.037478
   134  H    0.020334
   135  H    0.019740
   136  H    0.008845
   137  H    0.025762
   138  H    0.039459
   139  H    0.037894
   140  H    0.036167
   141  H    0.033738
   142  H    0.013803
   143  H    0.015174
   144  H    0.024730
   145  H    0.012514
   146  H    0.010360
   147  H    0.006747
   148  H    0.003396
   149  H    0.010803
   150  H    0.017297
   151  H    0.029583
   152  H    0.045250
   153  H    0.008801
   154  H    0.046698
   155  H    0.033803
   156  H    0.043203
   157  H    0.049503
   158  H    0.053578
 Sum of Mulliken charges =  -0.00000

 Dipole moment (field-independent basis, Debye):
    X=              3.2711    Y=              5.1534    Z=              1.3369  Tot=              6.2486
 Quadrupole moment (field-independent basis, Debye-Ang):
   XX=           -521.0384   YY=           -512.2275   ZZ=           -486.0068
   XY=              9.4619   XZ=            -39.5982   YZ=             10.4255

 Normal termination of Gaussian 16 at Sat Sep  4 03:49:58 2021.
