 Gaussian 16, Revision A.03,
 Gaussian 16:  ES64L-G16RevA.03 25-Dec-2016

 -----------------------------------
 #p cam-b3lyp/Def2SVP td=(nstates=5)
 -----------------------------------

 --------------------------------
 TDDFT excited states in gaussian
 --------------------------------
 Symbolic Z-matrix:
 Charge =  0 Multiplicity = 1

                         Standard orientation:
 ---------------------------------------------------------------------
 Center     Atomic      Atomic             Coordinates (Angstroms)
 Number     Number       Type             X           Y           Z
 ---------------------------------------------------------------------
      1         12           0       -3.532880    1.305730    0.115159
      2          6           0       -4.311919   -1.658699   -1.733481
      3          6           0       -4.642091   -0.320065    2.902542
      4          6           0       -3.281326    4.050423    1.683599
      5          6           0       -3.567292    3.026885   -2.915040
      6          7           0       -4.347937   -0.730010    0.418621
      7          6           0       -4.539160   -1.789169   -0.361627
      8          6           0       -4.931822   -3.074397    0.426649
      9          6           0       -5.543015   -2.392359    1.731741
     10          6           0       -4.773861   -1.083319    1.704580
     11          6           0       -7.033534   -2.088688    1.619322
     12          6           0       -3.689497   -3.962446    0.772665
     13          6           0       -4.013025   -5.381650    1.248632
     14          1           0       -3.122862   -6.467933    0.867914
     15          7           0       -3.440242    1.669116    2.054803
     16          6           0       -3.929461    0.889716    3.049029
     17          6           0       -3.611111    1.591440    4.311137
     18          6           0       -3.065827    2.932431    3.961134
     19          6           0       -3.267691    2.947992    2.534815
     20          6           0       -3.783861    0.971190    5.663615
     21          6           0       -2.468715    4.030500    4.783225
     22          8           0       -2.272434    5.202870    4.312485
     23          6           0       -2.197865    3.718787    6.198329
     24          7           0       -3.653265    3.301106   -0.486189
     25          6           0       -3.448995    4.297207    0.382742
     26          6           0       -3.304838    5.614260   -0.320487
     27          6           0       -3.210650    5.275719   -1.878136
     28          6           0       -3.410431    3.742074   -1.798811
     29          6           0       -4.435262    6.625662   -0.085503
     30          6           0       -1.978198    5.820402   -2.642858
     31          6           0       -0.724732    5.129285   -2.154719
     32          7           0       -3.698925    0.778865   -1.983862
     33          6           0       -3.712324    1.659015   -3.075571
     34          6           0       -3.952054    0.846646   -4.282491
     35          6           0       -4.078790   -0.456007   -3.804081
     36          6           0       -3.953944   -0.453790   -2.385384
     37          6           0       -4.084807    1.343945   -5.608954
     38          6           0       -4.315183   -1.845980   -4.158977
     39          8           0       -4.401942   -2.467636   -5.218934
     40          6           0       -4.596994   -2.663571   -2.821833
     41          6           0       -3.756085   -3.910272   -2.865616
     42          8           0       -2.511132   -3.844494   -2.809661
     43          8           0       -4.547197   -4.985201   -2.727012
     44          6           0       -3.771978   -6.254516   -2.732320
     45          1           0       -5.180031   -0.643008    3.796001
     46          1           0       -3.086756    5.006749    2.173518
     47          1           0       -3.506813    3.483670   -3.904556
     48          1           0       -5.687255   -3.692398   -0.058964
     49          1           0       -5.303522   -2.953924    2.634520
     50          1           0       -7.402819   -2.273569    0.610675
     51          1           0       -7.135727   -1.033791    1.874747
     52          1           0       -7.598370   -2.635914    2.374492
     53          1           0       -3.206790   -3.571849    1.668483
     54          1           0       -3.004011   -4.013618   -0.073985
     55          1           0       -5.049791   -5.645905    1.038409
     56          1           0       -3.943677   -5.401238    2.336293
     57          1           0       -4.356940    0.046400    5.609864
     58          1           0       -4.411191    1.646052    6.245619
     59          1           0       -2.831064    0.824366    6.172489
     60          1           0       -3.127914    3.427913    6.687154
     61          1           0       -1.690140    4.591878    6.606714
     62          1           0       -1.540300    2.850463    6.249014
     63          1           0       -2.394433    6.125556   -0.010384
     64          1           0       -4.062892    5.667265   -2.434059
     65          1           0       -4.092731    7.579792    0.315762
     66          1           0       -5.168457    6.164102    0.575313
     67          1           0       -5.042401    6.844740   -0.963457
     68          1           0       -1.852877    6.885411   -2.450511
     69          1           0       -2.046669    5.684128   -3.722206
     70          1           0       -0.461864    5.701339   -1.265626
     71          1           0        0.062303    5.193110   -2.906859
     72          1           0       -0.932025    4.107736   -1.835418
     73          1           0       -3.510665    0.671117   -6.245848
     74          1           0       -3.721534    2.368498   -5.685937
     75          1           0       -5.163858    1.272213   -5.744452
     76          1           0       -5.662931   -2.888923   -2.810966
     77          1           0       -4.187742   -6.881248   -3.521358
     78          1           0       -3.800428   -6.639250   -1.712724
     79          1           0       -2.732052   -6.182879   -3.052884
     80         12           0        4.281134   -0.092820   -0.084813
     81          6           0        1.463485   -2.071973    0.926585
     82          6           0        6.272695   -2.623843    1.038651
     83          6           0        6.782578    1.803644   -0.547012
     84          6           0        2.167452    2.678003   -0.060224
     85          7           0        3.811084   -2.045348    0.841976
     86          6           0        2.703319   -2.715941    1.120376
     87          6           0        2.934985   -4.186623    1.559688
     88          6           0        4.441281   -4.042527    2.097428
     89          6           0        4.889797   -2.852219    1.252046
     90          6           0        4.522042   -3.645568    3.562093
     91          6           0        2.848022   -5.190493    0.356903
     92          6           0        2.756586   -6.665154    0.755359
     93          1           0        1.940985   -7.558041   -0.063187
     94          7           0        6.209367   -0.529546   -0.257250
     95          6           0        6.846736   -1.609807    0.240822
     96          6           0        8.258933   -1.455403   -0.141346
     97          6           0        8.432652   -0.114659   -0.763383
     98          6           0        7.123936    0.459241   -0.522548
     99          6           0        9.270518   -2.552533    0.021170
    100          6           0        9.589751    0.546824   -1.448784
    101          8           0        9.593944    1.803418   -1.701328
    102          6           0       10.756553   -0.301782   -1.731492
    103          7           0        4.505096    1.974067   -0.071232
    104          6           0        5.689931    2.542929   -0.354915
    105          6           0        5.545716    4.032711   -0.555275
    106          6           0        3.971287    4.311699   -0.585606
    107          6           0        3.455829    2.884957   -0.295613
    108          6           0        6.197940    4.913451    0.510216
    109          6           0        3.413149    5.061314   -1.826266
    110          6           0        3.539137    4.190251   -3.055397
    111          7           0        2.162042    0.244735    0.167313
    112          6           0        1.490247    1.486818    0.167509
    113          6           0        0.074378    1.215956    0.490606
    114          6           0        0.024938   -0.173342    0.680114
    115          6           0        1.322623   -0.726572    0.508484
    116          6           0       -0.950770    2.194642    0.622344
    117          6           0       -0.827899   -1.296318    0.996764
    118          8           0       -2.037958   -1.449951    1.157637
    119          6           0        0.089688   -2.559477    1.294863
    120          6           0       -0.467134   -3.728923    0.530092
    121          8           0       -0.459417   -3.732280   -0.713513
    122          8           0       -0.715659   -4.737003    1.385878
    123          6           0       -1.259083   -5.923645    0.672879
    124          1           0        6.989928   -3.254339    1.564907
    125          1           0        7.589816    2.490321   -0.812186
    126          1           0        1.425735    3.476585   -0.129506
    127          1           0        2.286800   -4.530022    2.356999
    128          1           0        5.031707   -4.923445    1.859198
    129          1           0        3.550253   -3.409918    3.969820
    130          1           0        5.167361   -2.777563    3.596473
    131          1           0        5.033032   -4.423938    4.135987
    132          1           0        3.809133   -5.198333   -0.173142
    133          1           0        2.030215   -4.939685   -0.290328
    134          1           0        2.515790   -6.790836    1.817983
    135          1           0        3.746738   -7.115148    0.649878
    136          1           0        8.888896   -3.360524    0.657507
    137          1           0       10.108747   -2.133190    0.588084
    138          1           0        9.642673   -2.927312   -0.934717
    139          1           0       11.132892   -0.719991   -0.800934
    140          1           0       11.442853    0.326014   -2.303109
    141          1           0       10.432823   -1.147495   -2.348401
    142          1           0        5.975180    4.339059   -1.501228
    143          1           0        3.652281    4.938951    0.259754
    144          1           0        6.932623    5.629019    0.095150
    145          1           0        6.665737    4.271126    1.244473
    146          1           0        5.505002    5.492751    1.118039
    147          1           0        4.001917    5.960927   -2.021719
    148          1           0        2.379356    5.370912   -1.714892
    149          1           0        4.572583    4.358994   -3.372565
    150          1           0        2.834443    4.505543   -3.822231
    151          1           0        3.442571    3.129231   -2.797416
    152          1           0       -1.821773    1.803606    0.113479
    153          1           0       -0.642637    3.151633    0.206426
    154          1           0       -1.046261    2.231767    1.710817
    155          1           0        0.073155   -2.729505    2.372080
    156          1           0       -2.210087   -6.176348    1.151852
    157          1           0       -0.458595   -6.686322    0.708950
    158          1           0       -1.569630   -5.790854   -0.356865
 ---------------------------------------------------------------------

 SCF Done:  E(RCAM-B3LYP) =  -4069.73052291     A.U. after   19 cycles

 Excitation energies and oscillator strengths:

 Excited State   1:      Singlet-A      1.6461 eV  753.20 nm  f=0.4447  <S**2>=0.000
     309 -> 315        0.15210
     311 -> 313        0.62865
     312 -> 314        0.27426
 This state for optimization and/or second-order correction.
 Total Energy, E(TD-HF/TD-DFT) =  -4069.67003004
 Copying the excited state density for this state as the 1-particle RhoCI density.

 Excited State   2:      Singlet-A      1.6713 eV  741.84 nm  f=0.3658  <S**2>=0.000
     310 -> 316        0.13923
     311 -> 313       -0.25976
     312 -> 313        0.17412
     312 -> 314        0.60931

 Excited State   3:      Singlet-A      1.7204 eV  720.68 nm  f=0.0171  <S**2>=0.000
     312 -> 313        0.67799
     312 -> 314       -0.14592

 Excited State   4:      Singlet-A      2.1030 eV  589.55 nm  f=0.0293  <S**2>=0.000
     309 -> 313       -0.21695
     310 -> 313        0.12657
     310 -> 314        0.60661
     312 -> 316       -0.19354
     312 -> 317        0.10037

 Excited State   5:      Singlet-A      2.1714 eV  570.98 nm  f=0.1347  <S**2>=0.000
     309 -> 313        0.60667
     310 -> 314        0.21470
     311 -> 315       -0.24632

 The electronic state is 1-A.
 Alpha  occ. eigenvalues --  -46.88013 -46.86046 -19.26632 -19.25355 -19.19326
 Alpha  occ. eigenvalues --  -19.19136 -19.19063 -19.17990 -19.17772 -19.17120
 Alpha  occ. eigenvalues --  -14.42833 -14.41690 -14.40496 -14.39940 -14.39737
 Alpha  occ. eigenvalues --  -14.39025 -14.37576 -14.37229 -10.39049 -10.37792
 Alpha  occ. eigenvalues --  -10.35730 -10.35228 -10.34645 -10.33313 -10.31752
 Alpha  occ. eigenvalues --  -10.31323 -10.31258 -10.30859 -10.30852 -10.30498
 Alpha  occ. eigenvalues --  -10.30362 -10.30295 -10.29885 -10.29858 -10.29682
 Alpha  occ. eigenvalues --  -10.29326 -10.29143 -10.29140 -10.29137 -10.28967
 Alpha  occ. eigenvalues --  -10.28847 -10.28745 -10.28742 -10.28580 -10.28444
 Alpha  occ. eigenvalues --  -10.28442 -10.28101 -10.28044 -10.27917 -10.27843
 Alpha  occ. eigenvalues --  -10.27805 -10.27637 -10.27624 -10.27568 -10.27529
 Alpha  occ. eigenvalues --  -10.27363 -10.27070 -10.26864 -10.26793 -10.26781
 Alpha  occ. eigenvalues --  -10.26681 -10.26677 -10.26651 -10.26629 -10.26575
 Alpha  occ. eigenvalues --  -10.26463 -10.26350 -10.26240 -10.26205 -10.26136
 Alpha  occ. eigenvalues --  -10.26087 -10.25998 -10.25973 -10.25798 -10.25555
 Alpha  occ. eigenvalues --  -10.25551 -10.25087 -10.25070 -10.25023 -10.24966
 Alpha  occ. eigenvalues --  -10.24923 -10.24858 -10.24807 -10.24794 -10.23706
 Alpha  occ. eigenvalues --  -10.23555  -3.16759  -3.14955  -1.91640  -1.91229
 Alpha  occ. eigenvalues --   -1.91070  -1.89912  -1.89392  -1.89236  -1.16816
 Alpha  occ. eigenvalues --   -1.15656  -1.10088  -1.07577  -1.07305  -1.06985
 Alpha  occ. eigenvalues --   -1.06424  -1.05428  -1.04862  -1.04042  -1.03422
 Alpha  occ. eigenvalues --   -1.03020  -1.02526  -1.02323  -1.01915  -1.01070
 Alpha  occ. eigenvalues --   -0.92450  -0.90721  -0.89795  -0.89461  -0.88969
 Alpha  occ. eigenvalues --   -0.88684  -0.88445  -0.88009  -0.87798  -0.87511
 Alpha  occ. eigenvalues --   -0.87397  -0.86788  -0.86397  -0.86208  -0.85316
 Alpha  occ. eigenvalues --   -0.84275  -0.83955  -0.83339  -0.83222  -0.82968
 Alpha  occ. eigenvalues --   -0.82300  -0.82142  -0.81652  -0.81007  -0.80502
 Alpha  occ. eigenvalues --   -0.79498  -0.79217  -0.77743  -0.77567  -0.77534
 Alpha  occ. eigenvalues --   -0.76521  -0.76361  -0.75686  -0.75157  -0.74798
 Alpha  occ. eigenvalues --   -0.74047  -0.73298  -0.72015  -0.71642  -0.70538
 Alpha  occ. eigenvalues --   -0.69943  -0.69402  -0.69244  -0.68120  -0.67830
 Alpha  occ. eigenvalues --   -0.67490  -0.66572  -0.66358  -0.65623  -0.65268
 Alpha  occ. eigenvalues --   -0.65049  -0.64496  -0.64170  -0.63712  -0.63668
 Alpha  occ. eigenvalues --   -0.63164  -0.62725  -0.61312  -0.60745  -0.60292
 Alpha  occ. eigenvalues --   -0.59813  -0.59471  -0.59125  -0.58654  -0.58437
 Alpha  occ. eigenvalues --   -0.58000  -0.57614  -0.57375  -0.57289  -0.56827
 Alpha  occ. eigenvalues --   -0.56458  -0.56332  -0.56048  -0.55802  -0.55269
 Alpha  occ. eigenvalues --   -0.55142  -0.55097  -0.54689  -0.54626  -0.54291
 Alpha  occ. eigenvalues --   -0.54180  -0.53893  -0.53682  -0.53432  -0.53151
 Alpha  occ. eigenvalues --   -0.53120  -0.52934  -0.52585  -0.52358  -0.52229
 Alpha  occ. eigenvalues --   -0.52132  -0.51961  -0.51885  -0.51764  -0.51591
 Alpha  occ. eigenvalues --   -0.50932  -0.50842  -0.50740  -0.50440  -0.50271
 Alpha  occ. eigenvalues --   -0.50204  -0.50068  -0.49783  -0.49781  -0.49667
 Alpha  occ. eigenvalues --   -0.49351  -0.49301  -0.49118  -0.48846  -0.48628
 Alpha  occ. eigenvalues --   -0.48264  -0.48120  -0.48049  -0.47914  -0.47769
 Alpha  occ. eigenvalues --   -0.47693  -0.47556  -0.47444  -0.47287  -0.47037
 Alpha  occ. eigenvalues --   -0.46906  -0.46823  -0.46695  -0.46421  -0.46225
 Alpha  occ. eigenvalues --   -0.45911  -0.45581  -0.45487  -0.45427  -0.45194
 Alpha  occ. eigenvalues --   -0.45101  -0.44791  -0.44712  -0.44600  -0.44371
 Alpha  occ. eigenvalues --   -0.44315  -0.44166  -0.43881  -0.43722  -0.43586
 Alpha  occ. eigenvalues --   -0.43489  -0.43419  -0.43245  -0.43147  -0.43004
 Alpha  occ. eigenvalues --   -0.42824  -0.42550  -0.42468  -0.42362  -0.42161
 Alpha  occ. eigenvalues --   -0.42128  -0.42013  -0.41736  -0.41674  -0.41617
 Alpha  occ. eigenvalues --   -0.41347  -0.41060  -0.41002  -0.40900  -0.40751
 Alpha  occ. eigenvalues --   -0.40420  -0.40403  -0.40198  -0.39912  -0.39731
 Alpha  occ. eigenvalues --   -0.39593  -0.39545  -0.39170  -0.39027  -0.38517
 Alpha  occ. eigenvalues --   -0.38355  -0.37907  -0.37618  -0.37495  -0.37425
 Alpha  occ. eigenvalues --   -0.37001  -0.36540  -0.36182  -0.35922  -0.35624
 Alpha  occ. eigenvalues --   -0.35155  -0.34613  -0.33877  -0.33504  -0.33054
 Alpha  occ. eigenvalues --   -0.32540  -0.32423  -0.31924  -0.31595  -0.31294
 Alpha  occ. eigenvalues --   -0.31014  -0.30505  -0.30087  -0.29695  -0.29466
 Alpha  occ. eigenvalues --   -0.28954  -0.28215  -0.28126  -0.24390  -0.22471
 Alpha  occ. eigenvalues --   -0.21513  -0.19864
 Alpha virt. eigenvalues --   -0.09259  -0.07493  -0.02028  -0.00714  -0.00433
 Alpha virt. eigenvalues --    0.01052   0.01583   0.03054   0.03266   0.04432
 Alpha virt. eigenvalues --    0.04640   0.05734   0.05981   0.06429   0.06486

 Mulliken charges:
               1
     1  Mg   0.570811
     2  C    0.008926
     3  C   -0.093297
     4  C   -0.045614
     5  C   -0.066578
     6  N   -0.221863
     7  C   -0.047157
     8  C    0.020050
     9  C   -0.091689
    10  C    0.077118
    11  C    0.107921
    12  C    0.002073
    13  C   -0.087177
    14  H    0.046593
    15  N   -0.412304
    16  C    0.179591
    17  C   -0.181295
    18  C   -0.010055
    19  C    0.122402
    20  C    0.112650
    21  C    0.005921
    22  O   -0.254422
    23  C    0.064903
    24  N   -0.313670
    25  C    0.037369
    26  C   -0.025342
    27  C   -0.024225
    28  C    0.075670
    29  C    0.078547
    30  C    0.047357
    31  C   -0.034290
    32  N   -0.298539
    33  C    0.083441
    34  C   -0.174002
    35  C    0.008710
    36  C    0.082991
    37  C    0.128052
    38  C    0.046521
    39  O   -0.192363
    40  C   -0.010300
    41  C    0.205210
    42  O   -0.236210
    43  O   -0.307136
    44  C    0.155449
    45  H   -0.026189
    46  H   -0.024828
    47  H   -0.048437
    48  H   -0.009072
    49  H   -0.009636
    50  H    0.022649
    51  H    0.015875
    52  H    0.010924
    53  H    0.028282
    54  H    0.061505
    55  H    0.002787
    56  H    0.013357
    57  H    0.005031
    58  H    0.023035
    59  H    0.034015
    60  H    0.037111
    61  H    0.031719
    62  H    0.028374
    63  H    0.008125
    64  H    0.008245
    65  H    0.019671
    66  H    0.014233
    67  H    0.002847
    68  H    0.003883
    69  H    0.003413
    70  H    0.014083
    71  H    0.023367
    72  H    0.035951
    73  H    0.045146
    74  H    0.006027
    75  H    0.043739
    76  H    0.031754
    77  H    0.041040
    78  H    0.040325
    79  H    0.059334
    80  Mg   0.844018
    81  C   -0.021569
    82  C   -0.087798
    83  C   -0.045030
    84  C   -0.065213
    85  N   -0.255350
    86  C   -0.052558
    87  C   -0.015465
    88  C   -0.090751
    89  C    0.047975
    90  C    0.114350
    91  C    0.062422
    92  C   -0.077116
    93  H    0.036558
    94  N   -0.423849
    95  C    0.165345
    96  C   -0.173363
    97  C   -0.006313
    98  C    0.153626
    99  C    0.098960
   100  C    0.016762
   101  O   -0.251302
   102  C    0.060664
   103  N   -0.350111
   104  C    0.039681
   105  C   -0.021013
   106  C   -0.034760
   107  C    0.085935
   108  C    0.073041
   109  C    0.033814
   110  C   -0.008218
   111  N   -0.324310
   112  C    0.080773
   113  C   -0.173469
   114  C    0.008639
   115  C    0.103211
   116  C    0.251376
   117  C    0.070322
   118  O   -0.188860
   119  C    0.034576
   120  C    0.199941
   121  O   -0.218577
   122  O   -0.318662
   123  C    0.168844
   124  H   -0.018604
   125  H   -0.014053
   126  H   -0.037724
   127  H   -0.001531
   128  H   -0.003195
   129  H    0.021808
   130  H    0.014508
   131  H    0.017082
   132  H    0.014036
   133  H    0.042745
   134  H    0.019143
   135  H    0.019100
   136  H    0.009803
   137  H    0.027454
   138  H    0.041680
   139  H    0.038592
   140  H    0.037764
   141  H    0.034817
   142  H    0.015393
   143  H    0.014753
   144  H    0.025839
   145  H    0.011282
   146  H    0.007911
   147  H    0.005372
   148  H    0.003325
   149  H    0.010048
   150  H    0.018661
   151  H    0.030758
   152  H    0.037257
   153  H    0.018101
   154  H    0.100226
   155  H    0.030488
   156  H    0.033215
   157  H    0.038605
   158  H    0.049735
 Sum of Mulliken charges =  -0.00000

 Dipole moment (field-independent basis, Debye):
    X=              4.2554    Y=             -3.5437    Z=              5.7318  Tot=              7.9700
 Quadrupole moment (field-independent basis, Debye-Ang):
   XX=           -494.7433   YY=           -475.1293   ZZ=           -519.6999
   XY=            -24.5773   XZ=             -7.5359   YZ=            -40.3069

 Normal termination of Gaussian 16 at Thu Sep  9 00:38:19 2021.
