 Gaussian 16, Revision A.03,
 Gaussian 16:  ES64L-G16RevA.03 25-Dec-2016

 -----------------------------------
 #p cam-b3lyp/Def2SVP td=(nstates=5)
 -----------------------------------

 --------------------------------
 TDDFT excited states in gaussian
 --------------------------------
 Symbolic Z-matrix:
 Charge =  0 Multiplicity = 1

                         Standard orientation:
 ---------------------------------------------------------------------
 Center     Atomic      Atomic             Coordinates (Angstroms)
 Number     Number       Type             X           Y           Z
 ---------------------------------------------------------------------
      1         12           0        4.186063   -0.232834    0.300117
      2          6           0        4.125702    2.895155   -1.438921
      3          6           0        4.734232    1.539577    3.163880
      4          6           0        4.694966   -2.990716    1.780565
      5          6           0        4.765882   -1.763852   -2.776480
      6          7           0        4.383109    1.938176    0.685518
      7          6           0        4.280313    3.035381   -0.057951
      8          6           0        4.276481    4.350063    0.778094
      9          6           0        5.031298    3.822827    2.079736
     10          6           0        4.666490    2.351339    1.992775
     11          6           0        6.548525    3.958211    2.001023
     12          6           0        2.826661    4.836664    1.114209
     13          6           0        2.724440    6.271350    1.640118
     14          1           0        1.569719    7.073785    1.265863
     15          7           0        4.163556   -0.676899    2.224994
     16          6           0        4.392093    0.173004    3.254908
     17          6           0        4.262274   -0.634964    4.486580
     18          6           0        4.127297   -2.062053    4.082487
     19          6           0        4.352406   -1.968608    2.662638
     20          6           0        4.225845   -0.040109    5.860833
     21          6           0        3.851272   -3.313066    4.855087
     22          8           0        4.005232   -4.475331    4.345175
     23          6           0        3.476094   -3.141845    6.270349
     24          7           0        4.879929   -2.089399   -0.355134
     25          6           0        4.950609   -3.133051    0.478400
     26          6           0        5.200078   -4.410862   -0.266518
     27          6           0        5.043276   -4.057249   -1.815752
     28          6           0        4.797473   -2.533730   -1.686362
     29          6           0        6.566609   -5.068225   -0.028871
     30          6           0        4.031214   -4.901057   -2.630698
     31          6           0        2.623967   -4.611437   -2.158602
     32          7           0        4.235522    0.394417   -1.777178
     33          6           0        4.519275   -0.406113   -2.893112
     34          6           0        4.541237    0.483631   -4.068672
     35          6           0        4.283445    1.750770   -3.549299
     36          6           0        4.137362    1.662384   -2.135390
     37          6           0        4.835084    0.092244   -5.404675
     38          6           0        4.121838    3.162551   -3.856895
     39          8           0        4.048556    3.820910   -4.895493
     40          6           0        4.134169    3.977980   -2.489141
     41          6           0        2.974657    4.936022   -2.520688
     42          8           0        1.798885    4.518191   -2.502111
     43          8           0        3.424914    6.185376   -2.328535
     44          6           0        2.321212    7.182325   -2.319113
     45          1           0        5.141099    1.969460    4.081268
     46          1           0        4.770866   -3.979908    2.236828
     47          1           0        4.856567   -2.183256   -3.780139
     48          1           0        4.834274    5.173804    0.332288
     49          1           0        4.624943    4.260752    2.991229
     50          1           0        6.869204    4.276211    1.009074
     51          1           0        6.941376    2.967060    2.228575
     52          1           0        6.920078    4.615614    2.787501
     53          1           0        2.457864    4.293425    1.984233
     54          1           0        2.171158    4.721821    0.250234
     55          1           0        3.647188    6.825927    1.467228
     56          1           0        2.631669    6.231461    2.725476
     57          1           0        4.513427    1.010476    5.850234
     58          1           0        5.007872   -0.529961    6.440650
     59          1           0        3.261086   -0.187649    6.346429
     60          1           0        4.275656   -2.617070    6.793666
     61          1           0        3.229709   -4.137084    6.638647
     62          1           0        2.598051   -2.497849    6.327445
     63          1           0        4.466754   -5.169963    0.002605
     64          1           0        5.982081   -4.171042   -2.358312
     65          1           0        6.501741   -6.094060    0.334665
     66          1           0        7.125690   -4.441827    0.665639
     67          1           0        7.227590   -5.074641   -0.895173
     68          1           0        4.210050   -5.964107   -2.472939
     69          1           0        4.078696   -4.712345   -3.703258
     70          1           0        2.517595   -5.266037   -1.294300
     71          1           0        1.901996   -4.868652   -2.934366
     72          1           0        2.526307   -3.585158   -1.804061
     73          1           0        4.105666    0.597187   -6.037882
     74          1           0        4.779458   -0.989806   -5.521622
     75          1           0        5.851648    0.471620   -5.507276
     76          1           0        5.091720    4.495611   -2.441420
     77          1           0        2.556705    7.929063   -3.077507
     78          1           0        2.219727    7.522524   -1.288400
     79          1           0        1.350818    6.830484   -2.671081
     80         12           0       -3.691932   -1.102722   -0.066772
     81          6           0       -6.438356    1.197411    0.146765
     82          6           0       -1.620652    1.606931   -0.113286
     83          6           0       -1.289835   -3.074425   -0.706916
     84          6           0       -5.972073   -3.509703   -1.140607
     85          7           0       -4.096361    1.070379    0.012709
     86          6           0       -5.175348    1.825233    0.155310
     87          6           0       -4.880277    3.329974    0.396689
     88          6           0       -3.422767    3.399797   -0.273869
     89          6           0       -2.997254    1.945057   -0.085806
     90          6           0       -3.459306    3.697990   -1.763522
     91          6           0       -4.828448    3.691628    1.922640
     92          6           0       -4.852388    5.190641    2.229444
     93          1           0       -5.557440    5.645283    3.424720
     94          7           0       -1.733134   -0.843179    0.118523
     95          6           0       -1.062071    0.327551    0.100016
     96          6           0        0.358937   -0.020783    0.253482
     97          6           0        0.487283   -1.502409    0.198653
     98          6           0       -0.867303   -1.871222   -0.160727
     99          6           0        1.424911    1.004481    0.510302
    100          6           0        1.641589   -2.432578    0.419033
    101          8           0        1.583093   -3.668957    0.086203
    102          6           0        2.874649   -1.832993    0.949657
    103          7           0       -3.598935   -2.950478   -1.015198
    104          6           0       -2.436483   -3.618900   -1.114416
    105          6           0       -2.660674   -5.036245   -1.584808
    106          6           0       -4.244435   -5.255355   -1.548995
    107          6           0       -4.686899   -3.835885   -1.130989
    108          6           0       -2.133140   -5.364996   -2.981240
    109          6           0       -4.769176   -6.464956   -0.727911
    110          6           0       -4.511878   -6.239733    0.744656
    111          7           0       -5.839639   -1.232646   -0.263059
    112          6           0       -6.586457   -2.324157   -0.757987
    113          6           0       -8.000134   -1.898043   -0.806755
    114          6           0       -7.974439   -0.569992   -0.354966
    115          6           0       -6.636483   -0.188382   -0.065575
    116          6           0       -9.090721   -2.685402   -1.272365
    117          6           0       -8.773623    0.599270   -0.067158
    118          8           0       -9.979438    0.842274   -0.040575
    119          6           0       -7.799435    1.836221    0.150320
    120          6           0       -8.232811    2.554938    1.398576
    121          8           0       -8.146673    2.001336    2.508855
    122          8           0       -8.471179    3.845856    1.103507
    123          6           0       -8.893402    4.602746    2.312093
    124          1           0       -0.899941    2.386004   -0.363306
    125          1           0       -0.512032   -3.829371   -0.843135
    126          1           0       -6.756444   -4.233887   -1.370806
    127          1           0       -5.554612    4.011699   -0.107593
    128          1           0       -2.764602    4.064218    0.279958
    129          1           0       -4.467659    3.696831   -2.150020
    130          1           0       -2.872968    2.919494   -2.233834
    131          1           0       -2.937777    4.636308   -1.973033
    132          1           0       -3.837281    3.434730    2.318034
    133          1           0       -5.617982    3.200633    2.457593
    134          1           0       -5.151251    5.785115    1.357524
    135          1           0       -3.831378    5.518127    2.439904
    136          1           0        1.055275    2.022072    0.333408
    137          1           0        2.197947    0.859929   -0.252191
    138          1           0        1.879174    0.901471    1.498075
    139          1           0        3.217095   -1.053305    0.273424
    140          1           0        3.554958   -2.669024    1.123141
    141          1           0        2.643892   -1.344005    1.902681
    142          1           0       -2.192542   -5.745260   -0.913062
    143          1           0       -4.654597   -5.428959   -2.554709
    144          1           0       -1.419971   -6.210805   -2.990447
    145          1           0       -1.673227   -4.475350   -3.390563
    146          1           0       -2.897810   -5.591592   -3.722266
    147          1           0       -4.226677   -7.372967   -1.002449
    148          1           0       -5.825262   -6.663093   -0.877625
    149          1           0       -3.473100   -6.561257    0.865670
    150          1           0       -5.185267   -6.845030    1.348159
    151          1           0       -4.557954   -5.173176    0.993610
    152          1           0       -9.901824   -2.539263   -0.571461
    153          1           0       -8.817469   -3.735517   -1.352065
    154          1           0       -9.256648   -2.228943   -2.251844
    155          1           0       -7.873049    2.470611   -0.733823
    156          1           0       -9.855004    5.069412    2.077049
    157          1           0       -8.050659    5.278342    2.551024
    158          1           0       -9.146236    4.031979    3.197956
 ---------------------------------------------------------------------

 SCF Done:  E(RCAM-B3LYP) =  -4069.51086551     A.U. after   20 cycles

 Excitation energies and oscillator strengths:

 Excited State   1:      Singlet-A      1.5559 eV  796.84 nm  f=0.3033  <S**2>=0.000
     309 -> 315       -0.16892
     311 -> 313        0.67121
     309 <- 315       -0.10077
 This state for optimization and/or second-order correction.
 Total Energy, E(TD-HF/TD-DFT) =  -4069.45368574
 Copying the excited state density for this state as the 1-particle RhoCI density.

 Excited State   2:      Singlet-A      1.6553 eV  749.01 nm  f=0.4758  <S**2>=0.000
     310 -> 316       -0.16233
     312 -> 314        0.67922

 Excited State   3:      Singlet-A      1.9195 eV  645.90 nm  f=0.0010  <S**2>=0.000
     312 -> 313        0.69640

 Excited State   4:      Singlet-A      1.9892 eV  623.28 nm  f=0.0665  <S**2>=0.000
     309 -> 313        0.64710
     311 -> 315        0.24266

 Excited State   5:      Singlet-A      2.1815 eV  568.34 nm  f=0.0947  <S**2>=0.000
     310 -> 314        0.63506
     312 -> 316        0.26446

 The electronic state is 1-A.
 Alpha  occ. eigenvalues --  -46.87642 -46.87291 -19.27122 -19.26142 -19.19968
 Alpha  occ. eigenvalues --  -19.19169 -19.19024 -19.18936 -19.18527 -19.17736
 Alpha  occ. eigenvalues --  -14.42972 -14.42113 -14.41014 -14.40940 -14.39198
 Alpha  occ. eigenvalues --  -14.38957 -14.38951 -14.38249 -10.39984 -10.38858
 Alpha  occ. eigenvalues --  -10.35792 -10.35222 -10.34373 -10.33918 -10.32449
 Alpha  occ. eigenvalues --  -10.32013 -10.31821 -10.31597 -10.31000 -10.30904
 Alpha  occ. eigenvalues --  -10.30774 -10.30635 -10.30450 -10.30227 -10.29990
 Alpha  occ. eigenvalues --  -10.29982 -10.29827 -10.29785 -10.29590 -10.29527
 Alpha  occ. eigenvalues --  -10.29331 -10.29322 -10.29112 -10.29052 -10.29004
 Alpha  occ. eigenvalues --  -10.28749 -10.28726 -10.28499 -10.28374 -10.28356
 Alpha  occ. eigenvalues --  -10.28192 -10.28120 -10.28032 -10.27974 -10.27719
 Alpha  occ. eigenvalues --  -10.27680 -10.27640 -10.27632 -10.27332 -10.27259
 Alpha  occ. eigenvalues --  -10.27180 -10.27141 -10.27130 -10.27066 -10.26959
 Alpha  occ. eigenvalues --  -10.26867 -10.26752 -10.26751 -10.26626 -10.26486
 Alpha  occ. eigenvalues --  -10.26451 -10.26435 -10.25916 -10.25766 -10.25591
 Alpha  occ. eigenvalues --  -10.25563 -10.25381 -10.25228 -10.25026 -10.24902
 Alpha  occ. eigenvalues --  -10.24887 -10.24517 -10.24513 -10.24369 -10.22764
 Alpha  occ. eigenvalues --  -10.22206  -3.17734  -3.16042  -1.93126  -1.91997
 Alpha  occ. eigenvalues --   -1.91785  -1.90924  -1.90513  -1.90349  -1.17485
 Alpha  occ. eigenvalues --   -1.16431  -1.09459  -1.08356  -1.07596  -1.07559
 Alpha  occ. eigenvalues --   -1.07080  -1.06719  -1.05712  -1.04954  -1.04113
 Alpha  occ. eigenvalues --   -1.03972  -1.03297  -1.03110  -1.02685  -1.01755
 Alpha  occ. eigenvalues --   -0.93187  -0.91838  -0.91641  -0.89919  -0.89192
 Alpha  occ. eigenvalues --   -0.88753  -0.88717  -0.88534  -0.88042  -0.87941
 Alpha  occ. eigenvalues --   -0.87784  -0.87461  -0.87316  -0.86808  -0.86004
 Alpha  occ. eigenvalues --   -0.84650  -0.84362  -0.83699  -0.83560  -0.83168
 Alpha  occ. eigenvalues --   -0.82540  -0.82350  -0.82224  -0.81376  -0.81264
 Alpha  occ. eigenvalues --   -0.80267  -0.79266  -0.78555  -0.77684  -0.77423
 Alpha  occ. eigenvalues --   -0.76896  -0.76611  -0.76457  -0.75522  -0.74834
 Alpha  occ. eigenvalues --   -0.74552  -0.73511  -0.72366  -0.72230  -0.71248
 Alpha  occ. eigenvalues --   -0.69667  -0.69501  -0.69267  -0.68728  -0.68314
 Alpha  occ. eigenvalues --   -0.67885  -0.67681  -0.67124  -0.66006  -0.65554
 Alpha  occ. eigenvalues --   -0.65221  -0.64979  -0.64531  -0.64411  -0.64024
 Alpha  occ. eigenvalues --   -0.63914  -0.62903  -0.62173  -0.61931  -0.60918
 Alpha  occ. eigenvalues --   -0.59886  -0.59693  -0.59524  -0.59206  -0.58946
 Alpha  occ. eigenvalues --   -0.58638  -0.58396  -0.58295  -0.58030  -0.57286
 Alpha  occ. eigenvalues --   -0.57168  -0.56950  -0.56736  -0.56129  -0.55893
 Alpha  occ. eigenvalues --   -0.55796  -0.55604  -0.55290  -0.54973  -0.54834
 Alpha  occ. eigenvalues --   -0.54546  -0.54276  -0.53927  -0.53716  -0.53597
 Alpha  occ. eigenvalues --   -0.53500  -0.53199  -0.52871  -0.52625  -0.52607
 Alpha  occ. eigenvalues --   -0.52539  -0.52401  -0.52207  -0.52066  -0.51855
 Alpha  occ. eigenvalues --   -0.51717  -0.51545  -0.51047  -0.51010  -0.50861
 Alpha  occ. eigenvalues --   -0.50684  -0.50371  -0.49974  -0.49855  -0.49765
 Alpha  occ. eigenvalues --   -0.49742  -0.49451  -0.49271  -0.49228  -0.48891
 Alpha  occ. eigenvalues --   -0.48863  -0.48674  -0.48401  -0.48330  -0.48185
 Alpha  occ. eigenvalues --   -0.47973  -0.47910  -0.47661  -0.47435  -0.47244
 Alpha  occ. eigenvalues --   -0.47050  -0.46793  -0.46633  -0.46454  -0.46392
 Alpha  occ. eigenvalues --   -0.46343  -0.46043  -0.45799  -0.45700  -0.45532
 Alpha  occ. eigenvalues --   -0.45421  -0.45139  -0.44938  -0.44769  -0.44757
 Alpha  occ. eigenvalues --   -0.44455  -0.44298  -0.44212  -0.44127  -0.43997
 Alpha  occ. eigenvalues --   -0.43941  -0.43795  -0.43732  -0.43428  -0.43301
 Alpha  occ. eigenvalues --   -0.43145  -0.42927  -0.42767  -0.42634  -0.42543
 Alpha  occ. eigenvalues --   -0.42452  -0.42210  -0.42130  -0.41826  -0.41652
 Alpha  occ. eigenvalues --   -0.41488  -0.41377  -0.41202  -0.41181  -0.41039
 Alpha  occ. eigenvalues --   -0.40735  -0.40672  -0.40453  -0.40366  -0.40203
 Alpha  occ. eigenvalues --   -0.40118  -0.40066  -0.39182  -0.38398  -0.38359
 Alpha  occ. eigenvalues --   -0.38065  -0.37782  -0.37604  -0.37460  -0.37380
 Alpha  occ. eigenvalues --   -0.37064  -0.36850  -0.36827  -0.36540  -0.36403
 Alpha  occ. eigenvalues --   -0.35906  -0.35471  -0.34941  -0.34251  -0.33880
 Alpha  occ. eigenvalues --   -0.33606  -0.33336  -0.32785  -0.31654  -0.31092
 Alpha  occ. eigenvalues --   -0.30844  -0.30642  -0.30226  -0.29648  -0.29378
 Alpha  occ. eigenvalues --   -0.28940  -0.28848  -0.27967  -0.24307  -0.23666
 Alpha  occ. eigenvalues --   -0.21676  -0.20743
 Alpha virt. eigenvalues --   -0.09648  -0.08435  -0.02818  -0.01379  -0.00599
 Alpha virt. eigenvalues --    0.00185   0.01477   0.02472   0.03490   0.03929
 Alpha virt. eigenvalues --    0.04126   0.04933   0.05101   0.05410   0.05955

 Mulliken charges:
               1
     1  Mg   0.502460
     2  C   -0.002647
     3  C   -0.093257
     4  C    0.192597
     5  C   -0.061326
     6  N   -0.240658
     7  C   -0.051065
     8  C   -0.014465
     9  C   -0.083373
    10  C    0.044561
    11  C    0.104250
    12  C    0.040757
    13  C   -0.068884
    14  H    0.035219
    15  N   -0.456139
    16  C    0.174071
    17  C   -0.186564
    18  C    0.013142
    19  C    0.021823
    20  C    0.112450
    21  C    0.008857
    22  O   -0.242704
    23  C    0.062542
    24  N   -0.340313
    25  C    0.014632
    26  C   -0.008920
    27  C   -0.029514
    28  C    0.110162
    29  C    0.090832
    30  C    0.041944
    31  C    0.005594
    32  N   -0.303368
    33  C    0.096268
    34  C   -0.166115
    35  C    0.011570
    36  C    0.082237
    37  C    0.126040
    38  C    0.046029
    39  O   -0.184108
    40  C   -0.005926
    41  C    0.214329
    42  O   -0.262116
    43  O   -0.303231
    44  C    0.156876
    45  H   -0.016840
    46  H   -0.008780
    47  H   -0.038534
    48  H    0.001457
    49  H   -0.003844
    50  H    0.025906
    51  H    0.020359
    52  H    0.017839
    53  H    0.013901
    54  H    0.045982
    55  H    0.020402
    56  H    0.020231
    57  H    0.004683
    58  H    0.026913
    59  H    0.039041
    60  H    0.037987
    61  H    0.038364
    62  H    0.032159
    63  H    0.016150
    64  H    0.005389
    65  H    0.020928
    66  H    0.006855
    67  H    0.000158
    68  H    0.000381
    69  H   -0.007586
    70  H    0.024249
    71  H   -0.001415
    72  H    0.034332
    73  H    0.049431
    74  H    0.014175
    75  H    0.048244
    76  H    0.037240
    77  H    0.045779
    78  H    0.047076
    79  H    0.052247
    80  Mg   0.837607
    81  C   -0.017119
    82  C   -0.095933
    83  C   -0.050667
    84  C   -0.065315
    85  N   -0.254521
    86  C   -0.049962
    87  C   -0.015156
    88  C   -0.089044
    89  C    0.044029
    90  C    0.114521
    91  C    0.063046
    92  C   -0.076599
    93  H    0.032541
    94  N   -0.425270
    95  C    0.161026
    96  C   -0.182537
    97  C    0.053437
    98  C    0.150394
    99  C    0.108582
   100  C    0.058042
   101  O   -0.258676
   102  C    0.107177
   103  N   -0.349873
   104  C    0.035291
   105  C   -0.019548
   106  C   -0.034388
   107  C    0.088648
   108  C    0.072712
   109  C    0.034988
   110  C   -0.007482
   111  N   -0.323794
   112  C    0.077683
   113  C   -0.164043
   114  C    0.001896
   115  C    0.095634
   116  C    0.131659
   117  C    0.041658
   118  O   -0.189477
   119  C    0.001177
   120  C    0.211091
   121  O   -0.251764
   122  O   -0.305439
   123  C    0.152416
   124  H   -0.002884
   125  H   -0.014932
   126  H   -0.041590
   127  H   -0.001302
   128  H   -0.005295
   129  H    0.019881
   130  H    0.020352
   131  H    0.019193
   132  H    0.012550
   133  H    0.036848
   134  H    0.020927
   135  H    0.018004
   136  H    0.008795
   137  H    0.087620
   138  H    0.102650
   139  H   -0.090204
   140  H   -0.053356
   141  H    0.125052
   142  H    0.013776
   143  H    0.011772
   144  H    0.023690
   145  H    0.012895
   146  H    0.005235
   147  H    0.005199
   148  H    0.003212
   149  H    0.010862
   150  H    0.017163
   151  H    0.030478
   152  H    0.044997
   153  H    0.007728
   154  H    0.046374
   155  H    0.034933
   156  H    0.043365
   157  H    0.049026
   158  H    0.052934
 Sum of Mulliken charges =  -0.00000

 Dipole moment (field-independent basis, Debye):
    X=              5.9928    Y=              3.4383    Z=              2.7115  Tot=              7.4221
 Quadrupole moment (field-independent basis, Debye-Ang):
   XX=           -554.8073   YY=           -471.7739   ZZ=           -505.6766
   XY=             16.2418   XZ=             22.8593   YZ=             42.7600

 Normal termination of Gaussian 16 at Thu Sep  9 11:39:56 2021.
