 Gaussian 16, Revision A.03,
 Gaussian 16:  ES64L-G16RevA.03 25-Dec-2016

 -----------------------------------
 #p cam-b3lyp/Def2SVP td=(nstates=5)
 -----------------------------------

 --------------------------------
 TDDFT excited states in gaussian
 --------------------------------
 Symbolic Z-matrix:
 Charge =  0 Multiplicity = 1

                         Standard orientation:
 ---------------------------------------------------------------------
 Center     Atomic      Atomic             Coordinates (Angstroms)
 Number     Number       Type             X           Y           Z
 ---------------------------------------------------------------------
      1         12           0       -4.189799   -1.052482    0.179208
      2          6           0       -4.598703    1.891255    2.174058
      3          6           0       -5.340391    0.763615   -2.470508
      4          6           0       -4.268984   -3.745838   -1.492971
      5          6           0       -4.168498   -2.881135    3.145895
      6          7           0       -4.851811    1.052321   -0.000208
      7          6           0       -4.903455    2.092465    0.825991
      8          6           0       -5.239129    3.434568    0.109432
      9          6           0       -5.988519    2.854746   -1.172838
     10          6           0       -5.330108    1.488115   -1.241677
     11          6           0       -7.488513    2.667593   -0.969135
     12          6           0       -3.952881    4.232726   -0.290867
     13          6           0       -4.188338    5.690653   -0.696286
     14          1           0       -3.188456    6.686442   -0.341340
     15          7           0       -4.254356   -1.346900   -1.773227
     16          6           0       -4.741319   -0.492902   -2.705343
     17          6           0       -4.565161   -1.168616   -4.008823
     18          6           0       -4.110938   -2.561574   -3.741537
     19          6           0       -4.219845   -2.615991   -2.306073
     20          6           0       -4.773964   -0.484696   -5.325031
     21          6           0       -3.661612   -3.671440   -4.638440
     22          8           0       -3.532626   -4.873098   -4.221359
     23          6           0       -3.458884   -3.328022   -6.057597
     24          7           0       -4.435239   -3.053497    0.720808
     25          6           0       -4.371196   -4.028455   -0.192614
     26          6           0       -4.290828   -5.379019    0.455040
     27          6           0       -4.067479   -5.109583    2.013010
     28          6           0       -4.144520   -3.562935    1.998445
     29          6           0       -5.513929   -6.286570    0.264284
     30          6           0       -2.836995   -5.780593    2.673369
     31          6           0       -1.565230   -5.173986    2.124061
     32          7           0       -4.174319   -0.595501    2.300994
     33          6           0       -4.189143   -1.513266    3.361259
     34          6           0       -4.281574   -0.731526    4.608018
     35          6           0       -4.331131    0.594610    4.182867
     36          6           0       -4.299785    0.637206    2.759669
     37          6           0       -4.368106   -1.267453    5.923209
     38          6           0       -4.428110    1.984316    4.599002
     39          8           0       -4.393785    2.569501    5.682456
     40          6           0       -4.728050    2.872954    3.312074
     41          6           0       -3.785881    4.045499    3.339740
     42          8           0       -2.556948    3.882202    3.196829
     43          8           0       -4.492761    5.185018    3.291184
     44          6           0       -3.616558    6.386847    3.285718
     45          1           0       -5.906966    1.162988   -3.313974
     46          1           0       -4.186554   -4.695048   -2.026492
     47          1           0       -4.081523   -3.379201    4.113273
     48          1           0       -5.907556    4.091989    0.665694
     49          1           0       -5.762867    3.429740   -2.070716
     50          1           0       -7.774605    2.842404    0.067935
     51          1           0       -7.694035    1.634967   -1.251865
     52          1           0       -8.054262    3.287171   -1.665431
     53          1           0       -3.563642    3.839552   -1.229998
     54          1           0       -3.211704    4.195945    0.508276
     55          1           0       -5.183761    6.028962   -0.407168
     56          1           0       -4.188767    5.746630   -1.784894
     57          1           0       -5.263879    0.480345   -5.201644
     58          1           0       -5.491600   -1.084021   -5.884959
     59          1           0       -3.847552   -0.395278   -5.892567
     60          1           0       -4.391620   -2.944751   -6.471910
     61          1           0       -3.052837   -4.222617   -6.528422
     62          1           0       -2.736491   -2.513980   -6.124178
     63          1           0       -3.448011   -5.949384    0.066750
     64          1           0       -4.911057   -5.452641    2.612477
     65          1           0       -5.278392   -7.248896   -0.190860
     66          1           0       -6.248023   -5.742447   -0.329288
     67          1           0       -6.078485   -6.489966    1.173858
     68          1           0       -2.812988   -6.843994    2.437678
     69          1           0       -2.823350   -5.681077    3.758800
     70          1           0       -1.409170   -5.730507    1.200610
     71          1           0       -0.738747   -5.329806    2.818220
     72          1           0       -1.707750   -4.127519    1.853727
     73          1           0       -3.699947   -0.668006    6.541429
     74          1           0       -4.086542   -2.320070    5.941182
     75          1           0       -5.426375   -1.114619    6.134313
     76          1           0       -5.770131    3.183401    3.381438
     77          1           0       -3.926675    7.013970    4.121648
     78          1           0       -3.679605    6.811739    2.283771
     79          1           0       -2.567414    6.219623    3.532034
     80         12           0        4.759331   -0.194739   -0.146494
     81          6           0        2.360581    1.918188   -1.777615
     82          6           0        6.980537    2.381031   -0.403814
     83          6           0        7.019806   -2.172979    0.875400
     84          6           0        2.765770   -2.910867   -1.037616
     85          7           0        4.575939    1.837537   -0.999978
     86          6           0        3.597906    2.551153   -1.537134
     87          6           0        3.941501    4.048508   -1.759470
     88          6           0        5.540465    3.919777   -1.834254
     89          6           0        5.723115    2.654133   -0.999119
     90          6           0        6.057192    3.645284   -3.236755
     91          6           0        3.493464    4.949712   -0.555678
     92          6           0        3.516480    6.454084   -0.835095
     93          1           0        2.488440    7.291472   -0.223229
     94          7           0        6.545517    0.187285    0.629493
     95          6           0        7.296150    1.292461    0.438653
     96          6           0        8.530700    1.078347    1.209500
     97          6           0        8.518665   -0.312981    1.737501
     98          6           0        7.344961   -0.838358    1.069310
     99          6           0        9.538188    2.164742    1.450634
    100          6           0        9.422223   -1.052564    2.677076
    101          8           0        9.358225   -2.325719    2.810518
    102          6           0       10.446371   -0.254157    3.366392
    103          7           0        4.989314   -2.257308   -0.270167
    104          6           0        6.038731   -2.871551    0.303721
    105          6           0        5.850053   -4.369687    0.323294
    106          6           0        4.340059   -4.618633   -0.140954
    107          6           0        3.926301   -3.162571   -0.447712
    108          6           0        6.795838   -5.171031   -0.570973
    109          6           0        3.441370   -5.458135    0.807879
    110          6           0        3.189491   -4.695728    2.088757
    111          7           0        2.814201   -0.467476   -1.046582
    112          6           0        2.180442   -1.691473   -1.353606
    113          6           0        0.924067   -1.366195   -2.059394
    114          6           0        0.925275    0.034805   -2.134983
    115          6           0        2.109235    0.545614   -1.537637
    116          6           0       -0.009206   -2.309680   -2.574137
    117          6           0        0.199280    1.197215   -2.593697
    118          8           0       -0.908436    1.387987   -3.094003
    119          6           0        1.156554    2.462250   -2.495212
    120          6           0        0.389912    3.574481   -1.833629
    121          8           0        0.025940    3.473566   -0.648741
    122          8           0        0.402307    4.655444   -2.634716
    123          6           0       -0.336202    5.788889   -2.016878
    124          1           0        7.818455    3.038866   -0.636270
    125          1           0        7.715080   -2.895491    1.309060
    126          1           0        2.041921   -3.697419   -1.261326
    127          1           0        3.558923    4.470366   -2.681123
    128          1           0        6.027624    4.765650   -1.356196
    129          1           0        5.252869    3.464120   -3.934168
    130          1           0        6.688449    2.770454   -3.151697
    131          1           0        6.711633    4.458569   -3.563257
    132          1           0        4.252419    4.893892    0.235290
    133          1           0        2.521207    4.662038   -0.205558
    134          1           0        3.603201    6.673084   -1.906298
    135          1           0        4.427300    6.873741   -0.401146
    136          1           0        9.359218    3.030645    0.801339
    137          1           0       10.509908    1.777614    1.125407
    138          1           0        9.605738    2.450640    2.502468
    139          1           0       11.080922    0.232850    2.629753
    140          1           0       10.934389   -0.941230    4.060411
    141          1           0        9.948239    0.543250    3.929067
    142          1           0        5.979280   -4.762686    1.324263
    143          1           0        4.291700   -5.166388   -1.093552
    144          1           0        7.377284   -5.933401   -0.018912
    145          1           0        7.457724   -4.478999   -1.074498
    146          1           0        6.319411   -5.683411   -1.405054
    147          1           0        3.950220   -6.382570    1.091877
    148          1           0        2.489829   -5.736550    0.367380
    149          1           0        4.082077   -4.911107    2.683736
    150          1           0        2.289844   -5.059928    2.580746
    151          1           0        3.168107   -3.615112    1.905847
    152          1           0       -0.994700   -1.945240   -2.316301
    153          1           0        0.166326   -3.304107   -2.169088
    154          1           0        0.224872   -2.253629   -3.640598
    155          1           0        1.461408    2.722150   -3.509660
    156          1           0       -1.102285    6.099803   -2.733899
    157          1           0        0.434028    6.535710   -1.747162
    158          1           0       -0.939250    5.576612   -1.141819
 ---------------------------------------------------------------------

 SCF Done:  E(RCAM-B3LYP) =  -4069.81374539     A.U. after   18 cycles

 Excitation energies and oscillator strengths:

 Excited State   1:      Singlet-A      1.6443 eV  754.03 nm  f=0.2579  <S**2>=0.000
     309 -> 315        0.12502
     310 -> 316        0.10706
     311 -> 313        0.51461
     312 -> 314        0.45342
 This state for optimization and/or second-order correction.
 Total Energy, E(TD-HF/TD-DFT) =  -4069.75331923
 Copying the excited state density for this state as the 1-particle RhoCI density.

 Excited State   2:      Singlet-A      1.6986 eV  729.94 nm  f=0.5124  <S**2>=0.000
     309 -> 315       -0.11815
     310 -> 316        0.13379
     311 -> 313       -0.45243
     312 -> 314        0.51356

 Excited State   3:      Singlet-A      2.1746 eV  570.16 nm  f=0.0049  <S**2>=0.000
     309 -> 313        0.51373
     310 -> 314       -0.39113
     311 -> 315       -0.21105
     312 -> 316        0.15811

 Excited State   4:      Singlet-A      2.1938 eV  565.17 nm  f=0.1615  <S**2>=0.000
     309 -> 313        0.38114
     310 -> 314        0.50726
     311 -> 315       -0.16563
     312 -> 316       -0.22187

 Excited State   5:      Singlet-A      2.2056 eV  562.14 nm  f=0.0022  <S**2>=0.000
     312 -> 313        0.69831

 The electronic state is 1-A.
 Alpha  occ. eigenvalues --  -46.87575 -46.87070 -19.26392 -19.25681 -19.19164
 Alpha  occ. eigenvalues --  -19.18644 -19.18312 -19.18288 -19.18230 -19.17538
 Alpha  occ. eigenvalues --  -14.42413 -14.41717 -14.41284 -14.40804 -14.39276
 Alpha  occ. eigenvalues --  -14.38723 -14.38528 -14.37883 -10.39065 -10.38363
 Alpha  occ. eigenvalues --  -10.35321 -10.34950 -10.34349 -10.33755 -10.31824
 Alpha  occ. eigenvalues --  -10.31253 -10.31227 -10.30952 -10.30678 -10.30331
 Alpha  occ. eigenvalues --  -10.30305 -10.30163 -10.30041 -10.29909 -10.29859
 Alpha  occ. eigenvalues --  -10.29826 -10.29592 -10.29368 -10.29342 -10.29342
 Alpha  occ. eigenvalues --  -10.29009 -10.28653 -10.28578 -10.28561 -10.28351
 Alpha  occ. eigenvalues --  -10.28291 -10.28086 -10.28050 -10.27941 -10.27638
 Alpha  occ. eigenvalues --  -10.27596 -10.27428 -10.27418 -10.27413 -10.27405
 Alpha  occ. eigenvalues --  -10.27395 -10.27289 -10.27106 -10.27104 -10.27096
 Alpha  occ. eigenvalues --  -10.27070 -10.26995 -10.26941 -10.26718 -10.26696
 Alpha  occ. eigenvalues --  -10.26565 -10.26505 -10.26336 -10.26014 -10.26006
 Alpha  occ. eigenvalues --  -10.25946 -10.25930 -10.25836 -10.25831 -10.25660
 Alpha  occ. eigenvalues --  -10.25639 -10.25386 -10.25322 -10.25308 -10.25091
 Alpha  occ. eigenvalues --  -10.24835 -10.24625 -10.24619 -10.24588 -10.24191
 Alpha  occ. eigenvalues --  -10.24157  -3.16323  -3.15810  -1.91204  -1.90794
 Alpha  occ. eigenvalues --   -1.90691  -1.90631  -1.90279  -1.90122  -1.16676
 Alpha  occ. eigenvalues --   -1.16008  -1.08803  -1.08001  -1.06939  -1.06896
 Alpha  occ. eigenvalues --   -1.06728  -1.05930  -1.04422  -1.03856  -1.03590
 Alpha  occ. eigenvalues --   -1.03112  -1.02965  -1.02559  -1.02042  -1.01738
 Alpha  occ. eigenvalues --   -0.91952  -0.91293  -0.89414  -0.89084  -0.89036
 Alpha  occ. eigenvalues --   -0.88505  -0.88135  -0.87800  -0.87693  -0.87602
 Alpha  occ. eigenvalues --   -0.87237  -0.87050  -0.86982  -0.86619  -0.84928
 Alpha  occ. eigenvalues --   -0.84366  -0.83797  -0.83525  -0.82858  -0.82595
 Alpha  occ. eigenvalues --   -0.82428  -0.82060  -0.81574  -0.81002  -0.80396
 Alpha  occ. eigenvalues --   -0.79981  -0.78558  -0.78137  -0.77062  -0.76856
 Alpha  occ. eigenvalues --   -0.76681  -0.76392  -0.75802  -0.75321  -0.74739
 Alpha  occ. eigenvalues --   -0.74405  -0.72612  -0.72152  -0.71525  -0.71069
 Alpha  occ. eigenvalues --   -0.69661  -0.69537  -0.68765  -0.68270  -0.67547
 Alpha  occ. eigenvalues --   -0.67120  -0.67026  -0.66602  -0.65216  -0.64711
 Alpha  occ. eigenvalues --   -0.64630  -0.64601  -0.64237  -0.64128  -0.64055
 Alpha  occ. eigenvalues --   -0.63719  -0.62268  -0.61706  -0.60270  -0.59846
 Alpha  occ. eigenvalues --   -0.59727  -0.59123  -0.58931  -0.58382  -0.58369
 Alpha  occ. eigenvalues --   -0.57882  -0.57546  -0.57177  -0.56942  -0.56742
 Alpha  occ. eigenvalues --   -0.56127  -0.55878  -0.55680  -0.55401  -0.55382
 Alpha  occ. eigenvalues --   -0.55193  -0.54946  -0.54850  -0.54441  -0.53997
 Alpha  occ. eigenvalues --   -0.53843  -0.53231  -0.53156  -0.53084  -0.52840
 Alpha  occ. eigenvalues --   -0.52736  -0.52625  -0.52584  -0.52345  -0.52297
 Alpha  occ. eigenvalues --   -0.52174  -0.52024  -0.51768  -0.51585  -0.51325
 Alpha  occ. eigenvalues --   -0.51166  -0.50961  -0.50614  -0.50400  -0.49966
 Alpha  occ. eigenvalues --   -0.49909  -0.49795  -0.49558  -0.49422  -0.49312
 Alpha  occ. eigenvalues --   -0.49160  -0.49086  -0.48921  -0.48594  -0.48524
 Alpha  occ. eigenvalues --   -0.48504  -0.48344  -0.48272  -0.48048  -0.47920
 Alpha  occ. eigenvalues --   -0.47865  -0.47540  -0.47125  -0.47046  -0.46706
 Alpha  occ. eigenvalues --   -0.46621  -0.46488  -0.46248  -0.46184  -0.46012
 Alpha  occ. eigenvalues --   -0.45938  -0.45790  -0.45713  -0.45586  -0.45270
 Alpha  occ. eigenvalues --   -0.45136  -0.44737  -0.44469  -0.44390  -0.44120
 Alpha  occ. eigenvalues --   -0.44038  -0.44009  -0.43961  -0.43886  -0.43669
 Alpha  occ. eigenvalues --   -0.43574  -0.43448  -0.43398  -0.43315  -0.42919
 Alpha  occ. eigenvalues --   -0.42917  -0.42866  -0.42769  -0.42495  -0.42448
 Alpha  occ. eigenvalues --   -0.42241  -0.42089  -0.41891  -0.41664  -0.41509
 Alpha  occ. eigenvalues --   -0.41384  -0.41094  -0.40973  -0.40939  -0.40646
 Alpha  occ. eigenvalues --   -0.40620  -0.40561  -0.40412  -0.40359  -0.40285
 Alpha  occ. eigenvalues --   -0.40138  -0.40062  -0.39544  -0.39326  -0.39105
 Alpha  occ. eigenvalues --   -0.38264  -0.37998  -0.37574  -0.37199  -0.37176
 Alpha  occ. eigenvalues --   -0.37127  -0.36764  -0.36744  -0.36596  -0.36156
 Alpha  occ. eigenvalues --   -0.36097  -0.35582  -0.34179  -0.33808  -0.33613
 Alpha  occ. eigenvalues --   -0.33104  -0.33036  -0.32496  -0.31202  -0.30903
 Alpha  occ. eigenvalues --   -0.30843  -0.30374  -0.30076  -0.29399  -0.29273
 Alpha  occ. eigenvalues --   -0.29168  -0.28781  -0.28647  -0.23961  -0.23382
 Alpha  occ. eigenvalues --   -0.21048  -0.20444
 Alpha virt. eigenvalues --   -0.08735  -0.08088  -0.01605  -0.01117   0.00020
 Alpha virt. eigenvalues --    0.00597   0.02183   0.02813   0.03325   0.04060
 Alpha virt. eigenvalues --    0.04793   0.05107   0.05207   0.05786   0.06114

 Mulliken charges:
               1
     1  Mg   0.839268
     2  C    0.002946
     3  C   -0.083471
     4  C   -0.050180
     5  C   -0.065853
     6  N   -0.256485
     7  C   -0.048355
     8  C   -0.013980
     9  C   -0.090172
    10  C    0.052558
    11  C    0.105326
    12  C    0.048374
    13  C   -0.076676
    14  H    0.025705
    15  N   -0.438670
    16  C    0.184905
    17  C   -0.170433
    18  C   -0.005602
    19  C    0.143748
    20  C    0.113009
    21  C    0.010558
    22  O   -0.253381
    23  C    0.062019
    24  N   -0.340783
    25  C    0.041963
    26  C   -0.027604
    27  C   -0.023237
    28  C    0.074196
    29  C    0.076763
    30  C    0.036047
    31  C   -0.009418
    32  N   -0.310403
    33  C    0.080380
    34  C   -0.171350
    35  C    0.007188
    36  C    0.083724
    37  C    0.127586
    38  C    0.046354
    39  O   -0.190985
    40  C   -0.006839
    41  C    0.210800
    42  O   -0.250436
    43  O   -0.306110
    44  C    0.159183
    45  H   -0.019974
    46  H   -0.019858
    47  H   -0.044079
    48  H   -0.002156
    49  H   -0.003566
    50  H    0.024372
    51  H    0.015920
    52  H    0.014687
    53  H    0.021998
    54  H    0.056522
    55  H    0.017710
    56  H    0.017149
    57  H    0.006119
    58  H    0.022819
    59  H    0.044599
    60  H    0.037202
    61  H    0.032569
    62  H    0.033875
    63  H    0.013024
    64  H    0.008688
    65  H    0.021388
    66  H    0.013007
    67  H    0.003942
    68  H    0.004416
    69  H    0.004479
    70  H    0.004885
    71  H    0.019283
    72  H    0.032899
    73  H    0.046324
    74  H    0.007458
    75  H    0.044485
    76  H    0.033252
    77  H    0.040715
    78  H    0.044066
    79  H    0.053742
    80  Mg   0.840477
    81  C   -0.015118
    82  C   -0.087892
    83  C   -0.045329
    84  C   -0.064939
    85  N   -0.254799
    86  C   -0.049427
    87  C   -0.015732
    88  C   -0.090595
    89  C    0.046539
    90  C    0.114549
    91  C    0.062045
    92  C   -0.077646
    93  H    0.034727
    94  N   -0.423425
    95  C    0.163691
    96  C   -0.174548
    97  C   -0.007510
    98  C    0.152438
    99  C    0.099429
   100  C    0.015888
   101  O   -0.253110
   102  C    0.061020
   103  N   -0.350040
   104  C    0.037679
   105  C   -0.020012
   106  C   -0.034336
   107  C    0.088736
   108  C    0.073712
   109  C    0.033842
   110  C   -0.009057
   111  N   -0.323721
   112  C    0.077250
   113  C   -0.167150
   114  C   -0.001093
   115  C    0.098218
   116  C    0.126889
   117  C    0.044604
   118  O   -0.192901
   119  C    0.001766
   120  C    0.208470
   121  O   -0.242686
   122  O   -0.307107
   123  C    0.149803
   124  H   -0.019925
   125  H   -0.015527
   126  H   -0.038604
   127  H   -0.001900
   128  H   -0.004191
   129  H    0.021632
   130  H    0.014383
   131  H    0.015979
   132  H    0.014966
   133  H    0.040981
   134  H    0.019461
   135  H    0.019617
   136  H    0.008720
   137  H    0.025943
   138  H    0.040306
   139  H    0.038037
   140  H    0.036422
   141  H    0.034433
   142  H    0.014517
   143  H    0.012875
   144  H    0.024985
   145  H    0.011338
   146  H    0.005811
   147  H    0.005567
   148  H    0.005248
   149  H    0.010326
   150  H    0.018283
   151  H    0.031203
   152  H    0.056364
   153  H    0.014469
   154  H    0.041997
   155  H    0.033208
   156  H    0.039383
   157  H    0.049219
   158  H    0.056736
 Sum of Mulliken charges =  -0.00000

 Dipole moment (field-independent basis, Debye):
    X=              2.0525    Y=              3.0350    Z=             -4.8168  Tot=              6.0519
 Quadrupole moment (field-independent basis, Debye-Ang):
   XX=           -479.4783   YY=           -469.7236   ZZ=           -525.2920
   XY=             23.4121   XZ=              8.0937   YZ=            -29.6588

 Normal termination of Gaussian 16 at Thu Sep  9 21:09:17 2021.
