 Gaussian 16, Revision A.03,
 Gaussian 16:  ES64L-G16RevA.03 25-Dec-2016

 -----------------------------------
 #p cam-b3lyp/Def2SVP td=(nstates=5)
 -----------------------------------

 --------------------------------
 TDDFT excited states in gaussian
 --------------------------------
 Symbolic Z-matrix:
 Charge =  0 Multiplicity = 1

                         Standard orientation:
 ---------------------------------------------------------------------
 Center     Atomic      Atomic             Coordinates (Angstroms)
 Number     Number       Type             X           Y           Z
 ---------------------------------------------------------------------
      1         12           0       16.135849    0.515270    0.415898
      2          6           0       16.343501   -2.682399   -1.179095
      3          6           0       17.044391    1.897030   -2.568789
      4          6           0       16.401721    3.299918    1.909776
      5          6           0       16.362174   -1.155892    3.465760
      6          7           0       16.605188   -0.382925   -1.552251
      7          6           0       16.589686   -1.616523   -2.047395
      8          6           0       16.785179   -1.664641   -3.592336
      9          6           0       17.544515   -0.277193   -3.793319
     10          6           0       17.006737    0.471090   -2.586343
     11          6           0       19.060478   -0.388419   -3.666877
     12          6           0       15.422690   -1.689011   -4.363545
     13          6           0       15.517384   -2.062942   -5.845625
     14          1           0       14.444901   -2.846341   -6.440111
     15          7           0       16.168566    2.355836   -0.301109
     16          6           0       16.551164    2.733916   -1.544475
     17          6           0       16.396703    4.203893   -1.589097
     18          6           0       16.074426    4.669573   -0.211646
     19          6           0       16.229824    3.447668    0.535467
     20          6           0       16.505960    5.004816   -2.850182
     21          6           0       15.697987    6.006253    0.344874
     22          8           0       15.687180    6.241255    1.601548
     23          6           0       15.424307    7.072587   -0.635470
     24          7           0       16.571615    1.031170    2.391143
     25          6           0       16.566492    2.308480    2.787926
     26          6           0       16.623929    2.416053    4.282941
     27          6           0       16.423698    0.933354    4.840852
     28          6           0       16.364361    0.178832    3.489762
     29          6           0       17.915762    3.009132    4.862110
     30          6           0       15.276732    0.714087    5.859091
     31          6           0       13.941083    0.913733    5.178444
     32          7           0       16.142721   -1.553770    1.071694
     33          6           0       16.269116   -2.020607    2.388038
     34          6           0       16.329244   -3.492306    2.320556
     35          6           0       16.249810   -3.780505    0.959499
     36          6           0       16.173037   -2.564794    0.221634
     37          6           0       16.501050   -4.370927    3.426423
     38          6           0       16.236745   -4.831800   -0.044725
     39          8           0       16.183096   -6.062050   -0.011578
     40          6           0       16.419657   -4.159310   -1.476552
     41          6           0       15.379522   -4.746976   -2.390924
     42          8           0       14.165975   -4.519909   -2.208967
     43          8           0       15.982026   -5.281708   -3.464047
     44          6           0       15.004034   -5.856279   -4.426104
     45          1           0       17.548730    2.421773   -3.382562
     46          1           0       16.387198    4.234814    2.473865
     47          1           0       16.347675   -1.748020    4.382617
     48          1           0       17.409442   -2.485345   -3.946121
     49          1           0       17.243023    0.222091   -4.713938
     50          1           0       19.360493   -1.380946   -3.331017
     51          1           0       19.347357    0.364761   -2.932769
     52          1           0       19.549010   -0.100528   -4.598130
     53          1           0       15.041995   -0.671585   -4.452859
     54          1           0       14.711401   -2.351647   -3.869271
     55          1           0       16.487373   -2.499469   -6.085364
     56          1           0       15.480909   -1.145064   -6.432456
     57          1           0       16.912781    4.411017   -3.667766
     58          1           0       17.256617    5.775038   -2.674169
     59          1           0       15.558998    5.470166   -3.124123
     60          1           0       16.307262    7.225947   -1.256292
     61          1           0       15.084607    7.931795   -0.058223
     62          1           0       14.631673    6.740342   -1.306510
     63          1           0       15.823325    3.050880    4.660372
     64          1           0       17.311360    0.567340    5.357342
     65          1           0       17.752241    3.885192    5.490190
     66          1           0       18.581553    3.242129    4.031613
     67          1           0       18.522464    2.309611    5.436566
     68          1           0       15.339147    1.445767    6.663886
     69          1           0       15.286319   -0.277784    6.311144
     70          1           0       13.807352    1.994227    5.216927
     71          1           0       13.152206    0.402761    5.731429
     72          1           0       13.983287    0.627856    4.127264
     73          1           0       15.801360   -5.192734    3.274646
     74          1           0       16.313521   -3.860299    4.370718
     75          1           0       17.547587   -4.648983    3.302719
     76          1           0       17.432089   -4.391994   -1.805126
     77          1           0       15.282398   -6.898474   -4.582875
     78          1           0       15.000107   -5.197463   -5.294638
     79          1           0       13.981288   -5.968592   -4.064558
     80         12           0      -15.621454    0.622599    0.112830
     81          6           0      -18.082906   -1.988661    0.153409
     82          6           0      -17.685232    2.330642   -1.998568
     83          6           0      -13.287746    2.731877   -0.302087
     84          6           0      -13.315237   -1.723615    1.262771
     85          7           0      -17.602306    0.130508   -0.739429
     86          6           0      -18.467844   -0.862920   -0.604189
     87          6           0      -19.852890   -0.602288   -1.254777
     88          6           0      -19.403946    0.483807   -2.349174
     89          6           0      -18.172454    1.047509   -1.643239
     90          6           0      -18.959355   -0.134995   -3.664001
     91          6           0      -20.886684   -0.000855   -0.239124
     92          6           0      -22.339616   -0.009434   -0.719417
     93          1           0      -23.395959   -0.238201    0.262561
     94          7           0      -15.679151    2.482683   -0.576599
     95          6           0      -16.600865    3.014691   -1.406478
     96          6           0      -16.185035    4.408105   -1.629308
     97          6           0      -14.853461    4.607343   -0.995335
     98          6           0      -14.538869    3.246339   -0.609593
     99          6           0      -17.059558    5.418885   -2.312653
    100          6           0      -13.998285    5.819882   -0.784111
    101          8           0      -12.772199    5.724504   -0.422940
    102          6           0      -14.610970    7.117814   -1.102674
    103          7           0      -13.550901    0.475601    0.229249
    104          6           0      -12.770265    1.556576    0.055959
    105          6           0      -11.343006    1.268556    0.456406
    106          6           0      -11.376617   -0.164397    1.165691
    107          6           0      -12.867998   -0.511600    0.964167
    108          6           0      -10.323666    1.248625   -0.682435
    109          6           0      -10.783797   -0.254497    2.598570
    110          6           0      -11.646648    0.525656    3.564079
    111          7           0      -15.695980   -1.424878    0.798642
    112          6           0      -14.608806   -2.226840    1.209736
    113          6           0      -15.141144   -3.579137    1.474990
    114          6           0      -16.507847   -3.475227    1.175322
    115          6           0      -16.802455   -2.156988    0.733801
    116          6           0      -14.377425   -4.708075    1.885284
    117          6           0      -17.766321   -4.183818    1.121959
    118          8           0      -18.148051   -5.303166    1.461186
    119          6           0      -18.818251   -3.287164    0.337196
    120          6           0      -20.093957   -3.263247    1.133767
    121          8           0      -20.129414   -2.724952    2.254303
    122          8           0      -21.107581   -3.683569    0.355131
    123          6           0      -22.396142   -3.667001    1.097522
    124          1           0      -18.149640    2.847569   -2.838808
    125          1           0      -12.464559    3.449784   -0.323107
    126          1           0      -12.678411   -2.485065    1.718100
    127          1           0      -20.294133   -1.462467   -1.743843
    128          1           0      -20.159276    1.255549   -2.472720
    129          1           0      -18.906351   -1.211957   -3.604870
    130          1           0      -17.981775    0.281207   -3.869319
    131          1           0      -19.607593    0.202547   -4.477741
    132          1           0      -20.721718    1.081311   -0.158865
    133          1           0      -20.817419   -0.493044    0.711449
    134          1           0      -22.480932   -0.656475   -1.593664
    135          1           0      -22.591041    0.990121   -1.082311
    136          1           0      -17.908827    4.940945   -2.816370
    137          1           0      -16.469936    5.853162   -3.127285
    138          1           0      -17.380503    6.219555   -1.642894
    139          1           0      -14.922608    7.124067   -2.144454
    140          1           0      -13.877352    7.868697   -0.802935
    141          1           0      -15.519901    7.232571   -0.501586
    142          1           0      -10.984675    2.003794    1.166417
    143          1           0      -10.800767   -0.912214    0.600881
    144          1           0       -9.490334    1.961263   -0.534831
    145          1           0      -10.842574    1.456906   -1.608664
    146          1           0       -9.874027    0.277617   -0.882829
    147          1           0       -9.792447    0.204334    2.627812
    148          1           0      -10.678370   -1.272263    2.959175
    149          1           0      -11.288704    1.552200    3.440891
    150          1           0      -11.495377    0.174489    4.582825
    151          1           0      -12.698805    0.504386    3.257210
    152          1           0      -14.944092   -5.200943    2.664052
    153          1           0      -13.390384   -4.414120    2.236166
    154          1           0      -14.330135   -5.263758    0.944945
    155          1           0      -18.959013   -3.733723   -0.647862
    156          1           0      -22.815998   -4.675484    1.031321
    157          1           0      -22.987221   -2.845039    0.651706
    158          1           0      -22.354246   -3.525418    2.171136
 ---------------------------------------------------------------------

 SCF Done:  E(RCAM-B3LYP) =  -4069.81177023     A.U. after   19 cycles

 Excitation energies and oscillator strengths:

 Excited State   1:      Singlet-A      1.6753 eV  740.08 nm  f=0.2133  <S**2>=0.000
     310 -> 316        0.16865
     311 -> 313        0.66675
     312 -> 314       -0.16161
     310 <- 316        0.10168
 This state for optimization and/or second-order correction.
 Total Energy, E(TD-HF/TD-DFT) =  -4069.75020494
 Copying the excited state density for this state as the 1-particle RhoCI density.

 Excited State   2:      Singlet-A      1.6801 eV  737.94 nm  f=0.5641  <S**2>=0.000
     309 -> 315        0.17068
     311 -> 313        0.16156
     312 -> 314        0.66638
     309 <- 315        0.10219

 Excited State   3:      Singlet-A      2.1861 eV  567.15 nm  f=0.1025  <S**2>=0.000
     310 -> 313        0.64245
     311 -> 316       -0.27311

 Excited State   4:      Singlet-A      2.1926 eV  565.48 nm  f=0.0989  <S**2>=0.000
     309 -> 314        0.64067
     312 -> 315       -0.27830

 Excited State   5:      Singlet-A      3.0625 eV  404.85 nm  f=0.0000  <S**2>=0.000
     312 -> 313        0.70710

 The electronic state is 1-A.
 Alpha  occ. eigenvalues --  -46.87777 -46.87660 -19.26350 -19.26265 -19.19161
 Alpha  occ. eigenvalues --  -19.19001 -19.18794 -19.18714 -19.18150 -19.18051
 Alpha  occ. eigenvalues --  -14.42497 -14.42430 -14.41430 -14.41358 -14.39383
 Alpha  occ. eigenvalues --  -14.39352 -14.38599 -14.38567 -10.39091 -10.39060
 Alpha  occ. eigenvalues --  -10.35428 -10.35392 -10.34370 -10.34228 -10.31757
 Alpha  occ. eigenvalues --  -10.31661 -10.31385 -10.31309 -10.31024 -10.30889
 Alpha  occ. eigenvalues --  -10.30550 -10.30487 -10.30397 -10.30360 -10.30187
 Alpha  occ. eigenvalues --  -10.30139 -10.29901 -10.29893 -10.29611 -10.29436
 Alpha  occ. eigenvalues --  -10.29400 -10.29234 -10.28730 -10.28721 -10.28656
 Alpha  occ. eigenvalues --  -10.28519 -10.28405 -10.28345 -10.28142 -10.28097
 Alpha  occ. eigenvalues --  -10.28000 -10.27773 -10.27707 -10.27669 -10.27564
 Alpha  occ. eigenvalues --  -10.27512 -10.27483 -10.27481 -10.27469 -10.27465
 Alpha  occ. eigenvalues --  -10.27461 -10.27429 -10.27384 -10.27371 -10.27139
 Alpha  occ. eigenvalues --  -10.27051 -10.26694 -10.26685 -10.26416 -10.26389
 Alpha  occ. eigenvalues --  -10.26216 -10.26163 -10.26129 -10.26028 -10.25999
 Alpha  occ. eigenvalues --  -10.25932 -10.25847 -10.25824 -10.25416 -10.25392
 Alpha  occ. eigenvalues --  -10.24872 -10.24813 -10.24768 -10.24723 -10.24689
 Alpha  occ. eigenvalues --  -10.24666  -3.16519  -3.16410  -1.91401  -1.91292
 Alpha  occ. eigenvalues --   -1.90988  -1.90881  -1.90830  -1.90717  -1.16644
 Alpha  occ. eigenvalues --   -1.16614  -1.08658  -1.08608  -1.07195  -1.06967
 Alpha  occ. eigenvalues --   -1.06946  -1.06623  -1.04561  -1.04495  -1.03741
 Alpha  occ. eigenvalues --   -1.03662  -1.03214  -1.03038  -1.02391  -1.02111
 Alpha  occ. eigenvalues --   -0.91987  -0.91952  -0.89499  -0.89491  -0.89168
 Alpha  occ. eigenvalues --   -0.89152  -0.88267  -0.88216  -0.87851  -0.87792
 Alpha  occ. eigenvalues --   -0.87684  -0.87653  -0.87254  -0.87120  -0.85000
 Alpha  occ. eigenvalues --   -0.84962  -0.83916  -0.83872  -0.82947  -0.82931
 Alpha  occ. eigenvalues --   -0.82653  -0.82629  -0.81596  -0.81566  -0.80577
 Alpha  occ. eigenvalues --   -0.80443  -0.78777  -0.78635  -0.77199  -0.77144
 Alpha  occ. eigenvalues --   -0.76915  -0.76898  -0.75904  -0.75839  -0.74878
 Alpha  occ. eigenvalues --   -0.74800  -0.72754  -0.72698  -0.71653  -0.71580
 Alpha  occ. eigenvalues --   -0.69887  -0.69752  -0.68853  -0.68828  -0.67621
 Alpha  occ. eigenvalues --   -0.67601  -0.67201  -0.67200  -0.65272  -0.65267
 Alpha  occ. eigenvalues --   -0.64834  -0.64769  -0.64653  -0.64601  -0.64249
 Alpha  occ. eigenvalues --   -0.64201  -0.62278  -0.62278  -0.60422  -0.60339
 Alpha  occ. eigenvalues --   -0.59797  -0.59785  -0.58992  -0.58968  -0.58484
 Alpha  occ. eigenvalues --   -0.58425  -0.57565  -0.57554  -0.57289  -0.57235
 Alpha  occ. eigenvalues --   -0.56290  -0.56204  -0.55959  -0.55887  -0.55500
 Alpha  occ. eigenvalues --   -0.55452  -0.55320  -0.55245  -0.54504  -0.54485
 Alpha  occ. eigenvalues --   -0.53914  -0.53875  -0.53279  -0.53227  -0.53202
 Alpha  occ. eigenvalues --   -0.53142  -0.52902  -0.52895  -0.52736  -0.52669
 Alpha  occ. eigenvalues --   -0.52418  -0.52395  -0.51895  -0.51883  -0.51660
 Alpha  occ. eigenvalues --   -0.51597  -0.51200  -0.51176  -0.50552  -0.50476
 Alpha  occ. eigenvalues --   -0.50011  -0.49980  -0.49898  -0.49864  -0.49495
 Alpha  occ. eigenvalues --   -0.49488  -0.49203  -0.49195  -0.49105  -0.49077
 Alpha  occ. eigenvalues --   -0.48573  -0.48559  -0.48441  -0.48425  -0.48373
 Alpha  occ. eigenvalues --   -0.48339  -0.47675  -0.47594  -0.47277  -0.47118
 Alpha  occ. eigenvalues --   -0.46777  -0.46708  -0.46554  -0.46536  -0.46339
 Alpha  occ. eigenvalues --   -0.46269  -0.46143  -0.46084  -0.45821  -0.45803
 Alpha  occ. eigenvalues --   -0.45206  -0.45181  -0.44558  -0.44514  -0.44487
 Alpha  occ. eigenvalues --   -0.44476  -0.44127  -0.44124  -0.44076  -0.44069
 Alpha  occ. eigenvalues --   -0.44000  -0.43939  -0.43552  -0.43475  -0.43385
 Alpha  occ. eigenvalues --   -0.43366  -0.43007  -0.42930  -0.42900  -0.42679
 Alpha  occ. eigenvalues --   -0.42635  -0.42550  -0.41989  -0.41962  -0.41684
 Alpha  occ. eigenvalues --   -0.41669  -0.41514  -0.41458  -0.41121  -0.40989
 Alpha  occ. eigenvalues --   -0.40849  -0.40803  -0.40722  -0.40698  -0.40551
 Alpha  occ. eigenvalues --   -0.40490  -0.40228  -0.40214  -0.39420  -0.39420
 Alpha  occ. eigenvalues --   -0.38449  -0.38347  -0.37729  -0.37655  -0.37300
 Alpha  occ. eigenvalues --   -0.37264  -0.37244  -0.37200  -0.36771  -0.36694
 Alpha  occ. eigenvalues --   -0.36215  -0.36173  -0.34266  -0.34253  -0.33862
 Alpha  occ. eigenvalues --   -0.33751  -0.33175  -0.33166  -0.31324  -0.31273
 Alpha  occ. eigenvalues --   -0.31016  -0.30972  -0.30010  -0.29955  -0.29429
 Alpha  occ. eigenvalues --   -0.29327  -0.29302  -0.29211  -0.24061  -0.24036
 Alpha  occ. eigenvalues --   -0.21116  -0.21108
 Alpha virt. eigenvalues --   -0.08791  -0.08754  -0.01730  -0.01683  -0.00038
 Alpha virt. eigenvalues --   -0.00029   0.02208   0.02220   0.03142   0.03228
 Alpha virt. eigenvalues --    0.04729   0.04738   0.05117   0.05165   0.06181

 Mulliken charges:
               1
     1  Mg   0.838748
     2  C   -0.002962
     3  C   -0.094120
     4  C   -0.045894
     5  C   -0.063975
     6  N   -0.256782
     7  C   -0.052485
     8  C   -0.013985
     9  C   -0.087024
    10  C    0.046340
    11  C    0.104816
    12  C    0.053468
    13  C   -0.071816
    14  H    0.036135
    15  N   -0.433155
    16  C    0.168428
    17  C   -0.177149
    18  C   -0.003994
    19  C    0.148738
    20  C    0.110183
    21  C    0.012290
    22  O   -0.249612
    23  C    0.062469
    24  N   -0.341150
    25  C    0.041267
    26  C   -0.028166
    27  C   -0.023985
    28  C    0.074855
    29  C    0.076176
    30  C    0.035140
    31  C   -0.004512
    32  N   -0.310462
    33  C    0.080409
    34  C   -0.169723
    35  C    0.008351
    36  C    0.082995
    37  C    0.127312
    38  C    0.046122
    39  O   -0.188452
    40  C   -0.005344
    41  C    0.212878
    42  O   -0.257099
    43  O   -0.304800
    44  C    0.157686
    45  H   -0.017611
    46  H   -0.016831
    47  H   -0.041494
    48  H    0.000925
    49  H   -0.004031
    50  H    0.025466
    51  H    0.016444
    52  H    0.016646
    53  H    0.011218
    54  H    0.044125
    55  H    0.017859
    56  H    0.017956
    57  H    0.005868
    58  H    0.026815
    59  H    0.039576
    60  H    0.037332
    61  H    0.035669
    62  H    0.031526
    63  H    0.016569
    64  H    0.009450
    65  H    0.023215
    66  H    0.012534
    67  H    0.004742
    68  H    0.006366
    69  H    0.004724
    70  H    0.008795
    71  H    0.018153
    72  H    0.028983
    73  H    0.047567
    74  H    0.009114
    75  H    0.045995
    76  H    0.035137
    77  H    0.042937
    78  H    0.046403
    79  H    0.053692
    80  Mg   0.837827
    81  C   -0.016840
    82  C   -0.087800
    83  C   -0.045492
    84  C   -0.064841
    85  N   -0.254578
    86  C   -0.049836
    87  C   -0.015091
    88  C   -0.090509
    89  C    0.045758
    90  C    0.114381
    91  C    0.062524
    92  C   -0.077892
    93  H    0.034908
    94  N   -0.423478
    95  C    0.162909
    96  C   -0.174644
    97  C   -0.007802
    98  C    0.152113
    99  C    0.099370
   100  C    0.015563
   101  O   -0.253158
   102  C    0.061198
   103  N   -0.350050
   104  C    0.037497
   105  C   -0.019846
   106  C   -0.034838
   107  C    0.088919
   108  C    0.073636
   109  C    0.034722
   110  C   -0.007698
   111  N   -0.324112
   112  C    0.078440
   113  C   -0.163094
   114  C    0.002251
   115  C    0.096206
   116  C    0.131475
   117  C    0.042390
   118  O   -0.187850
   119  C    0.000909
   120  C    0.211272
   121  O   -0.251011
   122  O   -0.305640
   123  C    0.152024
   124  H   -0.019686
   125  H   -0.015550
   126  H   -0.040372
   127  H   -0.000656
   128  H   -0.004331
   129  H    0.022456
   130  H    0.014422
   131  H    0.016261
   132  H    0.013921
   133  H    0.037690
   134  H    0.020775
   135  H    0.019586
   136  H    0.008748
   137  H    0.026121
   138  H    0.039793
   139  H    0.038228
   140  H    0.036398
   141  H    0.033902
   142  H    0.014433
   143  H    0.012490
   144  H    0.025194
   145  H    0.011589
   146  H    0.005747
   147  H    0.006364
   148  H    0.003721
   149  H    0.010939
   150  H    0.017991
   151  H    0.030045
   152  H    0.046035
   153  H    0.008592
   154  H    0.046962
   155  H    0.035012
   156  H    0.043914
   157  H    0.049483
   158  H    0.053593
 Sum of Mulliken charges =  -0.00000

 Dipole moment (field-independent basis, Debye):
    X=              1.0020    Y=              5.7864    Z=             -6.1222  Tot=              8.4834
 Quadrupole moment (field-independent basis, Debye-Ang):
   XX=           -390.4044   YY=           -555.1963   ZZ=           -470.0783
   XY=            -21.5014   XZ=             26.4146   YZ=            -10.5256

 Normal termination of Gaussian 16 at Sun Sep 12 21:49:30 2021.
