 Gaussian 16, Revision A.03,
 Gaussian 16:  ES64L-G16RevA.03 25-Dec-2016

 -----------------------------------
 #p cam-b3lyp/Def2SVP td=(nstates=5)
 -----------------------------------

 --------------------------------
 TDDFT excited states in gaussian
 --------------------------------
 Symbolic Z-matrix:
 Charge =  0 Multiplicity = 1

                         Standard orientation:
 ---------------------------------------------------------------------
 Center     Atomic      Atomic             Coordinates (Angstroms)
 Number     Number       Type             X           Y           Z
 ---------------------------------------------------------------------
      1         12           0       -5.150477    0.493849   -0.847304
      2          6           0       -5.621067   -2.446470    1.138969
      3          6           0       -6.484620    2.274448    1.739701
      4          6           0       -5.166595    3.033473   -2.746428
      5          6           0       -4.930961   -1.597625   -3.626371
      6          7           0       -5.916806   -0.120994    1.136468
      7          6           0       -5.985815   -1.271153    1.799449
      8          6           0       -6.410995   -1.101297    3.288658
      9          6           0       -7.180444    0.290360    3.173600
     10          6           0       -6.461743    0.866184    1.966198
     11          6           0       -8.661206    0.142006    2.839178
     12          6           0       -5.179701   -0.997342    4.250344
     13          6           0       -5.498482   -1.157554    5.739661
     14          1           0       -4.533666   -1.833870    6.593520
     15          7           0       -5.275136    2.417183   -0.413604
     16          6           0       -5.836609    2.963390    0.691698
     17          6           0       -5.678501    4.426662    0.548460
     18          6           0       -5.149638    4.695627   -0.817577
     19          6           0       -5.201368    3.377784   -1.397226
     20          6           0       -5.968908    5.397538    1.651552
     21          6           0       -4.683082    5.944301   -1.496745
     22          8           0       -4.482157    5.998004   -2.758220
     23          6           0       -4.550639    7.142979   -0.649000
     24          7           0       -5.281082    0.717224   -2.918700
     25          6           0       -5.206061    1.924933   -3.488607
     26          6           0       -5.037939    1.817653   -4.975269
     27          6           0       -4.768561    0.273407   -5.279393
     28          6           0       -4.918556   -0.280083   -3.840845
     29          6           0       -6.223479    2.304857   -5.819743
     30          6           0       -3.483807   -0.073335   -6.072864
     31          6           0       -2.263636    0.239070   -5.235795
     32          7           0       -5.076008   -1.647418   -1.194397
     33          6           0       -5.007558   -2.298666   -2.434504
     34          6           0       -5.089214   -3.746412   -2.167236
     35          6           0       -5.216999   -3.836689   -0.782546
     36          6           0       -5.241671   -2.527345   -0.222812
     37          6           0       -5.100585   -4.775830   -3.149378
     38          6           0       -5.363205   -4.733930    0.352107
     39          8           0       -5.315308   -5.955527    0.503436
     40          6           0       -5.753073   -3.866826    1.629589
     41          6           0       -4.866565   -4.304285    2.763627
     42          8           0       -3.637628   -4.089258    2.734563
     43          8           0       -5.627445   -4.688688    3.799888
     44          6           0       -4.809413   -5.107224    4.969420
     45          1           0       -7.100876    2.902982    2.385545
     46          1           0       -5.060024    3.878584   -3.429706
     47          1           0       -4.784104   -2.314081   -4.436665
     48          1           0       -7.087948   -1.871499    3.658723
     49          1           0       -7.016215    0.919686    4.048071
     50          1           0       -8.915654   -0.892164    2.607512
     51          1           0       -8.828641    0.779022    1.970460
     52          1           0       -9.281385    0.553073    3.636159
     53          1           0       -4.808338    0.027426    4.249295
     54          1           0       -4.407848   -1.714069    3.967729
     55          1           0       -6.496998   -1.568399    5.891587
     56          1           0       -5.542811   -0.165034    6.188146
     57          1           0       -6.498515    4.920885    2.475484
     58          1           0       -6.678358    6.124729    1.257112
     59          1           0       -5.069895    5.909781    1.994649
     60          1           0       -5.515363    7.371405   -0.195482
     61          1           0       -4.121224    7.915652   -1.285734
     62          1           0       -3.870266    6.920342    0.173480
     63          1           0       -4.184626    2.402878   -5.315558
     64          1           0       -5.571784   -0.174283   -5.865123
     65          1           0       -5.960493    3.084612   -6.534953
     66          1           0       -7.004264    2.644873   -5.139996
     67          1           0       -6.742980    1.522590   -6.372548
     68          1           0       -3.418904    0.535331   -6.974118
     69          1           0       -3.433699   -1.119527   -6.374894
     70          1           0       -2.116772    1.304751   -5.407804
     71          1           0       -1.405029   -0.334880   -5.585921
     72          1           0       -2.465228    0.105322   -4.172800
     73          1           0       -4.438318   -5.558209   -2.778900
     74          1           0       -4.769482   -4.402475   -4.118181
     75          1           0       -6.156092   -5.047388   -3.145061
     76          1           0       -6.805188   -4.063837    1.832968
     77          1           0       -5.116684   -6.120081    5.230072
     78          1           0       -4.930264   -4.331403    5.725663
     79          1           0       -3.744996   -5.256220    4.784607
     80         12           0        5.304396    0.676541    0.833970
     81          6           0        5.570395   -1.682714   -1.857163
     82          6           0        4.151982   -1.885869    2.768026
     83          6           0        4.633680    2.809252    3.085443
     84          6           0        5.372321    3.206577   -1.561860
     85          7           0        4.951431   -1.463074    0.398432
     86          6           0        5.146910   -2.259515   -0.641676
     87          6           0        4.950307   -3.769701   -0.341293
     88          6           0        3.974663   -3.637515    0.927370
     89          6           0        4.404447   -2.258484    1.423587
     90          6           0        2.503730   -3.572730    0.551217
     91          6           0        6.294749   -4.483287    0.039883
     92          6           0        6.232530   -6.012300    0.044177
     93          1           0        7.411116   -6.758084   -0.388481
     94          7           0        4.980571    0.434224    2.776905
     95          6           0        4.534106   -0.679421    3.394761
     96          6           0        4.445176   -0.338832    4.823143
     97          6           0        4.718108    1.116077    4.976332
     98          6           0        4.768650    1.522583    3.586262
     99          6           0        4.205517   -1.366074    5.891204
    100          6           0        4.890709    1.998197    6.175608
    101          8           0        4.884090    3.276185    6.078015
    102          6           0        4.974099    1.323472    7.479176
    103          7           0        4.827954    2.699000    0.763274
    104          6           0        4.634244    3.403481    1.892039
    105          6           0        4.577726    4.885405    1.607237
    106          6           0        5.017212    5.046046    0.077979
    107          6           0        5.172463    3.556246   -0.298550
    108          6           0        3.218588    5.552081    1.818612
    109          6           0        6.198861    6.010041   -0.217154
    110          6           0        7.479541    5.447274    0.356028
    111          7           0        5.629069    0.790471   -1.299021
    112          6           0        5.588265    1.947569   -2.107437
    113          6           0        5.755953    1.506701   -3.507413
    114          6           0        5.860468    0.110447   -3.417740
    115          6           0        5.744440   -0.292260   -2.059853
    116          6           0        5.747020    2.352117   -4.652547
    117          6           0        6.031926   -1.115216   -4.164097
    118          8           0        6.268143   -1.390593   -5.339726
    119          6           0        5.725071   -2.341095   -3.200007
    120          6           0        6.830145   -3.348391   -3.363329
    121          8           0        7.992354   -3.073410   -3.016547
    122          8           0        6.296538   -4.537745   -3.696603
    123          6           0        7.352511   -5.572331   -3.858941
    124          1           0        3.569037   -2.562719    3.393283
    125          1           0        4.511450    3.595974    3.833506
    126          1           0        5.502482    3.942939   -2.357795
    127          1           0        4.461539   -4.329759   -1.129466
    128          1           0        4.192795   -4.396510    1.674172
    129          1           0        2.363705   -3.507136   -0.517532
    130          1           0        2.114071   -2.688726    1.038805
    131          1           0        1.965532   -4.419302    0.987088
    132          1           0        6.508576   -4.300967    1.100911
    133          1           0        7.093644   -4.155933   -0.596699
    134          1           0        5.333318   -6.389650   -0.457802
    135          1           0        6.125515   -6.352343    1.077104
    136          1           0        3.878089   -2.321865    5.463833
    137          1           0        3.346847   -1.022651    6.478237
    138          1           0        5.062339   -1.489165    6.557074
    139          1           0        4.072575    0.737274    7.640715
    140          1           0        5.185679    2.112379    8.203555
    141          1           0        5.809706    0.615159    7.453675
    142          1           0        5.277298    5.426345    2.232604
    143          1           0        4.199579    5.443163   -0.541389
    144          1           0        3.252500    6.394943    2.534509
    145          1           0        2.516902    4.798708    2.151164
    146          1           0        2.742867    5.927764    0.914321
    147          1           0        6.034914    6.971876    0.274930
    148          1           0        6.340262    6.209061   -1.274216
    149          1           0        7.438838    5.759079    1.403987
    150          1           0        8.344577    5.872438   -0.148950
    151          1           0        7.470741    4.351266    0.337639
    152          1           0        6.555607    2.020803   -5.290451
    153          1           0        5.861197    3.398038   -4.375462
    154          1           0        4.749399    2.138048   -5.045234
    155          1           0        4.754537   -2.748096   -3.486324
    156          1           0        7.233609   -5.995718   -4.861079
    157          1           0        7.229166   -6.262003   -3.002850
    158          1           0        8.382351   -5.236475   -3.892070
 ---------------------------------------------------------------------

 SCF Done:  E(RCAM-B3LYP) =  -4069.81237886     A.U. after   19 cycles

 Excitation energies and oscillator strengths:

 Excited State   1:      Singlet-A      1.6726 eV  741.27 nm  f=0.3228  <S**2>=0.000
     310 -> 316        0.16295
     311 -> 313       -0.22022
     312 -> 314        0.64981
 This state for optimization and/or second-order correction.
 Total Energy, E(TD-HF/TD-DFT) =  -4069.75091235
 Copying the excited state density for this state as the 1-particle RhoCI density.

 Excited State   2:      Singlet-A      1.6784 eV  738.69 nm  f=0.3792  <S**2>=0.000
     309 -> 315        0.16608
     311 -> 313        0.64932
     312 -> 314        0.21996

 Excited State   3:      Singlet-A      2.1844 eV  567.58 nm  f=0.0979  <S**2>=0.000
     310 -> 314        0.63671
     312 -> 316       -0.26814

 Excited State   4:      Singlet-A      2.1930 eV  565.37 nm  f=0.0998  <S**2>=0.000
     309 -> 313        0.63453
     311 -> 315       -0.27564

 Excited State   5:      Singlet-A      2.4756 eV  500.82 nm  f=0.0000  <S**2>=0.000
     312 -> 313        0.70709

 The electronic state is 1-A.
 Alpha  occ. eigenvalues --  -46.87896 -46.87479 -19.26519 -19.26178 -19.19263
 Alpha  occ. eigenvalues --  -19.18993 -19.18905 -19.18602 -19.18315 -19.17895
 Alpha  occ. eigenvalues --  -14.42553 -14.42288 -14.41540 -14.41188 -14.39501
 Alpha  occ. eigenvalues --  -14.39175 -14.38694 -14.38424 -10.39311 -10.38921
 Alpha  occ. eigenvalues --  -10.35537 -10.35282 -10.34538 -10.34069 -10.31941
 Alpha  occ. eigenvalues --  -10.31590 -10.31517 -10.31078 -10.31019 -10.30811
 Alpha  occ. eigenvalues --  -10.30678 -10.30609 -10.30282 -10.30238 -10.30175
 Alpha  occ. eigenvalues --  -10.30012 -10.29978 -10.29744 -10.29734 -10.29346
 Alpha  occ. eigenvalues --  -10.29262 -10.29241 -10.28880 -10.28711 -10.28475
 Alpha  occ. eigenvalues --  -10.28432 -10.28399 -10.28231 -10.28223 -10.27899
 Alpha  occ. eigenvalues --  -10.27829 -10.27825 -10.27786 -10.27684 -10.27556
 Alpha  occ. eigenvalues --  -10.27542 -10.27517 -10.27501 -10.27442 -10.27398
 Alpha  occ. eigenvalues --  -10.27317 -10.27309 -10.27296 -10.27296 -10.27275
 Alpha  occ. eigenvalues --  -10.26874 -10.26865 -10.26490 -10.26444 -10.26337
 Alpha  occ. eigenvalues --  -10.26330 -10.26188 -10.26105 -10.26037 -10.25949
 Alpha  occ. eigenvalues --  -10.25765 -10.25712 -10.25482 -10.25478 -10.25343
 Alpha  occ. eigenvalues --  -10.24947 -10.24882 -10.24703 -10.24679 -10.24635
 Alpha  occ. eigenvalues --  -10.24531  -3.16639  -3.16229  -1.91521  -1.91111
 Alpha  occ. eigenvalues --   -1.91107  -1.90950  -1.90699  -1.90537  -1.16868
 Alpha  occ. eigenvalues --   -1.16472  -1.08782  -1.08503  -1.07305  -1.06881
 Alpha  occ. eigenvalues --   -1.06859  -1.06778  -1.04687  -1.04288  -1.03855
 Alpha  occ. eigenvalues --   -1.03481  -1.03334  -1.02870  -1.02510  -1.01936
 Alpha  occ. eigenvalues --   -0.92095  -0.91803  -0.89590  -0.89346  -0.89309
 Alpha  occ. eigenvalues --   -0.88849  -0.88353  -0.88087  -0.87978  -0.87776
 Alpha  occ. eigenvalues --   -0.87628  -0.87480  -0.87365  -0.86970  -0.85102
 Alpha  occ. eigenvalues --   -0.84754  -0.84002  -0.83755  -0.83046  -0.82808
 Alpha  occ. eigenvalues --   -0.82767  -0.82434  -0.81743  -0.81419  -0.80721
 Alpha  occ. eigenvalues --   -0.80265  -0.78893  -0.78470  -0.77315  -0.77060
 Alpha  occ. eigenvalues --   -0.76951  -0.76684  -0.76053  -0.75590  -0.74978
 Alpha  occ. eigenvalues --   -0.74662  -0.72873  -0.72519  -0.71775  -0.71377
 Alpha  occ. eigenvalues --   -0.69950  -0.69631  -0.68989  -0.68598  -0.67752
 Alpha  occ. eigenvalues --   -0.67435  -0.67345  -0.66994  -0.65412  -0.65039
 Alpha  occ. eigenvalues --   -0.64976  -0.64734  -0.64589  -0.64456  -0.64344
 Alpha  occ. eigenvalues --   -0.64056  -0.62463  -0.62109  -0.60529  -0.60193
 Alpha  occ. eigenvalues --   -0.59920  -0.59542  -0.59093  -0.58815  -0.58615
 Alpha  occ. eigenvalues --   -0.58254  -0.57746  -0.57407  -0.57382  -0.57090
 Alpha  occ. eigenvalues --   -0.56424  -0.56156  -0.56027  -0.55704  -0.55628
 Alpha  occ. eigenvalues --   -0.55444  -0.55284  -0.55106  -0.54649  -0.54343
 Alpha  occ. eigenvalues --   -0.54020  -0.53630  -0.53398  -0.53342  -0.53067
 Alpha  occ. eigenvalues --   -0.53054  -0.52954  -0.52856  -0.52711  -0.52479
 Alpha  occ. eigenvalues --   -0.52475  -0.52281  -0.52028  -0.51742  -0.51733
 Alpha  occ. eigenvalues --   -0.51437  -0.51310  -0.51026  -0.50651  -0.50332
 Alpha  occ. eigenvalues --   -0.50095  -0.50010  -0.49802  -0.49703  -0.49631
 Alpha  occ. eigenvalues --   -0.49336  -0.49286  -0.49218  -0.49009  -0.48842
 Alpha  occ. eigenvalues --   -0.48731  -0.48565  -0.48538  -0.48345  -0.48250
 Alpha  occ. eigenvalues --   -0.48186  -0.47799  -0.47402  -0.47397  -0.46955
 Alpha  occ. eigenvalues --   -0.46892  -0.46682  -0.46525  -0.46463  -0.46299
 Alpha  occ. eigenvalues --   -0.46270  -0.46107  -0.45963  -0.45936  -0.45641
 Alpha  occ. eigenvalues --   -0.45273  -0.45077  -0.44711  -0.44602  -0.44347
 Alpha  occ. eigenvalues --   -0.44253  -0.44247  -0.44192  -0.44137  -0.43936
 Alpha  occ. eigenvalues --   -0.43880  -0.43767  -0.43645  -0.43487  -0.43378
 Alpha  occ. eigenvalues --   -0.43179  -0.43136  -0.42893  -0.42761  -0.42724
 Alpha  occ. eigenvalues --   -0.42722  -0.42415  -0.42096  -0.41817  -0.41797
 Alpha  occ. eigenvalues --   -0.41650  -0.41489  -0.41245  -0.41239  -0.40973
 Alpha  occ. eigenvalues --   -0.40919  -0.40768  -0.40642  -0.40568  -0.40486
 Alpha  occ. eigenvalues --   -0.40371  -0.40306  -0.39990  -0.39476  -0.39302
 Alpha  occ. eigenvalues --   -0.38541  -0.38199  -0.37885  -0.37429  -0.37398
 Alpha  occ. eigenvalues --   -0.37389  -0.37099  -0.36974  -0.36899  -0.36609
 Alpha  occ. eigenvalues --   -0.36316  -0.36048  -0.34391  -0.34071  -0.33991
 Alpha  occ. eigenvalues --   -0.33693  -0.33295  -0.32997  -0.31435  -0.31160
 Alpha  occ. eigenvalues --   -0.31141  -0.30789  -0.30178  -0.29798  -0.29551
 Alpha  occ. eigenvalues --   -0.29433  -0.29168  -0.29046  -0.24184  -0.23852
 Alpha  occ. eigenvalues --   -0.21226  -0.20934
 Alpha virt. eigenvalues --   -0.08876  -0.08619  -0.01844  -0.01512  -0.00161
 Alpha virt. eigenvalues --    0.00140   0.02081   0.02364   0.03009   0.03392
 Alpha virt. eigenvalues --    0.04604   0.04882   0.04954   0.05337   0.06024

 Mulliken charges:
               1
     1  Mg   0.838741
     2  C   -0.003571
     3  C   -0.094002
     4  C   -0.045701
     5  C   -0.063670
     6  N   -0.256858
     7  C   -0.052576
     8  C   -0.014068
     9  C   -0.087061
    10  C    0.046347
    11  C    0.104734
    12  C    0.053465
    13  C   -0.071479
    14  H    0.034527
    15  N   -0.433206
    16  C    0.168611
    17  C   -0.176891
    18  C   -0.003811
    19  C    0.148808
    20  C    0.110061
    21  C    0.012244
    22  O   -0.249401
    23  C    0.062422
    24  N   -0.341181
    25  C    0.041454
    26  C   -0.028257
    27  C   -0.024067
    28  C    0.074850
    29  C    0.076085
    30  C    0.035026
    31  C   -0.004767
    32  N   -0.310273
    33  C    0.080081
    34  C   -0.170041
    35  C    0.007958
    36  C    0.082591
    37  C    0.127450
    38  C    0.045365
    39  O   -0.189266
    40  C   -0.005108
    41  C    0.213022
    42  O   -0.259004
    43  O   -0.304193
    44  C    0.158215
    45  H   -0.017359
    46  H   -0.016520
    47  H   -0.041077
    48  H    0.000836
    49  H   -0.003848
    50  H    0.025470
    51  H    0.016699
    52  H    0.016893
    53  H    0.011706
    54  H    0.042903
    55  H    0.018207
    56  H    0.018608
    57  H    0.006068
    58  H    0.027066
    59  H    0.040057
    60  H    0.037619
    61  H    0.035651
    62  H    0.031561
    63  H    0.016850
    64  H    0.009653
    65  H    0.023536
    66  H    0.012428
    67  H    0.005028
    68  H    0.007001
    69  H    0.005086
    70  H    0.008773
    71  H    0.019722
    72  H    0.028130
    73  H    0.046751
    74  H    0.009660
    75  H    0.046209
    76  H    0.035431
    77  H    0.043141
    78  H    0.046721
    79  H    0.051734
    80  Mg   0.837778
    81  C   -0.016891
    82  C   -0.087052
    83  C   -0.046119
    84  C   -0.065018
    85  N   -0.254830
    86  C   -0.049150
    87  C   -0.015270
    88  C   -0.090401
    89  C    0.045541
    90  C    0.113870
    91  C    0.062429
    92  C   -0.077740
    93  H    0.033707
    94  N   -0.423544
    95  C    0.162751
    96  C   -0.174061
    97  C   -0.008533
    98  C    0.152535
    99  C    0.099328
   100  C    0.015160
   101  O   -0.254106
   102  C    0.061359
   103  N   -0.350054
   104  C    0.037607
   105  C   -0.019698
   106  C   -0.034903
   107  C    0.088851
   108  C    0.073888
   109  C    0.034887
   110  C   -0.007571
   111  N   -0.324027
   112  C    0.078358
   113  C   -0.163458
   114  C    0.002076
   115  C    0.096184
   116  C    0.131586
   117  C    0.041949
   118  O   -0.188644
   119  C    0.001180
   120  C    0.211233
   121  O   -0.251285
   122  O   -0.305407
   123  C    0.152182
   124  H   -0.017042
   125  H   -0.016584
   126  H   -0.040813
   127  H   -0.000135
   128  H   -0.004255
   129  H    0.021816
   130  H    0.016140
   131  H    0.022166
   132  H    0.013503
   133  H    0.036925
   134  H    0.021860
   135  H    0.019838
   136  H    0.009967
   137  H    0.025790
   138  H    0.039183
   139  H    0.037971
   140  H    0.035579
   141  H    0.034000
   142  H    0.013930
   143  H    0.012594
   144  H    0.023933
   145  H    0.011148
   146  H    0.005550
   147  H    0.005617
   148  H    0.003658
   149  H    0.010565
   150  H    0.017622
   151  H    0.030438
   152  H    0.045557
   153  H    0.008317
   154  H    0.046615
   155  H    0.035233
   156  H    0.043475
   157  H    0.049972
   158  H    0.053191
 Sum of Mulliken charges =  -0.00000

 Dipole moment (field-independent basis, Debye):
    X=             -5.0873    Y=              1.3652    Z=              4.9893  Tot=              7.2552
 Quadrupole moment (field-independent basis, Debye-Ang):
   XX=           -519.0257   YY=           -505.4665   ZZ=           -494.4825
   XY=            -25.1022   XZ=              3.7280   YZ=             -7.5949

 Normal termination of Gaussian 16 at Sat Sep 11 02:19:53 2021.
