 Gaussian 16, Revision A.03,
 Gaussian 16:  ES64L-G16RevA.03 25-Dec-2016

 -----------------------------------
 #p cam-b3lyp/Def2SVP td=(nstates=5)
 -----------------------------------

 --------------------------------
 TDDFT excited states in gaussian
 --------------------------------
 Symbolic Z-matrix:
 Charge =  0 Multiplicity = 1

                         Standard orientation:
 ---------------------------------------------------------------------
 Center     Atomic      Atomic             Coordinates (Angstroms)
 Number     Number       Type             X           Y           Z
 ---------------------------------------------------------------------
      1         12           0        5.113762   -1.066292    0.292560
      2          6           0        5.773650    1.658480   -1.932833
      3          6           0        6.465939    0.834776    2.782665
      4          6           0        4.959223   -3.614671    2.173652
      5          6           0        4.880349   -3.112679   -2.518753
      6          7           0        5.974583    0.973212    0.299955
      7          6           0        6.113746    1.935291   -0.606803
      8          6           0        6.584479    3.291479   -0.001378
      9          6           0        7.292283    2.745610    1.318863
     10          6           0        6.508264    1.457820    1.500067
     11          6           0        8.764985    2.400558    1.122426
     12          6           0        5.385029    4.237912    0.341138
     13          6           0        5.762904    5.694079    0.627740
     14          1           0        4.857338    6.749736    0.200086
     15          7           0        5.175710   -1.210712    2.261863
     16          6           0        5.753600   -0.336332    3.120228
     17          6           0        5.531291   -0.887272    4.474379
     18          6           0        4.943623   -2.247186    4.321501
     19          6           0        5.028056   -2.424736    2.894362
     20          6           0        5.821212   -0.124814    5.730705
     21          6           0        4.402921   -3.234890    5.306496
     22          8           0        4.155166   -4.447851    4.987252
     23          6           0        4.252275   -2.762888    6.694862
     24          7           0        5.161318   -3.118039   -0.089158
     25          6           0        5.017134   -4.007374    0.899417
     26          6           0        4.800638   -5.390915    0.361938
     27          6           0        4.583429   -5.225023   -1.211292
     28          6           0        4.806901   -3.696492   -1.320490
     29          6           0        5.934609   -6.393276    0.617656
     30          6           0        3.286335   -5.825380   -1.809238
     31          6           0        2.085101   -5.058661   -1.303001
     32          7           0        5.113853   -0.778598   -1.858783
     33          6           0        5.027724   -1.774288   -2.842581
     34          6           0        5.177482   -1.105670   -4.148181
     35          6           0        5.358076    0.239035   -3.830376
     36          6           0        5.349568    0.396479   -2.414950
     37          6           0        5.195581   -1.749404   -5.416925
     38          6           0        5.580874    1.575978   -4.356496
     39          8           0        5.587969    2.074535   -5.482944
     40          6           0        5.980533    2.530564   -3.146181
     41          6           0        5.153459    3.781900   -3.262011
     42          8           0        3.916560    3.748516   -3.099736
     43          8           0        5.965737    4.848951   -3.308360
     44          6           0        5.207536    6.125656   -3.393863
     45          1           0        7.078824    1.243439    3.588461
     46          1           0        4.794199   -4.506645    2.781589
     47          1           0        4.733885   -3.674854   -3.442853
     48          1           0        7.304858    3.836142   -0.611968
     49          1           0        7.133933    3.408507    2.169284
     50          1           0        9.052739    2.464949    0.073153
     51          1           0        8.875397    1.378535    1.485428
     52          1           0        9.395990    3.016209    1.763974
     53          1           0        4.972621    3.958971    1.310763
     54          1           0        4.633291    4.209221   -0.448415
     55          1           0        6.782035    5.911909    0.307067
     56          1           0        5.782906    5.835392    1.708402
     57          1           0        6.398730    0.776273    5.528072
     58          1           0        6.486090   -0.743940    6.332643
     59          1           0        4.914965    0.097144    6.294427
     60          1           0        5.222490   -2.439007    7.072134
     61          1           0        3.769472   -3.574697    7.237741
     62          1           0        3.611226   -1.880859    6.700338
     63          1           0        3.912718   -5.845773    0.799118
     64          1           0        5.382764   -5.693272   -1.786166
     65          1           0        5.614909   -7.289818    1.149360
     66          1           0        6.724688   -5.876678    1.161892
     67          1           0        6.465374   -6.720731   -0.275921
     68          1           0        3.164738   -6.859722   -1.489400
     69          1           0        3.267957   -5.810884   -2.899056
     70          1           0        1.889114   -5.523202   -0.337276
     71          1           0        1.238542   -5.189051   -1.977944
     72          1           0        2.329696   -4.012556   -1.117739
     73          1           0        4.579200   -1.139478   -6.077253
     74          1           0        4.815305   -2.768438   -5.349372
     75          1           0        6.260713   -1.715476   -5.645395
     76          1           0        7.046348    2.733611   -3.245840
     77          1           0        5.564712    6.652436   -4.278827
     78          1           0        5.323699    6.620231   -2.429339
     79          1           0        4.144127    6.040521   -3.620253
     80         12           0       -5.273915    0.965936    0.654011
     81          6           0       -5.698654   -1.897973   -1.466537
     82          6           0       -4.148822    2.646420   -2.092758
     83          6           0       -4.465606    3.360187    2.572757
     84          6           0       -5.330600   -1.212709    3.373564
     85          7           0       -5.005018    0.346515   -1.452240
     86          6           0       -5.257938   -0.747949   -2.154037
     87          6           0       -5.102291   -0.577974   -3.689109
     88          6           0       -4.084986    0.664589   -3.691524
     89          6           0       -4.453886    1.285128   -2.345593
     90          6           0       -2.624738    0.246958   -3.640741
     91          6           0       -6.457422   -0.212239   -4.390436
     92          6           0       -6.445566   -0.334334   -5.915796
     93          1           0       -7.660628   -0.787363   -6.587248
     94          7           0       -4.899792    2.871069    0.242835
     95          6           0       -4.471870    3.381360   -0.930944
     96          6           0       -4.328697    4.829023   -0.711950
     97          6           0       -4.548754    5.108879    0.733026
     98          6           0       -4.627770    3.758872    1.253933
     99          6           0       -4.090940    5.801592   -1.830439
    100          6           0       -4.655908    6.380923    1.518267
    101          8           0       -4.610084    6.387408    2.799164
    102          6           0       -4.722137    7.627334    0.741381
    103          7           0       -4.733372    1.044367    2.659996
    104          6           0       -4.482567    2.219721    3.262956
    105          6           0       -4.385822    2.054668    4.760887
    106          6           0       -4.865705    0.558762    5.060156
    107          6           0       -5.081298    0.067624    3.611815
    108          6           0       -2.999677    2.274911    5.366261
    109          6           0       -6.023283    0.381883    6.080650
    110          6           0       -7.303953    0.949057    5.511811
    111          7           0       -5.658853   -1.138940    0.952952
    112          6           0       -5.604308   -1.851489    2.170888
    113          6           0       -5.828617   -3.276436    1.852067
    114          6           0       -5.976375   -3.297215    0.456998
    115          6           0       -5.832778   -1.981113   -0.059460
    116          6           0       -5.826345   -4.348695    2.788217
    117          6           0       -6.210597   -4.134758   -0.697293
    118          8           0       -6.491123   -5.320507   -0.867636
    119          6           0       -5.915397   -3.284118   -2.007126
    120          6           0       -7.057518   -3.492515   -2.963496
    121          8           0       -8.199040   -3.086619   -2.682788
    122          8           0       -6.573725   -3.938706   -4.137051
    123          6           0       -7.667670   -4.149953   -5.122184
    124          1           0       -3.569929    3.195118   -2.836201
    125          1           0       -4.294981    4.165340    3.291152
    126          1           0       -5.460359   -1.941424    4.176566
    127          1           0       -4.656255   -1.424665   -4.196984
    128          1           0       -4.305398    1.353940   -4.502432
    129          1           0       -2.514919   -0.816932   -3.491682
    130          1           0       -2.191595    0.791786   -2.812137
    131          1           0       -2.101848    0.594666   -4.536292
    132          1           0       -6.633020    0.866537   -4.289662
    133          1           0       -7.263929   -0.793568   -3.987651
    134          1           0       -5.574847   -0.894528   -6.277707
    135          1           0       -6.318714    0.663452   -6.342814
    136          1           0       -3.808259    5.287406   -2.757322
    137          1           0       -3.204086    6.386149   -1.562771
    138          1           0       -4.930877    6.482962   -1.981823
    139          1           0       -3.835986    7.711049    0.116733
    140          1           0       -4.885636    8.420021    1.474046
    141          1           0       -5.581045    7.571717    0.063301
    142          1           0       -5.047987    2.744541    5.269530
    143          1           0       -4.054476   -0.052711    5.481868
    144          1           0       -2.984156    3.057704    6.147973
    145          1           0       -2.313510    2.521929    4.567084
    146          1           0       -2.539314    1.389062    5.800480
    147          1           0       -5.812929    0.944915    6.993281
    148          1           0       -6.189858   -0.650292    6.370221
    149          1           0       -7.221389    2.017002    5.734904
    150          1           0       -8.169333    0.508941    6.003205
    151          1           0       -7.331861    0.841320    4.421276
    152          1           0       -6.664292   -4.984592    2.535273
    153          1           0       -5.897551   -3.983882    3.810760
    154          1           0       -4.848635   -4.789964    2.576972
    155          1           0       -4.967888   -3.634226   -2.418494
    156          1           0       -7.593079   -5.186559   -5.465049
    157          1           0       -7.541369   -3.357279   -5.883410
    158          1           0       -8.686390   -4.121893   -4.753584
 ---------------------------------------------------------------------

 SCF Done:  E(RCAM-B3LYP) =  -4069.81228835     A.U. after   19 cycles

 Excitation energies and oscillator strengths:

 Excited State   1:      Singlet-A      1.6699 eV  742.47 nm  f=0.2725  <S**2>=0.000
     309 -> 315        0.10036
     310 -> 316        0.13952
     311 -> 313        0.39727
     312 -> 314        0.55944
 This state for optimization and/or second-order correction.
 Total Energy, E(TD-HF/TD-DFT) =  -4069.75092090
 Copying the excited state density for this state as the 1-particle RhoCI density.

 Excited State   2:      Singlet-A      1.6819 eV  737.16 nm  f=0.4286  <S**2>=0.000
     309 -> 315        0.14347
     310 -> 316       -0.10132
     311 -> 313        0.55884
     312 -> 314       -0.39703

 Excited State   3:      Singlet-A      2.1856 eV  567.28 nm  f=0.0966  <S**2>=0.000
     310 -> 314        0.64040
     312 -> 316       -0.27093

 Excited State   4:      Singlet-A      2.1926 eV  565.47 nm  f=0.1005  <S**2>=0.000
     309 -> 313        0.63863
     311 -> 315       -0.27696

 Excited State   5:      Singlet-A      2.4774 eV  500.46 nm  f=0.0000  <S**2>=0.000
     312 -> 313        0.70709

 The electronic state is 1-A.
 Alpha  occ. eigenvalues --  -46.87893 -46.87486 -19.26481 -19.26216 -19.19227
 Alpha  occ. eigenvalues --  -19.19022 -19.18901 -19.18584 -19.18313 -19.17899
 Alpha  occ. eigenvalues --  -14.42546 -14.42304 -14.41538 -14.41196 -14.39498
 Alpha  occ. eigenvalues --  -14.39177 -14.38693 -14.38429 -10.39276 -10.38950
 Alpha  occ. eigenvalues --  -10.35533 -10.35263 -10.34534 -10.34077 -10.31891
 Alpha  occ. eigenvalues --  -10.31634 -10.31511 -10.31098 -10.31006 -10.30825
 Alpha  occ. eigenvalues --  -10.30678 -10.30609 -10.30282 -10.30242 -10.30178
 Alpha  occ. eigenvalues --  -10.30012 -10.29982 -10.29755 -10.29736 -10.29347
 Alpha  occ. eigenvalues --  -10.29258 -10.29237 -10.28851 -10.28640 -10.28485
 Alpha  occ. eigenvalues --  -10.28471 -10.28452 -10.28226 -10.28211 -10.27901
 Alpha  occ. eigenvalues --  -10.27851 -10.27826 -10.27821 -10.27685 -10.27563
 Alpha  occ. eigenvalues --  -10.27548 -10.27510 -10.27499 -10.27448 -10.27420
 Alpha  occ. eigenvalues --  -10.27308 -10.27303 -10.27300 -10.27294 -10.27242
 Alpha  occ. eigenvalues --  -10.26896 -10.26811 -10.26493 -10.26486 -10.26321
 Alpha  occ. eigenvalues --  -10.26296 -10.26204 -10.26109 -10.26060 -10.25977
 Alpha  occ. eigenvalues --  -10.25772 -10.25700 -10.25614 -10.25474 -10.25371
 Alpha  occ. eigenvalues --  -10.24948 -10.24878 -10.24702 -10.24699 -10.24653
 Alpha  occ. eigenvalues --  -10.24536  -3.16636  -3.16236  -1.91518  -1.91118
 Alpha  occ. eigenvalues --   -1.91104  -1.90946  -1.90706  -1.90544  -1.16830
 Alpha  occ. eigenvalues --   -1.16508  -1.08778  -1.08511  -1.07300  -1.06845
 Alpha  occ. eigenvalues --   -1.06840  -1.06807  -1.04680  -1.04302  -1.03852
 Alpha  occ. eigenvalues --   -1.03489  -1.03333  -1.02876  -1.02509  -1.01942
 Alpha  occ. eigenvalues --   -0.92088  -0.91815  -0.89593  -0.89358  -0.89285
 Alpha  occ. eigenvalues --   -0.88901  -0.88353  -0.88103  -0.87986  -0.87767
 Alpha  occ. eigenvalues --   -0.87627  -0.87494  -0.87367  -0.86949  -0.85081
 Alpha  occ. eigenvalues --   -0.84788  -0.84003  -0.83772  -0.83047  -0.82792
 Alpha  occ. eigenvalues --   -0.82751  -0.82459  -0.81725  -0.81440  -0.80711
 Alpha  occ. eigenvalues --   -0.80279  -0.78896  -0.78459  -0.77308  -0.77041
 Alpha  occ. eigenvalues --   -0.76964  -0.76721  -0.76038  -0.75627  -0.74974
 Alpha  occ. eigenvalues --   -0.74682  -0.72873  -0.72526  -0.71767  -0.71403
 Alpha  occ. eigenvalues --   -0.69957  -0.69650  -0.68973  -0.68626  -0.67745
 Alpha  occ. eigenvalues --   -0.67441  -0.67319  -0.67015  -0.65392  -0.65071
 Alpha  occ. eigenvalues --   -0.64966  -0.64722  -0.64603  -0.64481  -0.64344
 Alpha  occ. eigenvalues --   -0.64071  -0.62443  -0.62132  -0.60529  -0.60185
 Alpha  occ. eigenvalues --   -0.59905  -0.59575  -0.59087  -0.58828  -0.58609
 Alpha  occ. eigenvalues --   -0.58265  -0.57731  -0.57404  -0.57400  -0.57096
 Alpha  occ. eigenvalues --   -0.56421  -0.56130  -0.56029  -0.55728  -0.55623
 Alpha  occ. eigenvalues --   -0.55437  -0.55289  -0.55126  -0.54637  -0.54366
 Alpha  occ. eigenvalues --   -0.53996  -0.53677  -0.53397  -0.53329  -0.53071
 Alpha  occ. eigenvalues --   -0.53039  -0.52968  -0.52849  -0.52727  -0.52488
 Alpha  occ. eigenvalues --   -0.52480  -0.52298  -0.52042  -0.51729  -0.51724
 Alpha  occ. eigenvalues --   -0.51460  -0.51304  -0.51041  -0.50654  -0.50310
 Alpha  occ. eigenvalues --   -0.50094  -0.50007  -0.49811  -0.49715  -0.49618
 Alpha  occ. eigenvalues --   -0.49330  -0.49303  -0.49202  -0.49017  -0.48888
 Alpha  occ. eigenvalues --   -0.48717  -0.48557  -0.48537  -0.48371  -0.48262
 Alpha  occ. eigenvalues --   -0.48182  -0.47790  -0.47416  -0.47392  -0.46954
 Alpha  occ. eigenvalues --   -0.46888  -0.46659  -0.46541  -0.46460  -0.46339
 Alpha  occ. eigenvalues --   -0.46268  -0.46110  -0.45955  -0.45949  -0.45662
 Alpha  occ. eigenvalues --   -0.45272  -0.45093  -0.44704  -0.44592  -0.44359
 Alpha  occ. eigenvalues --   -0.44273  -0.44240  -0.44180  -0.44130  -0.43942
 Alpha  occ. eigenvalues --   -0.43920  -0.43772  -0.43632  -0.43474  -0.43403
 Alpha  occ. eigenvalues --   -0.43205  -0.43130  -0.42865  -0.42786  -0.42743
 Alpha  occ. eigenvalues --   -0.42724  -0.42423  -0.42091  -0.41818  -0.41810
 Alpha  occ. eigenvalues --   -0.41628  -0.41505  -0.41270  -0.41235  -0.40956
 Alpha  occ. eigenvalues --   -0.40908  -0.40796  -0.40641  -0.40564  -0.40517
 Alpha  occ. eigenvalues --   -0.40341  -0.40332  -0.40029  -0.39483  -0.39321
 Alpha  occ. eigenvalues --   -0.38535  -0.38222  -0.37851  -0.37459  -0.37396
 Alpha  occ. eigenvalues --   -0.37370  -0.37117  -0.36999  -0.36872  -0.36638
 Alpha  occ. eigenvalues --   -0.36305  -0.36071  -0.34387  -0.34082  -0.33960
 Alpha  occ. eigenvalues --   -0.33717  -0.33292  -0.33003  -0.31430  -0.31144
 Alpha  occ. eigenvalues --   -0.31135  -0.30800  -0.30175  -0.29805  -0.29551
 Alpha  occ. eigenvalues --   -0.29435  -0.29159  -0.29044  -0.24180  -0.23860
 Alpha  occ. eigenvalues --   -0.21225  -0.20941
 Alpha virt. eigenvalues --   -0.08875  -0.08619  -0.01841  -0.01518  -0.00157
 Alpha virt. eigenvalues --    0.00144   0.02081   0.02360   0.03011   0.03387
 Alpha virt. eigenvalues --    0.04622   0.04913   0.04930   0.05309   0.06071

 Mulliken charges:
               1
     1  Mg   0.838717
     2  C   -0.003351
     3  C   -0.093967
     4  C   -0.045676
     5  C   -0.063932
     6  N   -0.256873
     7  C   -0.052446
     8  C   -0.014116
     9  C   -0.087069
    10  C    0.046478
    11  C    0.104746
    12  C    0.053407
    13  C   -0.071787
    14  H    0.035604
    15  N   -0.433193
    16  C    0.168641
    17  C   -0.176963
    18  C   -0.003824
    19  C    0.148876
    20  C    0.110102
    21  C    0.012342
    22  O   -0.249116
    23  C    0.062468
    24  N   -0.341178
    25  C    0.041437
    26  C   -0.028327
    27  C   -0.024021
    28  C    0.074853
    29  C    0.076050
    30  C    0.035010
    31  C   -0.004581
    32  N   -0.310221
    33  C    0.080029
    34  C   -0.170464
    35  C    0.007913
    36  C    0.082548
    37  C    0.127541
    38  C    0.045276
    39  O   -0.189387
    40  C   -0.005043
    41  C    0.212906
    42  O   -0.258625
    43  O   -0.304302
    44  C    0.158144
    45  H   -0.017322
    46  H   -0.016373
    47  H   -0.041453
    48  H    0.000831
    49  H   -0.003717
    50  H    0.025453
    51  H    0.016585
    52  H    0.016930
    53  H    0.011790
    54  H    0.043300
    55  H    0.017924
    56  H    0.018639
    57  H    0.006155
    58  H    0.027117
    59  H    0.039719
    60  H    0.037587
    61  H    0.035816
    62  H    0.031184
    63  H    0.017144
    64  H    0.009578
    65  H    0.023739
    66  H    0.012430
    67  H    0.004947
    68  H    0.007328
    69  H    0.004491
    70  H    0.009718
    71  H    0.018615
    72  H    0.027989
    73  H    0.046332
    74  H    0.009246
    75  H    0.046277
    76  H    0.035410
    77  H    0.042959
    78  H    0.046956
    79  H    0.052053
    80  Mg   0.837938
    81  C   -0.016821
    82  C   -0.086743
    83  C   -0.045834
    84  C   -0.065042
    85  N   -0.254664
    86  C   -0.049565
    87  C   -0.015188
    88  C   -0.090307
    89  C    0.045149
    90  C    0.113700
    91  C    0.062448
    92  C   -0.077700
    93  H    0.033939
    94  N   -0.423686
    95  C    0.162605
    96  C   -0.173201
    97  C   -0.008341
    98  C    0.152681
    99  C    0.099003
   100  C    0.015402
   101  O   -0.254126
   102  C    0.061269
   103  N   -0.350032
   104  C    0.037593
   105  C   -0.019689
   106  C   -0.034768
   107  C    0.088783
   108  C    0.074069
   109  C    0.034914
   110  C   -0.007564
   111  N   -0.323994
   112  C    0.078194
   113  C   -0.163362
   114  C    0.002077
   115  C    0.096084
   116  C    0.131557
   117  C    0.042054
   118  O   -0.188662
   119  C    0.001070
   120  C    0.211291
   121  O   -0.251167
   122  O   -0.305658
   123  C    0.152142
   124  H   -0.016269
   125  H   -0.016469
   126  H   -0.040918
   127  H   -0.000918
   128  H   -0.003916
   129  H    0.020976
   130  H    0.017095
   131  H    0.019985
   132  H    0.013806
   133  H    0.037093
   134  H    0.021091
   135  H    0.020043
   136  H    0.010448
   137  H    0.027061
   138  H    0.039112
   139  H    0.038495
   140  H    0.035559
   141  H    0.033929
   142  H    0.013989
   143  H    0.011975
   144  H    0.024025
   145  H    0.011665
   146  H    0.004511
   147  H    0.005407
   148  H    0.003573
   149  H    0.010605
   150  H    0.017633
   151  H    0.030558
   152  H    0.045511
   153  H    0.008160
   154  H    0.047101
   155  H    0.034701
   156  H    0.043393
   157  H    0.049789
   158  H    0.053359
 Sum of Mulliken charges =  -0.00000

 Dipole moment (field-independent basis, Debye):
    X=              5.0158    Y=              3.6424    Z=              1.5481  Tot=              6.3892
 Quadrupole moment (field-independent basis, Debye-Ang):
   XX=           -520.2887   YY=           -512.8657   ZZ=           -486.1399
   XY=            -11.1274   XZ=             34.4680   YZ=              8.9028

 Normal termination of Gaussian 16 at Sat Sep  4 01:16:45 2021.
