 Gaussian 16, Revision A.03,
 Gaussian 16:  ES64L-G16RevA.03 25-Dec-2016

 -----------------------------------
 #p cam-b3lyp/Def2SVP td=(nstates=5)
 -----------------------------------

 --------------------------------
 TDDFT excited states in gaussian
 --------------------------------
 Symbolic Z-matrix:
 Charge =  0 Multiplicity = 1

                         Standard orientation:
 ---------------------------------------------------------------------
 Center     Atomic      Atomic             Coordinates (Angstroms)
 Number     Number       Type             X           Y           Z
 ---------------------------------------------------------------------
      1         12           0      -15.794325   -0.763012    0.015285
      2          6           0      -15.996093    2.767901    0.566792
      3          6           0      -16.656122   -0.155060   -3.229829
      4          6           0      -16.066680   -3.896970   -0.385654
      5          6           0      -16.069555   -1.168615    3.465705
      6          7           0      -16.241619    1.111634   -1.073880
      7          6           0      -16.225465    2.403757   -0.761904
      8          6           0      -16.400487    3.339369   -1.995343
      9          6           0      -17.150335    2.328298   -2.973843
     10          6           0      -16.625145    1.016821   -2.416953
     11          6           0      -18.668375    2.351404   -2.827145
     12          6           0      -15.027930    3.801127   -2.590824
     13          6           0      -15.104583    4.965383   -3.582784
     14          1           0      -14.028045    5.944247   -3.598236
     15          7           0      -15.808523   -1.846893   -1.636336
     16          6           0      -16.172604   -1.432664   -2.873730
     17          6           0      -16.010441   -2.605113   -3.760154
     18          6           0      -15.704381   -3.784337   -2.903503
     19          6           0      -15.875686   -3.221272   -1.588592
     20          6           0      -16.098923   -2.526186   -5.253369
     21          6           0      -15.328955   -5.197527   -3.219860
     22          8           0      -15.333835   -6.117588   -2.332145
     23          6           0      -15.037012   -5.499071   -4.632971
     24          7           0      -16.253992   -2.326825    1.319443
     25          6           0      -16.247994   -3.597620    0.902275
     26          6           0      -16.324919   -4.551767    2.057102
     27          6           0      -16.139361   -3.667879    3.373940
     28          6           0      -16.065597   -2.270047    2.711449
     29          6           0      -17.621502   -5.365843    2.167401
     30          6           0      -15.007206   -4.083908    4.346341
     31          6           0      -13.661612   -3.857077    3.694403
     32          7           0      -15.819999    0.542667    1.748948
     33          6           0      -15.966267    0.160390    3.090270
     34          6           0      -16.032615    1.398874    3.887656
     35          6           0      -15.936363    2.422450    2.946980
     36          6           0      -15.843830    1.859371    1.642115
     37          6           0      -16.223466    1.474312    5.295605
     38          6           0      -15.914948    3.861176    2.738492
     39          8           0      -15.867708    4.844155    3.479445
     40          6           0      -16.075415    4.144016    1.179621
     41          6           0      -15.025990    5.148972    0.789644
     42          8           0      -13.813902    4.853842    0.822891
     43          8           0      -15.616656    6.209096    0.217113
     44          6           0      -14.628667    7.231264   -0.220157
     45          1           0      -17.146973   -0.108919   -4.203932
     46          1           0      -16.055181   -4.985796   -0.467883
     47          1           0      -16.070201   -1.217745    4.556135
     48          1           0      -17.023926    4.215558   -1.816345
     49          1           0      -16.834128    2.454053   -4.009180
     50          1           0      -18.977665    2.966544   -1.982240
     51          1           0      -18.961405    1.313223   -2.669649
     52          1           0      -19.142996    2.658578   -3.759431
     53          1           0      -14.641149    3.022461   -3.248197
     54          1           0      -14.326540    4.051777   -1.794235
     55          1           0      -16.073379    5.463749   -3.538336
     56          1           0      -15.055809    4.557571   -4.592492
     57          1           0      -16.497633   -1.566825   -5.580787
     58          1           0      -16.848129   -3.252936   -5.566791
     59          1           0      -15.146135   -2.750149   -5.733336
     60          1           0      -15.910824   -5.260747   -5.239769
     61          1           0      -14.700912   -6.535097   -4.656141
     62          1           0      -14.237084   -4.842357   -4.976178
     63          1           0      -15.526374   -5.290886    2.007547
     64          1           0      -17.035621   -3.665696    3.994734
     65          1           0      -17.462162   -6.444397    2.173458
     66          1           0      -18.274979   -5.071678    1.346593
     67          1           0      -18.239223   -5.126597    3.032618
     68          1           0      -15.076845   -5.146409    4.576969
     69          1           0      -15.027649   -3.537773    5.289511
     70          1           0      -13.523176   -4.760277    3.101194
     71          1           0      -12.882694   -3.764336    4.451963
     72          1           0      -13.691124   -3.014576    3.003166
     73          1           0      -15.525796    2.229237    5.657977
     74          1           0      -16.046124    0.510096    5.771462
     75          1           0      -17.269587    1.776578    5.341666
     76          1           0      -17.084472    4.527955    1.032940
     77          1           0      -14.909953    8.172386    0.252496
     78          1           0      -14.609921    7.197971   -1.309627
     79          1           0      -13.611409    7.109273    0.153533
     80         12           0       15.963266   -0.787233    0.134143
     81          6           0       15.760594    2.793469    0.005578
     82          6           0       15.099250   -0.805478   -3.165511
     83          6           0       15.692757   -3.942858    0.324690
     84          6           0       15.682420   -0.540033    3.599075
     85          7           0       15.514454    0.847210   -1.286916
     86          6           0       15.529229    2.170763   -1.238671
     87          6           0       15.361734    2.866500   -2.616158
     88          6           0       14.604090    1.682663   -3.392932
     89          6           0       15.127563    0.491378   -2.593252
     90          6           0       13.092956    1.733357   -3.240457
     91          6           0       16.739543    3.203958   -3.286814
     92          6           0       16.656937    4.155949   -4.482073
     93          1           0       17.740126    5.114086   -4.684920
     94          7           0       15.951658   -2.163853   -1.295313
     95          6           0       15.594133   -1.994193   -2.585529
     96          6           0       15.740219   -3.313246   -3.220297
     97          6           0       16.054983   -4.310891   -2.161827
     98          6           0       15.887844   -3.497078   -0.974459
     99          6           0       15.660220   -3.514809   -4.705688
    100          6           0       16.430221   -5.761099   -2.209699
    101          8           0       16.426328   -6.492718   -1.157302
    102          6           0       16.711840   -6.321860   -3.539262
    103          7           0       15.510638   -2.071259    1.705375
    104          6           0       15.510492   -3.404445    1.530599
    105          6           0       15.430268   -4.128029    2.853609
    106          6           0       15.621165   -3.000933    3.972002
    107          6           0       15.692699   -1.753354    3.064353
    108          6           0       14.132280   -4.891127    3.116843
    109          6           0       16.753892   -3.225089    5.010924
    110          6           0       18.101704   -3.138035    4.331810
    111          7           0       15.943380    0.815790    1.582582
    112          6           0       15.790070    0.699493    2.981529
    113          6           0       15.724825    2.070527    3.527827
    114          6           0       15.822367    2.895796    2.397371
    115          6           0       15.919774    2.095455    1.227126
    116          6           0       15.544532    2.412457    4.897747
    117          6           0       15.854393    4.261950    1.926976
    118          8           0       15.895119    5.366234    2.467945
    119          6           0       15.688558    4.256140    0.346201
    120          6           0       16.738619    5.163259   -0.234333
    121          8           0       17.945215    4.879728   -0.132519
    122          8           0       16.141514    6.096534   -0.997774
    123          6           0       17.142901    7.013550   -1.604521
    124          1           0       14.614456   -0.934919   -4.133554
    125          1           0       15.703303   -5.027140    0.457703
    126          1           0       15.693827   -0.377929    4.679014
    127          1           0       14.744971    3.757117   -2.603225
    128          1           0       14.928238    1.618856   -4.428409
    129          1           0       12.784359    2.490823   -2.535363
    130          1           0       12.799200    0.751330   -2.893509
    131          1           0       12.619545    1.861685   -4.218076
    132          1           0       17.123293    2.306013   -3.787974
    133          1           0       17.430655    3.591132   -2.563562
    134          1           0       15.683573    4.657780   -4.542836
    135          1           0       16.712049    3.565894   -5.400120
    136          1           0       15.254864   -2.629244   -5.210542
    137          1           0       14.911758   -4.294776   -4.882681
    138          1           0       16.610853   -3.832264   -5.139493
    139          1           0       15.839591   -6.196244   -4.176333
    140          1           0       17.048089   -7.344880   -3.359707
    141          1           0       17.522332   -5.744521   -3.997949
    142          1           0       16.228715   -4.853962    2.946400
    143          1           0       14.720578   -2.886505    4.593038
    144          1           0       14.292580   -5.965361    3.327579
    145          1           0       13.482266   -4.764317    2.261307
    146          1           0       13.523160   -4.499659    3.929817
    147          1           0       16.684728   -4.229491    5.435821
    148          1           0       16.726826   -2.523104    5.837654
    149          1           0       18.233996   -4.141539    3.916392
    150          1           0       18.880585   -2.904339    5.054840
    151          1           0       18.074380   -2.434441    3.491653
    152          1           0       16.235565    3.217033    5.111371
    153          1           0       15.716603    1.556610    5.547116
    154          1           0       14.493900    2.714665    4.886690
    155          1           0       14.678946    4.602183    0.121445
    156          1           0       16.858828    8.031034   -1.318688
    157          1           0       17.148533    6.776901   -2.685131
    158          1           0       18.158803    6.964590   -1.230359
 ---------------------------------------------------------------------

 SCF Done:  E(RCAM-B3LYP) =  -4069.81175727     A.U. after   19 cycles

 Excitation energies and oscillator strengths:

 Excited State   1:      Singlet-A      1.6753 eV  740.07 nm  f=0.2180  <S**2>=0.000
     310 -> 316        0.16870
     311 -> 314       -0.16080
     312 -> 313        0.66694
     310 <- 316        0.10171
 This state for optimization and/or second-order correction.
 Total Energy, E(TD-HF/TD-DFT) =  -4069.75019061
 Copying the excited state density for this state as the 1-particle RhoCI density.

 Excited State   2:      Singlet-A      1.6801 eV  737.96 nm  f=0.5593  <S**2>=0.000
     309 -> 315        0.17071
     311 -> 314        0.66658
     312 -> 313        0.16075
     309 <- 315        0.10221

 Excited State   3:      Singlet-A      2.1861 eV  567.16 nm  f=0.0954  <S**2>=0.000
     310 -> 313        0.64212
     312 -> 316       -0.27296

 Excited State   4:      Singlet-A      2.1925 eV  565.49 nm  f=0.1047  <S**2>=0.000
     309 -> 314        0.64034
     311 -> 315       -0.27814

 Excited State   5:      Singlet-A      3.0658 eV  404.41 nm  f=0.0000  <S**2>=0.000
     311 -> 313        0.70711

 The electronic state is 1-A.
 Alpha  occ. eigenvalues --  -46.87796 -46.87660 -19.26349 -19.26281 -19.19160
 Alpha  occ. eigenvalues --  -19.19017 -19.18816 -19.18715 -19.18168 -19.18050
 Alpha  occ. eigenvalues --  -14.42497 -14.42449 -14.41449 -14.41359 -14.39402
 Alpha  occ. eigenvalues --  -14.39352 -14.38600 -14.38586 -10.39090 -10.39077
 Alpha  occ. eigenvalues --  -10.35450 -10.35392 -10.34388 -10.34227 -10.31756
 Alpha  occ. eigenvalues --  -10.31676 -10.31404 -10.31309 -10.31023 -10.30908
 Alpha  occ. eigenvalues --  -10.30569 -10.30507 -10.30397 -10.30360 -10.30207
 Alpha  occ. eigenvalues --  -10.30141 -10.29920 -10.29894 -10.29630 -10.29437
 Alpha  occ. eigenvalues --  -10.29401 -10.29254 -10.28748 -10.28719 -10.28656
 Alpha  occ. eigenvalues --  -10.28538 -10.28405 -10.28364 -10.28140 -10.28116
 Alpha  occ. eigenvalues --  -10.28001 -10.27792 -10.27727 -10.27669 -10.27584
 Alpha  occ. eigenvalues --  -10.27517 -10.27500 -10.27483 -10.27483 -10.27469
 Alpha  occ. eigenvalues --  -10.27465 -10.27449 -10.27403 -10.27375 -10.27156
 Alpha  occ. eigenvalues --  -10.27049 -10.26704 -10.26694 -10.26417 -10.26413
 Alpha  occ. eigenvalues --  -10.26234 -10.26183 -10.26137 -10.26024 -10.26019
 Alpha  occ. eigenvalues --  -10.25934 -10.25848 -10.25841 -10.25435 -10.25396
 Alpha  occ. eigenvalues --  -10.24872 -10.24832 -10.24787 -10.24731 -10.24690
 Alpha  occ. eigenvalues --  -10.24686  -3.16539  -3.16410  -1.91421  -1.91293
 Alpha  occ. eigenvalues --   -1.91007  -1.90881  -1.90849  -1.90718  -1.16643
 Alpha  occ. eigenvalues --   -1.16630  -1.08657  -1.08625  -1.07217  -1.06968
 Alpha  occ. eigenvalues --   -1.06945  -1.06640  -1.04580  -1.04495  -1.03760
 Alpha  occ. eigenvalues --   -1.03663  -1.03233  -1.03039  -1.02410  -1.02111
 Alpha  occ. eigenvalues --   -0.91987  -0.91971  -0.89519  -0.89494  -0.89187
 Alpha  occ. eigenvalues --   -0.89151  -0.88286  -0.88220  -0.87869  -0.87793
 Alpha  occ. eigenvalues --   -0.87684  -0.87672  -0.87274  -0.87121  -0.85000
 Alpha  occ. eigenvalues --   -0.84982  -0.83935  -0.83876  -0.82968  -0.82932
 Alpha  occ. eigenvalues --   -0.82653  -0.82648  -0.81596  -0.81584  -0.80595
 Alpha  occ. eigenvalues --   -0.80443  -0.78797  -0.78636  -0.77218  -0.77145
 Alpha  occ. eigenvalues --   -0.76933  -0.76898  -0.75922  -0.75839  -0.74897
 Alpha  occ. eigenvalues --   -0.74802  -0.72773  -0.72699  -0.71671  -0.71581
 Alpha  occ. eigenvalues --   -0.69906  -0.69757  -0.68873  -0.68827  -0.67641
 Alpha  occ. eigenvalues --   -0.67602  -0.67220  -0.67201  -0.65286  -0.65272
 Alpha  occ. eigenvalues --   -0.64853  -0.64770  -0.64654  -0.64620  -0.64269
 Alpha  occ. eigenvalues --   -0.64203  -0.62296  -0.62278  -0.60442  -0.60340
 Alpha  occ. eigenvalues --   -0.59804  -0.59797  -0.58993  -0.58986  -0.58503
 Alpha  occ. eigenvalues --   -0.58425  -0.57583  -0.57554  -0.57308  -0.57236
 Alpha  occ. eigenvalues --   -0.56309  -0.56204  -0.55977  -0.55886  -0.55520
 Alpha  occ. eigenvalues --   -0.55452  -0.55338  -0.55247  -0.54522  -0.54487
 Alpha  occ. eigenvalues --   -0.53913  -0.53894  -0.53298  -0.53228  -0.53222
 Alpha  occ. eigenvalues --   -0.53142  -0.52914  -0.52902  -0.52756  -0.52669
 Alpha  occ. eigenvalues --   -0.52437  -0.52401  -0.51913  -0.51884  -0.51659
 Alpha  occ. eigenvalues --   -0.51616  -0.51201  -0.51195  -0.50574  -0.50476
 Alpha  occ. eigenvalues --   -0.50031  -0.49980  -0.49919  -0.49867  -0.49514
 Alpha  occ. eigenvalues --   -0.49488  -0.49214  -0.49202  -0.49104  -0.49095
 Alpha  occ. eigenvalues --   -0.48592  -0.48558  -0.48461  -0.48445  -0.48375
 Alpha  occ. eigenvalues --   -0.48339  -0.47694  -0.47595  -0.47296  -0.47118
 Alpha  occ. eigenvalues --   -0.46796  -0.46709  -0.46555  -0.46554  -0.46358
 Alpha  occ. eigenvalues --   -0.46270  -0.46161  -0.46085  -0.45822  -0.45820
 Alpha  occ. eigenvalues --   -0.45208  -0.45201  -0.44576  -0.44514  -0.44507
 Alpha  occ. eigenvalues --   -0.44476  -0.44144  -0.44127  -0.44088  -0.44078
 Alpha  occ. eigenvalues --   -0.44019  -0.43939  -0.43553  -0.43493  -0.43386
 Alpha  occ. eigenvalues --   -0.43385  -0.43026  -0.42930  -0.42901  -0.42697
 Alpha  occ. eigenvalues --   -0.42653  -0.42553  -0.42008  -0.41964  -0.41703
 Alpha  occ. eigenvalues --   -0.41669  -0.41533  -0.41459  -0.41140  -0.40989
 Alpha  occ. eigenvalues --   -0.40869  -0.40824  -0.40723  -0.40699  -0.40570
 Alpha  occ. eigenvalues --   -0.40493  -0.40234  -0.40228  -0.39440  -0.39425
 Alpha  occ. eigenvalues --   -0.38468  -0.38350  -0.37748  -0.37655  -0.37320
 Alpha  occ. eigenvalues --   -0.37266  -0.37263  -0.37200  -0.36771  -0.36711
 Alpha  occ. eigenvalues --   -0.36217  -0.36191  -0.34285  -0.34253  -0.33862
 Alpha  occ. eigenvalues --   -0.33768  -0.33186  -0.33175  -0.31346  -0.31274
 Alpha  occ. eigenvalues --   -0.31035  -0.30973  -0.30027  -0.29954  -0.29449
 Alpha  occ. eigenvalues --   -0.29327  -0.29321  -0.29211  -0.24080  -0.24036
 Alpha  occ. eigenvalues --   -0.21127  -0.21117
 Alpha virt. eigenvalues --   -0.08792  -0.08774  -0.01749  -0.01684  -0.00058
 Alpha virt. eigenvalues --   -0.00029   0.02201   0.02208   0.03123   0.03226
 Alpha virt. eigenvalues --    0.04719   0.04729   0.05100   0.05165   0.06179

 Mulliken charges:
               1
     1  Mg   0.838787
     2  C   -0.002954
     3  C   -0.094132
     4  C   -0.045889
     5  C   -0.063949
     6  N   -0.256805
     7  C   -0.052451
     8  C   -0.014017
     9  C   -0.086998
    10  C    0.046325
    11  C    0.104813
    12  C    0.053476
    13  C   -0.071806
    14  H    0.036135
    15  N   -0.433147
    16  C    0.168413
    17  C   -0.177163
    18  C   -0.004030
    19  C    0.148715
    20  C    0.110184
    21  C    0.012289
    22  O   -0.249632
    23  C    0.062475
    24  N   -0.341129
    25  C    0.041255
    26  C   -0.028197
    27  C   -0.023948
    28  C    0.074808
    29  C    0.076181
    30  C    0.035135
    31  C   -0.004504
    32  N   -0.310482
    33  C    0.080407
    34  C   -0.169704
    35  C    0.008369
    36  C    0.082998
    37  C    0.127311
    38  C    0.046133
    39  O   -0.188401
    40  C   -0.005358
    41  C    0.212887
    42  O   -0.257104
    43  O   -0.304796
    44  C    0.157683
    45  H   -0.017613
    46  H   -0.016844
    47  H   -0.041476
    48  H    0.000950
    49  H   -0.004047
    50  H    0.025482
    51  H    0.016444
    52  H    0.016651
    53  H    0.011186
    54  H    0.044133
    55  H    0.017881
    56  H    0.017930
    57  H    0.005868
    58  H    0.026814
    59  H    0.039519
    60  H    0.037345
    61  H    0.035630
    62  H    0.031481
    63  H    0.016547
    64  H    0.009466
    65  H    0.023206
    66  H    0.012542
    67  H    0.004758
    68  H    0.006364
    69  H    0.004744
    70  H    0.008767
    71  H    0.018158
    72  H    0.028978
    73  H    0.047596
    74  H    0.009120
    75  H    0.046018
    76  H    0.035159
    77  H    0.042970
    78  H    0.046390
    79  H    0.053702
    80  Mg   0.837853
    81  C   -0.016841
    82  C   -0.087797
    83  C   -0.045518
    84  C   -0.064865
    85  N   -0.254563
    86  C   -0.049822
    87  C   -0.015101
    88  C   -0.090498
    89  C    0.045746
    90  C    0.114373
    91  C    0.062537
    92  C   -0.077911
    93  H    0.034895
    94  N   -0.423496
    95  C    0.162936
    96  C   -0.174632
    97  C   -0.007800
    98  C    0.152120
    99  C    0.099364
   100  C    0.015566
   101  O   -0.253169
   102  C    0.061194
   103  N   -0.350083
   104  C    0.037542
   105  C   -0.019840
   106  C   -0.034848
   107  C    0.088931
   108  C    0.073644
   109  C    0.034751
   110  C   -0.007688
   111  N   -0.324108
   112  C    0.078463
   113  C   -0.163109
   114  C    0.002271
   115  C    0.096208
   116  C    0.131482
   117  C    0.042388
   118  O   -0.187838
   119  C    0.000925
   120  C    0.211258
   121  O   -0.251034
   122  O   -0.305618
   123  C    0.152021
   124  H   -0.019665
   125  H   -0.015564
   126  H   -0.040421
   127  H   -0.000631
   128  H   -0.004344
   129  H    0.022502
   130  H    0.014448
   131  H    0.016276
   132  H    0.013906
   133  H    0.037681
   134  H    0.020804
   135  H    0.019579
   136  H    0.008753
   137  H    0.026144
   138  H    0.039782
   139  H    0.038250
   140  H    0.036396
   141  H    0.033887
   142  H    0.014397
   143  H    0.012470
   144  H    0.025146
   145  H    0.011656
   146  H    0.005724
   147  H    0.006279
   148  H    0.003672
   149  H    0.010928
   150  H    0.017937
   151  H    0.030092
   152  H    0.046018
   153  H    0.008527
   154  H    0.047016
   155  H    0.035069
   156  H    0.043936
   157  H    0.049482
   158  H    0.053579
 Sum of Mulliken charges =  -0.00000

 Dipole moment (field-independent basis, Debye):
    X=             -3.9715    Y=             -2.4242    Z=             -7.7562  Tot=              9.0448
 Quadrupole moment (field-independent basis, Debye-Ang):
   XX=           -516.2600   YY=           -550.8327   ZZ=           -448.0606
   XY=            -15.2088   XZ=              4.6605   YZ=            -47.7159

 Normal termination of Gaussian 16 at Sat Sep  4 20:00:15 2021.
