 Gaussian 16, Revision A.03,
 Gaussian 16:  ES64L-G16RevA.03 25-Dec-2016

 -----------------------------------
 #p cam-b3lyp/Def2SVP td=(nstates=5)
 -----------------------------------

 --------------------------------
 TDDFT excited states in gaussian
 --------------------------------
 Symbolic Z-matrix:
 Charge =  0 Multiplicity = 1

                         Standard orientation:
 ---------------------------------------------------------------------
 Center     Atomic      Atomic             Coordinates (Angstroms)
 Number     Number       Type             X           Y           Z
 ---------------------------------------------------------------------
      1         12           0        6.319224   -1.159646    0.339288
      2          6           0        6.798672    2.263095   -0.591943
      3          6           0        7.091572   -0.243516    3.534166
      4          6           0        6.347124   -4.238226    1.099673
      5          6           0        6.702925   -1.975531   -3.027130
      6          7           0        6.857160    0.792922    1.233016
      7          6           0        6.947365    2.038917    0.778560
      8          6           0        7.140031    3.095708    1.907031
      9          6           0        7.774561    2.155082    3.027117
     10          6           0        7.178438    0.826921    2.595203
     11          6           0        9.294947    2.058659    2.952092
     12          6           0        5.781746    3.714279    2.380490
     13          6           0        5.902690    4.976661    3.239046
     14          1           0        4.900262    6.021302    3.093402
     15          7           0        6.188270   -2.045640    2.100172
     16          6           0        6.531356   -1.517916    3.299791
     17          6           0        6.249015   -2.567446    4.302513
     18          6           0        5.892925   -3.813669    3.568877
     19          6           0        6.157405   -3.417817    2.209197
     20          6           0        6.282830   -2.324125    5.780146
     21          6           0        5.403530   -5.152710    4.022303
     22          8           0        5.377362   -6.166630    3.243936
     23          6           0        5.033851   -5.269967    5.444495
     24          7           0        6.716325   -2.890022   -0.758775
     25          6           0        6.601359   -4.101331   -0.203350
     26          6           0        6.655263   -5.184502   -1.239581
     27          6           0        6.587465   -4.446797   -2.654130
     28          6           0        6.588715   -2.980501   -2.155889
     29          6           0        7.892749   -6.091544   -1.195845
     30          6           0        5.468159   -4.894077   -3.627534
     31          6           0        4.117428   -4.503700   -3.070553
     32          7           0        6.509306   -0.065916   -1.525831
     33          6           0        6.681310   -0.608344   -2.807573
     34          6           0        6.869374    0.523306   -3.733893
     35          6           0        6.809865    1.652059   -2.918896
     36          6           0        6.624288    1.249723   -1.565390
     37          6           0        7.121697    0.423884   -5.130633
     38          6           0        6.884520    3.103337   -2.873333
     39          8           0        6.938579    3.995889   -3.720636
     40          6           0        7.002224    3.551421   -1.349786
     41          6           0        6.013638    4.662998   -1.125278
     42          8           0        4.785654    4.448536   -1.183803
     43          8           0        6.656145    5.739410   -0.646669
     44          6           0        5.728128    6.869315   -0.374176
     45          1           0        7.544880   -0.119335    4.519576
     46          1           0        6.253356   -5.307184    1.302093
     47          1           0        6.743883   -2.149194   -4.103985
     48          1           0        7.832096    3.901505    1.661751
     49          1           0        7.426906    2.419686    4.025537
     50          1           0        9.681802    2.550651    2.059786
     51          1           0        9.517980    0.991866    2.925592
     52          1           0        9.752702    2.437860    3.866118
     53          1           0        5.313350    3.043961    3.101142
     54          1           0        5.133016    3.918807    1.528056
     55          1           0        6.906092    5.400083    3.186073
     56          1           0        5.783864    4.691442    4.284383
     57          1           0        6.736596   -1.362701    6.017434
     58          1           0        6.964112   -3.059109    6.208355
     59          1           0        5.297763   -2.426767    6.235602
     60          1           0        5.897523   -5.023252    6.062355
     61          1           0        4.622809   -6.271438    5.566763
     62          1           0        4.270517   -4.525745    5.673417
     63          1           0        5.803851   -5.857450   -1.146503
     64          1           0        7.505775   -4.576281   -3.227379
     65          1           0        7.655949   -7.150451   -1.089328
     66          1           0        8.532286   -5.750087   -0.382401
     67          1           0        8.560516   -5.995263   -2.051552
     68          1           0        5.469749   -5.978265   -3.734680
     69          1           0        5.566110   -4.462228   -4.623607
     70          1           0        3.890066   -5.321567   -2.387741
     71          1           0        3.378409   -4.445970   -3.870383
     72          1           0        4.180148   -3.591484   -2.476907
     73          1           0        6.495788    1.177703   -5.608087
     74          1           0        6.894158   -0.574308   -5.504051
     75          1           0        8.187996    0.647541   -5.159623
     76          1           0        8.029756    3.880611   -1.198350
     77          1           0        6.095747    7.728932   -0.934665
     78          1           0        5.663191    6.962399    0.710040
     79          1           0        4.720564    6.774293   -0.780531
     80         12           0       -6.870458   -0.275526   -0.348547
     81          6           0       -4.805043    2.656817   -0.468976
     82          6           0       -7.926062    0.776134    2.719730
     83          6           0       -8.352055   -3.061205   -0.013456
     84          6           0       -4.839770   -1.638475   -2.831362
     85          7           0       -6.359615    1.503557    0.862311
     86          6           0       -5.609079    2.580791    0.687391
     87          6           0       -5.787590    3.672775    1.776085
     88          6           0       -6.321637    2.738733    2.968245
     89          6           0       -6.941566    1.615421    2.139668
     90          6           0       -5.206919    2.148026    3.815467
     91          6           0       -6.852021    4.752146    1.371177
     92          6           0       -6.855039    6.010631    2.241780
     93          1           0       -7.146606    7.294013    1.609023
     94          7           0       -8.332364   -0.812830    0.881376
     95          6           0       -8.633545   -0.263155    2.076540
     96          6           0       -9.777889   -1.028823    2.594606
     97          6           0      -10.022983   -2.179987    1.683861
     98          6           0       -8.873824   -2.072148    0.807562
     99          6           0      -10.567489   -0.598755    3.796689
    100          6           0      -11.104894   -3.215218    1.620900
    101          8           0      -10.991618   -4.264154    0.893085
    102          6           0      -12.259801   -3.011253    2.507517
    103          7           0       -6.508972   -2.167779   -1.130232
    104          6           0       -7.336939   -3.194096   -0.867388
    105          6           0       -7.034924   -4.379235   -1.753166
    106          6           0       -5.984993   -3.849194   -2.836802
    107          6           0       -5.785130   -2.410165   -2.312736
    108          6           0       -6.461326   -5.607949   -1.047724
    109          6           0       -6.356682   -4.046354   -4.332018
    110          6           0       -7.544585   -3.181303   -4.686932
    111          7           0       -5.252118    0.428739   -1.594760
    112          6           0       -4.525792   -0.314860   -2.550587
    113          6           0       -3.450179    0.561413   -3.058141
    114          6           0       -3.612421    1.755750   -2.339998
    115          6           0       -4.698977    1.625591   -1.433374
    116          6           0       -2.465022    0.197985   -4.019132
    117          6           0       -3.104934    3.093356   -2.135130
    118          8           0       -2.251337    3.791624   -2.680594
    119          6           0       -3.775079    3.692872   -0.824459
    120          6           0       -4.258719    5.080995   -1.143402
    121          8           0       -5.174051    5.257844   -1.966504
    122          8           0       -3.715274    5.948455   -0.270155
    123          6           0       -4.173716    7.337490   -0.538902
    124          1           0       -8.150004    0.895294    3.780176
    125          1           0       -8.897162   -4.007947   -0.016069
    126          1           0       -4.225739   -1.955890   -3.676873
    127          1           0       -4.872672    4.170224    2.074832
    128          1           0       -7.083691    3.244679    3.555326
    129          1           0       -4.231769    2.359575    3.402585
    130          1           0       -5.386155    1.081007    3.834978
    131          1           0       -5.299697    2.488197    4.850852
    132          1           0       -7.855311    4.366945    1.594262
    133          1           0       -6.743198    5.026437    0.339892
    134          1           0       -5.954115    6.084278    2.862953
    135          1           0       -7.672131    5.931693    2.962998
    136          1           0      -10.051702    0.192379    4.354769
    137          1           0      -10.587753   -1.449075    4.486902
    138          1           0      -11.593976   -0.320262    3.548787
    139          1           0      -11.919550   -2.966931    3.539367
    140          1           0      -12.965927   -3.804607    2.254802
    141          1           0      -12.706681   -2.036690    2.281358
    142          1           0       -7.927757   -4.717081   -2.264850
    143          1           0       -5.012877   -4.355344   -2.743832
    144          1           0       -7.062842   -6.522863   -1.206457
    145          1           0       -6.376676   -5.386931    0.007981
    146          1           0       -5.435655   -5.856862   -1.314625
    147          1           0       -6.660353   -5.080258   -4.513610
    148          1           0       -5.541007   -3.826017   -5.012540
    149          1           0       -8.396112   -3.784315   -4.357742
    150          1           0       -7.580039   -3.000535   -5.759359
    151          1           0       -7.548116   -2.256739   -4.098018
    152          1           0       -2.374614    1.031558   -4.702856
    153          1           0       -2.737014   -0.717309   -4.540703
    154          1           0       -1.599025    0.056917   -3.366902
    155          1           0       -3.017286    3.693523   -0.040026
    156          1           0       -3.276582    7.949624   -0.673506
    157          1           0       -4.840981    7.600102    0.303440
    158          1           0       -4.696836    7.521304   -1.470039
 ---------------------------------------------------------------------

 SCF Done:  E(RCAM-B3LYP) =  -4069.81092966     A.U. after   19 cycles

 Excitation energies and oscillator strengths:

 Excited State   1:      Singlet-A      1.6659 eV  744.24 nm  f=0.1208  <S**2>=0.000
     309 -> 315        0.11160
     310 -> 316        0.13025
     311 -> 313        0.44563
     312 -> 314        0.52228
 This state for optimization and/or second-order correction.
 Total Energy, E(TD-HF/TD-DFT) =  -4069.74970870
 Copying the excited state density for this state as the 1-particle RhoCI density.

 Excited State   2:      Singlet-A      1.6895 eV  733.83 nm  f=0.6381  <S**2>=0.000
     309 -> 315        0.13497
     310 -> 316       -0.11458
     311 -> 313        0.52118
     312 -> 314       -0.44484

 Excited State   3:      Singlet-A      2.1853 eV  567.36 nm  f=0.0230  <S**2>=0.000
     309 -> 313        0.27279
     310 -> 314        0.58230
     311 -> 315       -0.11515
     312 -> 316       -0.24691

 Excited State   4:      Singlet-A      2.1931 eV  565.33 nm  f=0.1639  <S**2>=0.000
     309 -> 313        0.57975
     310 -> 314       -0.27083
     311 -> 315       -0.25314
     312 -> 316        0.11836

 Excited State   5:      Singlet-A      2.6700 eV  464.36 nm  f=0.0000  <S**2>=0.000
     312 -> 313        0.70700

 The electronic state is 1-A.
 Alpha  occ. eigenvalues --  -46.87690 -46.87521 -19.26167 -19.26051 -19.18977
 Alpha  occ. eigenvalues --  -19.18762 -19.18739 -19.18592 -19.18007 -19.17806
 Alpha  occ. eigenvalues --  -14.42365 -14.42344 -14.41350 -14.41221 -14.39300
 Alpha  occ. eigenvalues --  -14.39212 -14.38471 -14.38447 -10.38907 -10.38836
 Alpha  occ. eigenvalues --  -10.35375 -10.35272 -10.34225 -10.33987 -10.31593
 Alpha  occ. eigenvalues --  -10.31440 -10.31288 -10.31162 -10.30895 -10.30802
 Alpha  occ. eigenvalues --  -10.30453 -10.30398 -10.30245 -10.30202 -10.30125
 Alpha  occ. eigenvalues --  -10.30020 -10.29817 -10.29746 -10.29521 -10.29303
 Alpha  occ. eigenvalues --  -10.29247 -10.29159 -10.28633 -10.28605 -10.28567
 Alpha  occ. eigenvalues --  -10.28425 -10.28254 -10.28249 -10.28032 -10.28011
 Alpha  occ. eigenvalues --  -10.27836 -10.27678 -10.27625 -10.27537 -10.27482
 Alpha  occ. eigenvalues --  -10.27437 -10.27411 -10.27403 -10.27381 -10.27357
 Alpha  occ. eigenvalues --  -10.27338 -10.27319 -10.27285 -10.27256 -10.26990
 Alpha  occ. eigenvalues --  -10.26849 -10.26586 -10.26576 -10.26361 -10.26319
 Alpha  occ. eigenvalues --  -10.26143 -10.26139 -10.26034 -10.25939 -10.25923
 Alpha  occ. eigenvalues --  -10.25797 -10.25708 -10.25619 -10.25374 -10.25286
 Alpha  occ. eigenvalues --  -10.24709 -10.24701 -10.24687 -10.24665 -10.24628
 Alpha  occ. eigenvalues --  -10.24548  -3.16433  -3.16271  -1.91315  -1.91153
 Alpha  occ. eigenvalues --   -1.90902  -1.90743  -1.90742  -1.90578  -1.16460
 Alpha  occ. eigenvalues --   -1.16397  -1.08455  -1.08407  -1.07143  -1.06847
 Alpha  occ. eigenvalues --   -1.06758  -1.06391  -1.04472  -1.04358  -1.03660
 Alpha  occ. eigenvalues --   -1.03523  -1.03127  -1.02896  -1.02304  -1.01966
 Alpha  occ. eigenvalues --   -0.91843  -0.91825  -0.89435  -0.89361  -0.89077
 Alpha  occ. eigenvalues --   -0.89037  -0.88205  -0.88094  -0.87748  -0.87614
 Alpha  occ. eigenvalues --   -0.87569  -0.87548  -0.87186  -0.86991  -0.84878
 Alpha  occ. eigenvalues --   -0.84873  -0.83856  -0.83749  -0.82895  -0.82814
 Alpha  occ. eigenvalues --   -0.82537  -0.82528  -0.81435  -0.81430  -0.80470
 Alpha  occ. eigenvalues --   -0.80295  -0.78698  -0.78491  -0.77121  -0.77016
 Alpha  occ. eigenvalues --   -0.76815  -0.76767  -0.75794  -0.75699  -0.74805
 Alpha  occ. eigenvalues --   -0.74672  -0.72667  -0.72548  -0.71565  -0.71446
 Alpha  occ. eigenvalues --   -0.69843  -0.69641  -0.68765  -0.68700  -0.67530
 Alpha  occ. eigenvalues --   -0.67454  -0.67113  -0.67081  -0.65169  -0.65140
 Alpha  occ. eigenvalues --   -0.64733  -0.64629  -0.64513  -0.64501  -0.64180
 Alpha  occ. eigenvalues --   -0.64072  -0.62127  -0.62117  -0.60354  -0.60207
 Alpha  occ. eigenvalues --   -0.59693  -0.59667  -0.58876  -0.58847  -0.58386
 Alpha  occ. eigenvalues --   -0.58274  -0.57423  -0.57367  -0.57192  -0.57091
 Alpha  occ. eigenvalues --   -0.56198  -0.56053  -0.55804  -0.55733  -0.55417
 Alpha  occ. eigenvalues --   -0.55310  -0.55225  -0.55102  -0.54382  -0.54341
 Alpha  occ. eigenvalues --   -0.53795  -0.53781  -0.53199  -0.53110  -0.53087
 Alpha  occ. eigenvalues --   -0.53004  -0.52774  -0.52760  -0.52665  -0.52554
 Alpha  occ. eigenvalues --   -0.52366  -0.52280  -0.51782  -0.51682  -0.51534
 Alpha  occ. eigenvalues --   -0.51502  -0.51073  -0.51036  -0.50504  -0.50363
 Alpha  occ. eigenvalues --   -0.49960  -0.49861  -0.49829  -0.49741  -0.49408
 Alpha  occ. eigenvalues --   -0.49361  -0.49089  -0.49057  -0.48981  -0.48949
 Alpha  occ. eigenvalues --   -0.48458  -0.48405  -0.48373  -0.48324  -0.48238
 Alpha  occ. eigenvalues --   -0.48186  -0.47590  -0.47462  -0.47193  -0.46988
 Alpha  occ. eigenvalues --   -0.46696  -0.46575  -0.46441  -0.46434  -0.46253
 Alpha  occ. eigenvalues --   -0.46130  -0.46036  -0.45931  -0.45673  -0.45650
 Alpha  occ. eigenvalues --   -0.45116  -0.45079  -0.44441  -0.44419  -0.44378
 Alpha  occ. eigenvalues --   -0.44326  -0.44055  -0.43988  -0.43985  -0.43944
 Alpha  occ. eigenvalues --   -0.43888  -0.43784  -0.43402  -0.43344  -0.43286
 Alpha  occ. eigenvalues --   -0.43245  -0.42912  -0.42777  -0.42728  -0.42606
 Alpha  occ. eigenvalues --   -0.42467  -0.42429  -0.41914  -0.41838  -0.41582
 Alpha  occ. eigenvalues --   -0.41495  -0.41427  -0.41338  -0.41035  -0.40855
 Alpha  occ. eigenvalues --   -0.40775  -0.40743  -0.40607  -0.40584  -0.40482
 Alpha  occ. eigenvalues --   -0.40366  -0.40123  -0.40120  -0.39385  -0.39311
 Alpha  occ. eigenvalues --   -0.38388  -0.38231  -0.37634  -0.37538  -0.37232
 Alpha  occ. eigenvalues --   -0.37147  -0.37137  -0.37068  -0.36605  -0.36535
 Alpha  occ. eigenvalues --   -0.36077  -0.36039  -0.34175  -0.34107  -0.33686
 Alpha  occ. eigenvalues --   -0.33540  -0.33063  -0.33030  -0.31268  -0.31152
 Alpha  occ. eigenvalues --   -0.30924  -0.30832  -0.29863  -0.29709  -0.29346
 Alpha  occ. eigenvalues --   -0.29198  -0.29182  -0.29036  -0.23970  -0.23893
 Alpha  occ. eigenvalues --   -0.21022  -0.20974
 Alpha virt. eigenvalues --   -0.08667  -0.08642  -0.01650  -0.01548   0.00042
 Alpha virt. eigenvalues --    0.00111   0.02331   0.02397   0.03232   0.03357
 Alpha virt. eigenvalues --    0.04824   0.04853   0.05324   0.05352   0.06289

 Mulliken charges:
               1
     1  Mg   0.838802
     2  C   -0.002283
     3  C   -0.094276
     4  C   -0.046137
     5  C   -0.064258
     6  N   -0.256663
     7  C   -0.052368
     8  C   -0.013979
     9  C   -0.086948
    10  C    0.046208
    11  C    0.104894
    12  C    0.053491
    13  C   -0.071617
    14  H    0.036378
    15  N   -0.433018
    16  C    0.168177
    17  C   -0.177471
    18  C   -0.004322
    19  C    0.148555
    20  C    0.110295
    21  C    0.011994
    22  O   -0.250050
    23  C    0.062623
    24  N   -0.341111
    25  C    0.041063
    26  C   -0.028058
    27  C   -0.023987
    28  C    0.074917
    29  C    0.076251
    30  C    0.035225
    31  C   -0.004416
    32  N   -0.310738
    33  C    0.080784
    34  C   -0.169188
    35  C    0.008919
    36  C    0.083569
    37  C    0.127045
    38  C    0.047301
    39  O   -0.187278
    40  C   -0.005747
    41  C    0.212651
    42  O   -0.254462
    43  O   -0.305493
    44  C    0.157147
    45  H   -0.017962
    46  H   -0.017259
    47  H   -0.041577
    48  H    0.001013
    49  H   -0.004405
    50  H    0.025495
    51  H    0.016292
    52  H    0.016311
    53  H    0.010724
    54  H    0.045449
    55  H    0.017683
    56  H    0.017204
    57  H    0.005642
    58  H    0.026508
    59  H    0.038912
    60  H    0.037251
    61  H    0.035257
    62  H    0.031153
    63  H    0.016112
    64  H    0.009434
    65  H    0.022893
    66  H    0.012582
    67  H    0.004623
    68  H    0.006026
    69  H    0.004839
    70  H    0.008391
    71  H    0.017283
    72  H    0.029475
    73  H    0.048762
    74  H    0.008826
    75  H    0.045829
    76  H    0.034783
    77  H    0.042664
    78  H    0.045491
    79  H    0.055875
    80  Mg   0.837490
    81  C   -0.016727
    82  C   -0.087970
    83  C   -0.045658
    84  C   -0.065012
    85  N   -0.254415
    86  C   -0.049892
    87  C   -0.014957
    88  C   -0.090495
    89  C    0.045503
    90  C    0.114450
    91  C    0.062616
    92  C   -0.077595
    93  H    0.034740
    94  N   -0.423382
    95  C    0.162594
    96  C   -0.175046
    97  C   -0.008123
    98  C    0.151876
    99  C    0.099545
   100  C    0.015316
   101  O   -0.253553
   102  C    0.061303
   103  N   -0.350062
   104  C    0.037294
   105  C   -0.019709
   106  C   -0.034846
   107  C    0.089168
   108  C    0.073741
   109  C    0.034778
   110  C   -0.007616
   111  N   -0.324322
   112  C    0.078662
   113  C   -0.163129
   114  C    0.003261
   115  C    0.095965
   116  C    0.131811
   117  C    0.043358
   118  O   -0.184062
   119  C    0.000573
   120  C    0.211612
   121  O   -0.251339
   122  O   -0.305417
   123  C    0.152120
   124  H   -0.020298
   125  H   -0.015922
   126  H   -0.040404
   127  H   -0.000637
   128  H   -0.004736
   129  H    0.022555
   130  H    0.014256
   131  H    0.015413
   132  H    0.013793
   133  H    0.037901
   134  H    0.020445
   135  H    0.019226
   136  H    0.008342
   137  H    0.025609
   138  H    0.039393
   139  H    0.037997
   140  H    0.036036
   141  H    0.033757
   142  H    0.014143
   143  H    0.012387
   144  H    0.024815
   145  H    0.011580
   146  H    0.005645
   147  H    0.005973
   148  H    0.003583
   149  H    0.010785
   150  H    0.017794
   151  H    0.030284
   152  H    0.046996
   153  H    0.007601
   154  H    0.048736
   155  H    0.036076
   156  H    0.044167
   157  H    0.048683
   158  H    0.053575
 Sum of Mulliken charges =  -0.00000

 Dipole moment (field-independent basis, Debye):
    X=              0.6459    Y=             -0.6527    Z=              8.0902  Tot=              8.1422
 Quadrupole moment (field-independent basis, Debye-Ang):
   XX=           -485.8238   YY=           -519.1880   ZZ=           -475.5897
   XY=            -21.1483   XZ=             -3.2250   YZ=             59.5151

 Normal termination of Gaussian 16 at Sat Sep 11 13:15:41 2021.
