 Gaussian 16, Revision A.03,
 Gaussian 16:  ES64L-G16RevA.03 25-Dec-2016

 -----------------------------------
 #p cam-b3lyp/Def2SVP td=(nstates=5)
 -----------------------------------

 --------------------------------
 TDDFT excited states in gaussian
 --------------------------------
 Symbolic Z-matrix:
 Charge =  0 Multiplicity = 1

                         Standard orientation:
 ---------------------------------------------------------------------
 Center     Atomic      Atomic             Coordinates (Angstroms)
 Number     Number       Type             X           Y           Z
 ---------------------------------------------------------------------
      1         12           0       -3.745781    0.603513    1.025444
      2          6           0       -4.653636   -1.989652   -1.268790
      3          6           0       -3.942553   -1.728882    3.508241
      4          6           0       -3.393261    2.959916    3.118221
      5          6           0       -4.720441    2.897130   -1.410745
      6          7           0       -4.242575   -1.553583    0.997524
      7          6           0       -4.513273   -2.440976    0.045459
      8          6           0       -4.559342   -3.909269    0.564464
      9          6           0       -4.889458   -3.623963    2.097964
     10          6           0       -4.291916   -2.233325    2.220408
     11          6           0       -6.383428   -3.544526    2.395027
     12          6           0       -3.184777   -4.641078    0.400888
     13          6           0       -3.229089   -6.161718    0.577078
     14          1           0       -2.355847   -6.987477   -0.243239
     15          7           0       -3.205833    0.559643    2.925282
     16          6           0       -3.345378   -0.479594    3.783069
     17          6           0       -2.793953   -0.018337    5.075298
     18          6           0       -2.496436    1.435586    4.950060
     19          6           0       -3.051489    1.719297    3.651291
     20          6           0       -2.555267   -0.929283    6.240183
     21          6           0       -1.828687    2.416262    5.861388
     22          8           0       -1.879909    3.677490    5.658279
     23          6           0       -1.179381    1.860264    7.062350
     24          7           0       -4.219906    2.635667    0.968962
     25          6           0       -3.907783    3.445615    1.986581
     26          6           0       -4.082707    4.887125    1.610564
     27          6           0       -4.349265    4.904117    0.036267
     28          6           0       -4.362536    3.376446   -0.217335
     29          6           0       -5.216068    5.633172    2.328142
     30          6           0       -3.412451    5.786828   -0.826066
     31          6           0       -2.011789    5.216752   -0.810014
     32          7           0       -4.379553    0.511646   -1.048426
     33          6           0       -4.758622    1.588641   -1.862712
     34          6           0       -5.209030    1.021541   -3.147078
     35          6           0       -5.075455   -0.355894   -2.983755
     36          6           0       -4.598272   -0.633105   -1.670841
     37          6           0       -5.722374    1.759809   -4.249744
     38          6           0       -5.248201   -1.659243   -3.604478
     39          8           0       -5.534180   -2.049064   -4.737504
     40          6           0       -5.097859   -2.774637   -2.477925
     41          6           0       -4.170526   -3.834013   -3.008100
     42          8           0       -2.965358   -3.584290   -3.214437
     43          8           0       -4.785398   -5.025855   -2.963541
     44          6           0       -3.909238   -6.125608   -3.448350
     45          1           0       -4.201672   -2.314379    4.392544
     46          1           0       -3.181799    3.809895    3.770339
     47          1           0       -4.958801    3.556005   -2.247717
     48          1           0       -5.344454   -4.523090    0.122596
     49          1           0       -4.373448   -4.317873    2.761247
     50          1           0       -6.973608   -3.568864    1.479048
     51          1           0       -6.526785   -2.597240    2.915210
     52          1           0       -6.680004   -4.321450    3.100157
     53          1           0       -2.535203   -4.376490    1.235219
     54          1           0       -2.733119   -4.402800   -0.562728
     55          1           0       -4.252216   -6.537205    0.543462
     56          1           0       -2.886414   -6.398972    1.584294
     57          1           0       -3.024353   -1.901061    6.091353
     58          1           0       -3.082270   -0.500962    7.092543
     59          1           0       -1.495109   -1.026617    6.474541
     60          1           0       -1.921015    1.328649    7.658935
     61          1           0       -0.678507    2.696986    7.548016
     62          1           0       -0.443894    1.116725    6.753874
     63          1           0       -3.181620    5.459706    1.826479
     64          1           0       -5.349886    5.263401   -0.205287
     65          1           0       -4.884337    6.523272    2.863288
     66          1           0       -5.707281    4.931982    3.002184
     67          1           0       -6.044073    5.933032    1.686340
     68          1           0       -3.353828    6.793369   -0.413290
     69          1           0       -3.736031    5.872143   -1.863500
     70          1           0       -1.594248    5.622790    0.110651
     71          1           0       -1.450539    5.562165   -1.678864
     72          1           0       -2.024936    4.131173   -0.710856
     73          1           0       -5.260583    1.336563   -5.141698
     74          1           0       -5.498428    2.821996   -4.153778
     75          1           0       -6.787326    1.547517   -4.156651
     76          1           0       -6.097406   -3.163874   -2.286819
     77          1           0       -4.443030   -6.629811   -4.254005
     78          1           0       -3.639954   -6.716239   -2.572539
     79          1           0       -2.996777   -5.823446   -3.963572
     80         12           0        3.875723    0.549839   -1.217566
     81          6           0        4.314481   -2.184453    1.065022
     82          6           0        3.779059    2.608167    1.500613
     83          6           0        3.040652    2.914167   -3.161790
     84          6           0        2.875042   -1.784538   -3.603989
     85          7           0        4.037774    0.145676    0.950985
     86          6           0        4.264710   -0.924683    1.697434
     87          6           0        4.528605   -0.619346    3.196328
     88          6           0        3.774558    0.795406    3.289917
     89          6           0        3.897605    1.234859    1.832384
     90          6           0        2.298314    0.669346    3.627782
     91          6           0        6.057965   -0.477443    3.517163
     92          6           0        6.406000   -0.486631    5.007317
     93          1           0        7.652979   -1.120202    5.426941
     94          7           0        3.950943    2.515570   -0.955256
     95          6           0        3.924107    3.181529    0.218212
     96          6           0        3.983192    4.609995   -0.128419
     97          6           0        3.880844    4.738386   -1.607525
     98          6           0        3.592977    3.365658   -1.971984
     99          6           0        4.203641    5.686937    0.893847
    100          6           0        4.006896    5.906003   -2.538643
    101          8           0        3.644895    5.830705   -3.765885
    102          6           0        4.479116    7.167080   -1.948564
    103          7           0        2.873910    0.590510   -3.038851
    104          6           0        2.687632    1.746564   -3.699730
    105          6           0        2.193345    1.498104   -5.104838
    106          6           0        2.317505   -0.080176   -5.331162
    107          6           0        2.799292   -0.500309   -3.925185
    108          6           0        0.759610    1.942189   -5.393942
    109          6           0        3.135434   -0.552102   -6.564422
    110          6           0        4.595611   -0.207969   -6.377720
    111          7           0        3.804287   -1.605438   -1.350771
    112          6           0        3.325438   -2.377843   -2.431597
    113          6           0        3.372480   -3.792921   -2.009979
    114          6           0        3.857614   -3.743501   -0.694415
    115          6           0        4.076993   -2.391577   -0.315356
    116          6           0        2.951581   -4.907461   -2.788932
    117          6           0        4.223967   -4.526891    0.463509
    118          8           0        4.328884   -5.729546    0.700885
    119          6           0        4.416338   -3.544417    1.698069
    120          6           0        5.707140   -3.904288    2.381330
    121          8           0        6.794963   -3.750736    1.798521
    122          8           0        5.461743   -4.162916    3.678735
    123          6           0        6.713312   -4.514099    4.401270
    124          1           0        3.507682    3.310811    2.288981
    125          1           0        2.838014    3.684268   -3.909705
    126          1           0        2.672515   -2.579507   -4.324886
    127          1           0        4.083981   -1.324180    3.888634
    128          1           0        4.305923    1.483839    3.941894
    129          1           0        1.972678   -0.360249    3.632955
    130          1           0        1.773072    1.228450    2.864518
    131          1           0        2.083507    1.175210    4.573455
    132          1           0        6.386549    0.536161    3.253730
    133          1           0        6.625564   -1.232488    3.008866
    134          1           0        5.569793   -0.838385    5.623736
    135          1           0        6.564025    0.544341    5.333121
    136          1           0        4.076602    5.304982    1.914316
    137          1           0        3.392829    6.413452    0.772864
    138          1           0        5.159460    6.199558    0.766213
    139          1           0        3.804977    7.466722   -1.149680
    140          1           0        4.589141    7.858524   -2.786233
    141          1           0        5.457041    6.992415   -1.486222
    142          1           0        2.816627    2.007164   -5.829733
    143          1           0        1.333686   -0.549187   -5.479393
    144          1           0        0.685099    2.655556   -6.236344
    145          1           0        0.347774    2.374730   -4.491813
    146          1           0        0.059599    1.135214   -5.603660
    147          1           0        2.804663   -0.024778   -7.462573
    148          1           0        3.043605   -1.614771   -6.762692
    149          1           0        4.645807    0.836950   -6.698210
    150          1           0        5.221592   -0.842703   -7.001654
    151          1           0        4.875564   -0.241656   -5.318406
    152          1           0        3.703241   -5.675657   -2.664872
    153          1           0        2.827429   -4.636937   -3.835436
    154          1           0        1.996399   -5.132611   -2.307057
    155          1           0        3.555598   -3.672159    2.355622
    156          1           0        6.548645   -5.489118    4.870222
    157          1           0        6.919771   -3.660216    5.073582
    158          1           0        7.596931   -4.712273    3.805958
 ---------------------------------------------------------------------

 SCF Done:  E(RCAM-B3LYP) =  -4069.81269026     A.U. after   19 cycles

 Excitation energies and oscillator strengths:

 Excited State   1:      Singlet-A      1.6644 eV  744.91 nm  f=0.2961  <S**2>=0.000
     309 -> 315        0.10851
     310 -> 316       -0.13165
     311 -> 313       -0.43515
     312 -> 314        0.53011
 This state for optimization and/or second-order correction.
 Total Energy, E(TD-HF/TD-DFT) =  -4069.75152437
 Copying the excited state density for this state as the 1-particle RhoCI density.

 Excited State   2:      Singlet-A      1.6754 eV  740.05 nm  f=0.3476  <S**2>=0.000
     309 -> 315       -0.13368
     310 -> 316       -0.11089
     311 -> 313        0.52962
     312 -> 314        0.43520

 Excited State   3:      Singlet-A      2.1836 eV  567.80 nm  f=0.1026  <S**2>=0.000
     310 -> 314        0.63867
     312 -> 316        0.27029

 Excited State   4:      Singlet-A      2.1890 eV  566.40 nm  f=0.0953  <S**2>=0.000
     309 -> 313        0.63734
     311 -> 315        0.27325

 Excited State   5:      Singlet-A      2.2338 eV  555.03 nm  f=0.0000  <S**2>=0.000
     312 -> 313        0.70697

 The electronic state is 1-A.
 Alpha  occ. eigenvalues --  -46.87927 -46.87420 -19.26398 -19.26322 -19.19165
 Alpha  occ. eigenvalues --  -19.19095 -19.19076 -19.18530 -19.18328 -19.17906
 Alpha  occ. eigenvalues --  -14.42567 -14.42272 -14.41577 -14.41087 -14.39549
 Alpha  occ. eigenvalues --  -14.39118 -14.38721 -14.38358 -10.39219 -10.39020
 Alpha  occ. eigenvalues --  -10.35715 -10.35212 -10.34543 -10.34087 -10.31767
 Alpha  occ. eigenvalues --  -10.31765 -10.31509 -10.31090 -10.31032 -10.30835
 Alpha  occ. eigenvalues --  -10.30698 -10.30660 -10.30346 -10.30150 -10.30114
 Alpha  occ. eigenvalues --  -10.30053 -10.29831 -10.29789 -10.29607 -10.29408
 Alpha  occ. eigenvalues --  -10.29179 -10.29160 -10.28800 -10.28627 -10.28613
 Alpha  occ. eigenvalues --  -10.28511 -10.28453 -10.28195 -10.28174 -10.28010
 Alpha  occ. eigenvalues --  -10.27949 -10.27846 -10.27777 -10.27758 -10.27653
 Alpha  occ. eigenvalues --  -10.27602 -10.27579 -10.27534 -10.27423 -10.27291
 Alpha  occ. eigenvalues --  -10.27269 -10.27237 -10.27234 -10.27086 -10.27007
 Alpha  occ. eigenvalues --  -10.26934 -10.26748 -10.26697 -10.26610 -10.26291
 Alpha  occ. eigenvalues --  -10.26269 -10.26236 -10.26144 -10.25983 -10.25945
 Alpha  occ. eigenvalues --  -10.25760 -10.25616 -10.25564 -10.25547 -10.24987
 Alpha  occ. eigenvalues --  -10.24963 -10.24935 -10.24693 -10.24653 -10.24442
 Alpha  occ. eigenvalues --  -10.24422  -3.16669  -3.16170  -1.91550  -1.91136
 Alpha  occ. eigenvalues --   -1.91053  -1.90979  -1.90641  -1.90478  -1.16752
 Alpha  occ. eigenvalues --   -1.16606  -1.08784  -1.08527  -1.07486  -1.06882
 Alpha  occ. eigenvalues --   -1.06787  -1.06783  -1.04701  -1.04280  -1.03891
 Alpha  occ. eigenvalues --   -1.03421  -1.03376  -1.02774  -1.02548  -1.01861
 Alpha  occ. eigenvalues --   -0.92106  -0.91786  -0.89632  -0.89247  -0.89203
 Alpha  occ. eigenvalues --   -0.89005  -0.88401  -0.88013  -0.87900  -0.87781
 Alpha  occ. eigenvalues --   -0.87544  -0.87467  -0.87443  -0.86903  -0.85063
 Alpha  occ. eigenvalues --   -0.84836  -0.84042  -0.83572  -0.83188  -0.82754
 Alpha  occ. eigenvalues --   -0.82711  -0.82483  -0.81700  -0.81447  -0.80729
 Alpha  occ. eigenvalues --   -0.80261  -0.78962  -0.78403  -0.77323  -0.77009
 Alpha  occ. eigenvalues --   -0.76954  -0.76698  -0.76019  -0.75677  -0.75012
 Alpha  occ. eigenvalues --   -0.74507  -0.72904  -0.72450  -0.71790  -0.71347
 Alpha  occ. eigenvalues --   -0.69989  -0.69428  -0.68976  -0.68658  -0.67793
 Alpha  occ. eigenvalues --   -0.67388  -0.67301  -0.67054  -0.65366  -0.65119
 Alpha  occ. eigenvalues --   -0.64975  -0.64725  -0.64552  -0.64461  -0.64382
 Alpha  occ. eigenvalues --   -0.63906  -0.62416  -0.62123  -0.60615  -0.60099
 Alpha  occ. eigenvalues --   -0.59895  -0.59630  -0.59114  -0.58755  -0.58637
 Alpha  occ. eigenvalues --   -0.58207  -0.57720  -0.57451  -0.57415  -0.56987
 Alpha  occ. eigenvalues --   -0.56456  -0.56085  -0.55996  -0.55758  -0.55688
 Alpha  occ. eigenvalues --   -0.55453  -0.55288  -0.55001  -0.54634  -0.54249
 Alpha  occ. eigenvalues --   -0.53961  -0.53784  -0.53468  -0.53346  -0.53059
 Alpha  occ. eigenvalues --   -0.53009  -0.52962  -0.52905  -0.52735  -0.52520
 Alpha  occ. eigenvalues --   -0.52497  -0.52086  -0.52058  -0.51722  -0.51616
 Alpha  occ. eigenvalues --   -0.51511  -0.51309  -0.50997  -0.50791  -0.50267
 Alpha  occ. eigenvalues --   -0.50138  -0.50096  -0.49803  -0.49644  -0.49561
 Alpha  occ. eigenvalues --   -0.49363  -0.49313  -0.49181  -0.49041  -0.48936
 Alpha  occ. eigenvalues --   -0.48714  -0.48655  -0.48581  -0.48398  -0.48169
 Alpha  occ. eigenvalues --   -0.48069  -0.47820  -0.47441  -0.47388  -0.46904
 Alpha  occ. eigenvalues --   -0.46878  -0.46630  -0.46492  -0.46490  -0.46364
 Alpha  occ. eigenvalues --   -0.46289  -0.46025  -0.45937  -0.45821  -0.45639
 Alpha  occ. eigenvalues --   -0.45320  -0.44915  -0.44722  -0.44642  -0.44361
 Alpha  occ. eigenvalues --   -0.44276  -0.44270  -0.44164  -0.44163  -0.43960
 Alpha  occ. eigenvalues --   -0.43836  -0.43771  -0.43620  -0.43479  -0.43402
 Alpha  occ. eigenvalues --   -0.43188  -0.43150  -0.42822  -0.42813  -0.42752
 Alpha  occ. eigenvalues --   -0.42678  -0.42270  -0.42093  -0.41836  -0.41732
 Alpha  occ. eigenvalues --   -0.41601  -0.41473  -0.41268  -0.41255  -0.41052
 Alpha  occ. eigenvalues --   -0.40924  -0.40787  -0.40669  -0.40565  -0.40520
 Alpha  occ. eigenvalues --   -0.40257  -0.40190  -0.40120  -0.39513  -0.39087
 Alpha  occ. eigenvalues --   -0.38565  -0.38061  -0.37799  -0.37520  -0.37431
 Alpha  occ. eigenvalues --   -0.37338  -0.37027  -0.36966  -0.36834  -0.36663
 Alpha  occ. eigenvalues --   -0.36304  -0.35963  -0.34415  -0.34022  -0.33917
 Alpha  occ. eigenvalues --   -0.33761  -0.33324  -0.32925  -0.31601  -0.31170
 Alpha  occ. eigenvalues --   -0.31087  -0.30744  -0.30182  -0.29815  -0.29622
 Alpha  occ. eigenvalues --   -0.29474  -0.29105  -0.28984  -0.24210  -0.23788
 Alpha  occ. eigenvalues --   -0.21263  -0.20870
 Alpha virt. eigenvalues --   -0.08927  -0.08556  -0.01895  -0.01431  -0.00246
 Alpha virt. eigenvalues --    0.00162   0.02041   0.02337   0.02556   0.03586
 Alpha virt. eigenvalues --    0.04633   0.04929   0.04961   0.05250   0.06137

 Mulliken charges:
               1
     1  Mg   0.838944
     2  C   -0.002764
     3  C   -0.093541
     4  C   -0.046536
     5  C   -0.063740
     6  N   -0.256917
     7  C   -0.051695
     8  C   -0.014247
     9  C   -0.087134
    10  C    0.046531
    11  C    0.104744
    12  C    0.053297
    13  C   -0.072852
    14  H    0.038593
    15  N   -0.433072
    16  C    0.168085
    17  C   -0.177358
    18  C   -0.004927
    19  C    0.148432
    20  C    0.109929
    21  C    0.010505
    22  O   -0.250791
    23  C    0.061799
    24  N   -0.341322
    25  C    0.041746
    26  C   -0.027890
    27  C   -0.024047
    28  C    0.075456
    29  C    0.076210
    30  C    0.035009
    31  C   -0.004927
    32  N   -0.310581
    33  C    0.080805
    34  C   -0.170212
    35  C    0.007940
    36  C    0.083238
    37  C    0.127456
    38  C    0.045493
    39  O   -0.188525
    40  C   -0.005168
    41  C    0.213103
    42  O   -0.258429
    43  O   -0.304370
    44  C    0.157882
    45  H   -0.017190
    46  H   -0.017687
    47  H   -0.040958
    48  H    0.001086
    49  H   -0.003080
    50  H    0.025448
    51  H    0.016166
    52  H    0.017183
    53  H    0.012225
    54  H    0.043390
    55  H    0.017370
    56  H    0.019472
    57  H    0.006997
    58  H    0.026929
    59  H    0.038360
    60  H    0.038677
    61  H    0.034264
    62  H    0.029895
    63  H    0.015350
    64  H    0.009671
    65  H    0.022711
    66  H    0.012608
    67  H    0.005163
    68  H    0.005849
    69  H    0.005590
    70  H    0.005741
    71  H    0.023148
    72  H    0.029080
    73  H    0.046822
    74  H    0.009850
    75  H    0.046464
    76  H    0.035670
    77  H    0.043206
    78  H    0.047728
    79  H    0.052300
    80  Mg   0.837271
    81  C   -0.017473
    82  C   -0.088489
    83  C   -0.045784
    84  C   -0.058168
    85  N   -0.254624
    86  C   -0.050256
    87  C   -0.014806
    88  C   -0.091276
    89  C    0.044720
    90  C    0.113152
    91  C    0.062749
    92  C   -0.077372
    93  H    0.034376
    94  N   -0.423478
    95  C    0.162357
    96  C   -0.174462
    97  C   -0.008411
    98  C    0.152262
    99  C    0.099383
   100  C    0.014761
   101  O   -0.253917
   102  C    0.061381
   103  N   -0.350111
   104  C    0.038185
   105  C   -0.020537
   106  C   -0.036213
   107  C    0.088758
   108  C    0.072205
   109  C    0.034423
   110  C   -0.007460
   111  N   -0.324434
   112  C    0.077684
   113  C   -0.161137
   114  C    0.001112
   115  C    0.096736
   116  C    0.132195
   117  C    0.041787
   118  O   -0.189842
   119  C    0.001075
   120  C    0.211117
   121  O   -0.250793
   122  O   -0.306357
   123  C    0.152144
   124  H   -0.017870
   125  H   -0.016161
   126  H   -0.037599
   127  H   -0.003079
   128  H   -0.004425
   129  H    0.020419
   130  H    0.018763
   131  H    0.014789
   132  H    0.014413
   133  H    0.037621
   134  H    0.019004
   135  H    0.019825
   136  H    0.009658
   137  H    0.025882
   138  H    0.038961
   139  H    0.037802
   140  H    0.035617
   141  H    0.033918
   142  H    0.013297
   143  H    0.020420
   144  H    0.022894
   145  H    0.010629
   146  H    0.012400
   147  H    0.006345
   148  H    0.004499
   149  H    0.010222
   150  H    0.017062
   151  H    0.029313
   152  H    0.043995
   153  H    0.009604
   154  H    0.049120
   155  H    0.032714
   156  H    0.042936
   157  H    0.049195
   158  H    0.053737
 Sum of Mulliken charges =  -0.00000

 Dipole moment (field-independent basis, Debye):
    X=             -2.5216    Y=              1.7124    Z=              6.1103  Tot=              6.8284
 Quadrupole moment (field-independent basis, Debye-Ang):
   XX=           -520.2164   YY=           -505.6505   ZZ=           -493.8967
   XY=             23.3203   XZ=             -0.6591   YZ=             -8.7041

 Normal termination of Gaussian 16 at Thu Sep  9 01:29:25 2021.
