 Gaussian 16, Revision A.03,
 Gaussian 16:  ES64L-G16RevA.03 25-Dec-2016

 -----------------------------------
 #p cam-b3lyp/Def2SVP td=(nstates=5)
 -----------------------------------

 --------------------------------
 TDDFT excited states in gaussian
 --------------------------------
 Symbolic Z-matrix:
 Charge =  0 Multiplicity = 1

                         Standard orientation:
 ---------------------------------------------------------------------
 Center     Atomic      Atomic             Coordinates (Angstroms)
 Number     Number       Type             X           Y           Z
 ---------------------------------------------------------------------
      1         12           0        8.115087   -0.560660    0.453149
      2          6           0        8.361001    2.474999   -1.427414
      3          6           0        8.837172    1.278914    3.234808
      4          6           0        8.351703   -3.284316    2.060112
      5          6           0        8.539077   -2.280819   -2.548008
      6          7           0        8.524869    1.595892    0.739525
      7          6           0        8.529790    2.662600   -0.053747
      8          6           0        8.655879    4.008284    0.721243
      9          6           0        9.356302    3.469767    2.048422
     10          6           0        8.848568    2.038790    2.027542
     11          6           0       10.879424    3.451724    1.969191
     12          6           0        7.261181    4.649841    1.029392
     13          6           0        7.300895    6.110250    1.488718
     14          1           0        6.230319    7.004189    1.073882
     15          7           0        8.050641   -0.911544    2.396233
     16          6           0        8.362455   -0.041823    3.387013
     17          6           0        8.154878   -0.775744    4.653880
     18          6           0        7.879962   -2.199713    4.315019
     19          6           0        8.111988   -2.194100    2.893221
     20          6           0        8.178227   -0.117739    5.999329
     21          6           0        7.482962   -3.380779    5.143032
     22          8           0        7.521524   -4.574721    4.687410
     23          6           0        7.127601   -3.108758    6.547584
     24          7           0        8.622583   -2.504507   -0.113897
     25          6           0        8.591040   -3.510690    0.766775
     26          6           0        8.713098   -4.839664    0.082034
     27          6           0        8.590525   -4.543845   -1.482325
     28          6           0        8.495753   -2.999225   -1.423694
     29          6           0       10.008603   -5.616459    0.354550
     30          6           0        7.499756   -5.320685   -2.261531
     31          6           0        6.128178   -4.872889   -1.808374
     32          7           0        8.224231   -0.037312   -1.650476
     33          6           0        8.427008   -0.912215   -2.727556
     34          6           0        8.535334   -0.083831   -3.942510
     35          6           0        8.403758    1.224998   -3.482619
     36          6           0        8.250868    1.216380   -2.066694
     37          6           0        8.788185   -0.563095   -5.258111
     38          6           0        8.381431    2.630212   -3.855089
     39          8           0        8.372348    3.244216   -4.922989
     40          6           0        8.474979    3.502404   -2.526046
     41          6           0        7.415212    4.567234   -2.605674
     42          8           0        6.204083    4.268199   -2.572332
     43          8           0        7.986238    5.773823   -2.469234
     44          6           0        6.985869    6.873729   -2.509511
     45          1           0        9.285079    1.708410    4.133058
     46          1           0        8.330394   -4.254190    2.561439
     47          1           0        8.587271   -2.752726   -3.531082
     48          1           0        9.291560    4.751923    0.240270
     49          1           0        8.995711    3.986859    2.937417
     50          1           0       11.228981    3.690822    0.964919
     51          1           0       11.173149    2.438275    2.243306
     52          1           0       11.314440    4.104859    2.726127
     53          1           0        6.841501    4.185960    1.921996
     54          1           0        6.596849    4.560400    0.169166
     55          1           0        8.273536    6.562994    1.294036
     56          1           0        7.205552    6.129526    2.574415
     57          1           0        8.567661    0.897923    5.941727
     58          1           0        8.908805   -0.654897    6.603834
     59          1           0        7.204041   -0.147365    6.487607
     60          1           0        7.975302   -2.641586    7.049284
     61          1           0        6.784901   -4.057027    6.960127
     62          1           0        6.317150   -2.379699    6.571913
     63          1           0        7.908942   -5.509914    0.382906
     64          1           0        9.513150   -4.774077   -2.015644
     65          1           0        9.843529   -6.613191    0.764405
     66          1           0       10.627116   -5.016786    1.021726
     67          1           0       10.665035   -5.727520   -0.508108
     68          1           0        7.573378   -6.387793   -2.054635
     69          1           0        7.564666   -5.186980   -3.341420
     70          1           0        5.958703   -5.473511   -0.915422
     71          1           0        5.383780   -5.093286   -2.574212
     72          1           0        6.132150   -3.826793   -1.501530
     73          1           0        8.111401   -0.018552   -5.916446
     74          1           0        8.626386   -1.638672   -5.325626
     75          1           0        9.837028   -0.290507   -5.374216
     76          1           0        9.478806    3.925128   -2.498531
     77          1           0        7.292983    7.558126   -3.300407
     78          1           0        6.919165    7.269201   -1.495826
     79          1           0        5.985302    6.603114   -2.848585
     80         12           0       -7.737224   -0.781338   -0.268085
     81          6           0      -10.272917    1.656103    0.444815
     82          6           0       -5.653378    1.818806   -0.997059
     83          6           0       -5.628697   -2.899600   -1.333232
     84          6           0      -10.286906   -3.134782   -0.593877
     85          7           0       -8.039649    1.409561   -0.241339
     86          6           0       -9.026334    2.222196    0.105685
     87          6           0       -8.632867    3.722572    0.165859
     88          6           0       -7.381367    3.683487   -0.839664
     89          6           0       -6.970063    2.223450   -0.661352
     90          6           0       -7.770367    3.896014   -2.293233
     91          6           0       -8.198885    4.169408    1.605994
     92          6           0       -8.098868    5.683144    1.806856
     93          1           0       -8.476132    6.239703    3.103157
     94          7           0       -5.785039   -0.605501   -0.578912
     95          6           0       -5.101279    0.528715   -0.838337
     96          6           0       -3.697753    0.122298   -1.008910
     97          6           0       -3.634581   -1.364463   -0.992197
     98          6           0       -5.047102   -1.688282   -0.988227
     99          6           0       -2.568777    1.108568   -1.087171
    100          6           0       -2.492050   -2.334413   -0.994080
    101          8           0       -2.669847   -3.583832   -1.218098
    102          6           0       -1.148128   -1.764695   -0.818655
    103          7           0       -7.938024   -2.683415   -1.083031
    104          6           0       -6.857066   -3.411343   -1.414066
    105          6           0       -7.234856   -4.841264   -1.718987
    106          6           0       -8.768304   -4.981892   -1.287335
    107          6           0       -9.049406   -3.520987   -0.872435
    108          6           0       -7.074616   -5.275489   -3.175746
    109          6           0       -9.115805   -6.115230   -0.283617
    110          6           0       -8.500092   -5.817379    1.064564
    111          7           0       -9.871015   -0.819531    0.068872
    112          6           0      -10.750829   -1.900959   -0.155870
    113          6           0      -12.119207   -1.411244    0.108995
    114          6           0      -11.941242   -0.061937    0.449862
    115          6           0      -10.561503    0.271387    0.381277
    116          6           0      -13.315257   -2.171240   -0.025104
    117          6           0      -12.607932    1.158974    0.841775
    118          8           0      -13.762369    1.460534    1.141891
    119          6           0      -11.570676    2.358437    0.733177
    120          6           0      -11.663175    3.168396    1.997273
    121          8           0      -11.326852    2.676768    3.088970
    122          8           0      -11.924459    4.449914    1.681349
    123          6           0      -12.014585    5.295095    2.901749
    124          1           0       -4.990593    2.546641   -1.465953
    125          1           0       -4.932385   -3.697538   -1.601421
    126          1           0      -11.126697   -3.832762   -0.578263
    127          1           0       -9.387418    4.405329   -0.205994
    128          1           0       -6.586924    4.346714   -0.507484
    129          1           0       -8.842009    3.920645   -2.424047
    130          1           0       -7.341851    3.064335   -2.837057
    131          1           0       -7.285626    4.794536   -2.685685
    132          1           0       -7.150062    3.888787    1.767121
    133          1           0       -8.849600    3.748673    2.347745
    134          1           0       -8.581925    6.239557    0.994453
    135          1           0       -7.047317    5.973077    1.742002
    136          1           0       -2.937320    2.130667   -1.238433
    137          1           0       -2.010079    0.883108   -2.001988
    138          1           0       -1.890961    1.041503   -0.233509
    139          1           0       -0.955884   -1.042910   -1.608916
    140          1           0       -0.473422   -2.620840   -0.757981
    141          1           0       -1.123630   -1.210664    0.126369
    142          1           0       -6.640219   -5.531639   -1.133410
    143          1           0       -9.416695   -5.193818   -2.150177
    144          1           0       -6.412928   -6.153557   -3.299203
    145          1           0       -6.699894   -4.434164   -3.743458
    146          1           0       -8.003798   -5.507914   -3.693237
    147          1           0       -8.686248   -7.062582   -0.618522
    148          1           0      -10.182360   -6.270971   -0.160290
    149          1           0       -7.474107   -6.180675    0.952971
    150          1           0       -9.025202   -6.353664    1.852411
    151          1           0       -8.449596   -4.737173    1.244159
    152          1           0      -13.925820   -1.945973    0.839163
    153          1           0      -13.103749   -3.236087   -0.096777
    154          1           0      -13.700159   -1.765070   -0.964327
    155          1           0      -11.837113    2.943166   -0.148113
    156          1           0      -12.988876    5.792789    2.874454
    157          1           0      -11.117650    5.942334    2.883799
    158          1           0      -12.062096    4.789527    3.859131
 ---------------------------------------------------------------------

 SCF Done:  E(RCAM-B3LYP) =  -4069.81199854     A.U. after   19 cycles

 Excitation energies and oscillator strengths:

 Excited State   1:      Singlet-A      1.6741 eV  740.58 nm  f=0.3378  <S**2>=0.000
     310 -> 316        0.15308
     311 -> 313        0.32269
     312 -> 314        0.60547
 This state for optimization and/or second-order correction.
 Total Energy, E(TD-HF/TD-DFT) =  -4069.75047498
 Copying the excited state density for this state as the 1-particle RhoCI density.

 Excited State   2:      Singlet-A      1.6811 eV  737.50 nm  f=0.4468  <S**2>=0.000
     309 -> 315        0.15539
     311 -> 313        0.60505
     312 -> 314       -0.32261

 Excited State   3:      Singlet-A      2.1868 eV  566.96 nm  f=0.0528  <S**2>=0.000
     309 -> 313       -0.15746
     310 -> 314        0.62294
     312 -> 316       -0.26520

 Excited State   4:      Singlet-A      2.1937 eV  565.18 nm  f=0.1396  <S**2>=0.000
     309 -> 313        0.62111
     310 -> 314        0.15643
     311 -> 315       -0.27050

 Excited State   5:      Singlet-A      2.7377 eV  452.87 nm  f=0.0000  <S**2>=0.000
     312 -> 313        0.70700

 The electronic state is 1-A.
 Alpha  occ. eigenvalues --  -46.87900 -46.87570 -19.26452 -19.26297 -19.19194
 Alpha  occ. eigenvalues --  -19.19104 -19.18886 -19.18588 -19.18286 -19.17971
 Alpha  occ. eigenvalues --  -14.42555 -14.42407 -14.41543 -14.41270 -14.39503
 Alpha  occ. eigenvalues --  -14.39257 -14.38692 -14.38511 -10.39247 -10.39032
 Alpha  occ. eigenvalues --  -10.35518 -10.35261 -10.34508 -10.34150 -10.31859
 Alpha  occ. eigenvalues --  -10.31715 -10.31514 -10.31223 -10.31017 -10.30927
 Alpha  occ. eigenvalues --  -10.30675 -10.30604 -10.30309 -10.30288 -10.30270
 Alpha  occ. eigenvalues --  -10.30044 -10.30009 -10.29813 -10.29727 -10.29347
 Alpha  occ. eigenvalues --  -10.29335 -10.29299 -10.28877 -10.28702 -10.28639
 Alpha  occ. eigenvalues --  -10.28602 -10.28470 -10.28309 -10.28232 -10.28053
 Alpha  occ. eigenvalues --  -10.27905 -10.27892 -10.27828 -10.27679 -10.27572
 Alpha  occ. eigenvalues --  -10.27567 -10.27554 -10.27511 -10.27504 -10.27440
 Alpha  occ. eigenvalues --  -10.27395 -10.27359 -10.27299 -10.27286 -10.27284
 Alpha  occ. eigenvalues --  -10.26976 -10.26864 -10.26627 -10.26468 -10.26336
 Alpha  occ. eigenvalues --  -10.26239 -10.26212 -10.26108 -10.26071 -10.25935
 Alpha  occ. eigenvalues --  -10.25931 -10.25845 -10.25778 -10.25481 -10.25322
 Alpha  occ. eigenvalues --  -10.24936 -10.24879 -10.24780 -10.24704 -10.24668
 Alpha  occ. eigenvalues --  -10.24600  -3.16644  -3.16321  -1.91525  -1.91203
 Alpha  occ. eigenvalues --   -1.91112  -1.90954  -1.90791  -1.90628  -1.16801
 Alpha  occ. eigenvalues --   -1.16590  -1.08748  -1.08582  -1.07285  -1.06888
 Alpha  occ. eigenvalues --   -1.06840  -1.06813  -1.04687  -1.04404  -1.03856
 Alpha  occ. eigenvalues --   -1.03572  -1.03332  -1.02948  -1.02509  -1.02020
 Alpha  occ. eigenvalues --   -0.92082  -0.91901  -0.89594  -0.89411  -0.89308
 Alpha  occ. eigenvalues --   -0.89069  -0.88357  -0.88139  -0.87969  -0.87776
 Alpha  occ. eigenvalues --   -0.87708  -0.87594  -0.87361  -0.86989  -0.85097
 Alpha  occ. eigenvalues --   -0.84915  -0.84003  -0.83799  -0.83038  -0.82806
 Alpha  occ. eigenvalues --   -0.82756  -0.82553  -0.81713  -0.81524  -0.80706
 Alpha  occ. eigenvalues --   -0.80356  -0.78889  -0.78521  -0.77313  -0.77053
 Alpha  occ. eigenvalues --   -0.77047  -0.76823  -0.76038  -0.75752  -0.74976
 Alpha  occ. eigenvalues --   -0.74721  -0.72869  -0.72608  -0.71769  -0.71494
 Alpha  occ. eigenvalues --   -0.69961  -0.69681  -0.68982  -0.68738  -0.67741
 Alpha  occ. eigenvalues --   -0.67511  -0.67338  -0.67107  -0.65405  -0.65190
 Alpha  occ. eigenvalues --   -0.64962  -0.64725  -0.64686  -0.64573  -0.64347
 Alpha  occ. eigenvalues --   -0.64123  -0.62428  -0.62208  -0.60526  -0.60226
 Alpha  occ. eigenvalues --   -0.59917  -0.59709  -0.59086  -0.58907  -0.58605
 Alpha  occ. eigenvalues --   -0.58338  -0.57712  -0.57480  -0.57399  -0.57144
 Alpha  occ. eigenvalues --   -0.56411  -0.56119  -0.56107  -0.55812  -0.55615
 Alpha  occ. eigenvalues --   -0.55430  -0.55348  -0.55172  -0.54627  -0.54417
 Alpha  occ. eigenvalues --   -0.54016  -0.53829  -0.53390  -0.53329  -0.53134
 Alpha  occ. eigenvalues --   -0.53046  -0.53031  -0.52849  -0.52820  -0.52535
 Alpha  occ. eigenvalues --   -0.52489  -0.52327  -0.52014  -0.51806  -0.51733
 Alpha  occ. eigenvalues --   -0.51562  -0.51299  -0.51120  -0.50648  -0.50332
 Alpha  occ. eigenvalues --   -0.50099  -0.50005  -0.49875  -0.49773  -0.49618
 Alpha  occ. eigenvalues --   -0.49381  -0.49321  -0.49208  -0.49104  -0.49022
 Alpha  occ. eigenvalues --   -0.48709  -0.48545  -0.48532  -0.48475  -0.48297
 Alpha  occ. eigenvalues --   -0.48220  -0.47792  -0.47496  -0.47389  -0.47009
 Alpha  occ. eigenvalues --   -0.46890  -0.46674  -0.46624  -0.46466  -0.46455
 Alpha  occ. eigenvalues --   -0.46260  -0.46175  -0.46005  -0.45939  -0.45749
 Alpha  occ. eigenvalues --   -0.45273  -0.45125  -0.44689  -0.44597  -0.44432
 Alpha  occ. eigenvalues --   -0.44387  -0.44233  -0.44191  -0.44122  -0.44039
 Alpha  occ. eigenvalues --   -0.43987  -0.43826  -0.43616  -0.43485  -0.43484
 Alpha  occ. eigenvalues --   -0.43301  -0.43126  -0.42860  -0.42841  -0.42819
 Alpha  occ. eigenvalues --   -0.42726  -0.42465  -0.42095  -0.41888  -0.41806
 Alpha  occ. eigenvalues --   -0.41646  -0.41585  -0.41377  -0.41240  -0.40972
 Alpha  occ. eigenvalues --   -0.40908  -0.40902  -0.40645  -0.40632  -0.40593
 Alpha  occ. eigenvalues --   -0.40415  -0.40368  -0.40143  -0.39489  -0.39351
 Alpha  occ. eigenvalues --   -0.38546  -0.38272  -0.37879  -0.37580  -0.37401
 Alpha  occ. eigenvalues --   -0.37383  -0.37183  -0.37113  -0.36852  -0.36710
 Alpha  occ. eigenvalues --   -0.36302  -0.36140  -0.34388  -0.34166  -0.33932
 Alpha  occ. eigenvalues --   -0.33799  -0.33290  -0.33086  -0.31417  -0.31150
 Alpha  occ. eigenvalues --   -0.31135  -0.30882  -0.30148  -0.29877  -0.29545
 Alpha  occ. eigenvalues --   -0.29425  -0.29223  -0.29119  -0.24182  -0.23947
 Alpha  occ. eigenvalues --   -0.21225  -0.21024
 Alpha virt. eigenvalues --   -0.08872  -0.08695  -0.01844  -0.01591  -0.00151
 Alpha virt. eigenvalues --    0.00081   0.02097   0.02293   0.02979   0.03306
 Alpha virt. eigenvalues --    0.04606   0.04812   0.04939   0.05227   0.06037

 Mulliken charges:
               1
     1  Mg   0.837869
     2  C   -0.003467
     3  C   -0.094318
     4  C   -0.045631
     5  C   -0.063703
     6  N   -0.256805
     7  C   -0.052715
     8  C   -0.013932
     9  C   -0.086953
    10  C    0.046142
    11  C    0.104752
    12  C    0.053531
    13  C   -0.071616
    14  H    0.035221
    15  N   -0.433230
    16  C    0.168332
    17  C   -0.177177
    18  C   -0.003853
    19  C    0.148636
    20  C    0.110145
    21  C    0.012401
    22  O   -0.249076
    23  C    0.062451
    24  N   -0.341134
    25  C    0.041273
    26  C   -0.028256
    27  C   -0.024062
    28  C    0.074803
    29  C    0.076073
    30  C    0.035027
    31  C   -0.004620
    32  N   -0.310370
    33  C    0.080120
    34  C   -0.169799
    35  C    0.008243
    36  C    0.082608
    37  C    0.127363
    38  C    0.045789
    39  O   -0.188680
    40  C   -0.005209
    41  C    0.213015
    42  O   -0.258206
    43  O   -0.304470
    44  C    0.157874
    45  H   -0.017439
    46  H   -0.016363
    47  H   -0.041181
    48  H    0.001007
    49  H   -0.004092
    50  H    0.025550
    51  H    0.016681
    52  H    0.016830
    53  H    0.010905
    54  H    0.043300
    55  H    0.018290
    56  H    0.018126
    57  H    0.005846
    58  H    0.027166
    59  H    0.039574
    60  H    0.037424
    61  H    0.036181
    62  H    0.031355
    63  H    0.017051
    64  H    0.009591
    65  H    0.023609
    66  H    0.012477
    67  H    0.004910
    68  H    0.006894
    69  H    0.004791
    70  H    0.009379
    71  H    0.019090
    72  H    0.027976
    73  H    0.047294
    74  H    0.009413
    75  H    0.046169
    76  H    0.035360
    77  H    0.043172
    78  H    0.046438
    79  H    0.052838
    80  Mg   0.837646
    81  C   -0.016881
    82  C   -0.087752
    83  C   -0.045491
    84  C   -0.064913
    85  N   -0.254566
    86  C   -0.050048
    87  C   -0.015116
    88  C   -0.090432
    89  C    0.045645
    90  C    0.114298
    91  C    0.062556
    92  C   -0.077721
    93  H    0.034347
    94  N   -0.423589
    95  C    0.162812
    96  C   -0.174260
    97  C   -0.007661
    98  C    0.152146
    99  C    0.099111
   100  C    0.015594
   101  O   -0.253433
   102  C    0.061201
   103  N   -0.350062
   104  C    0.037605
   105  C   -0.019873
   106  C   -0.034694
   107  C    0.088732
   108  C    0.073676
   109  C    0.034784
   110  C   -0.007638
   111  N   -0.324015
   112  C    0.078189
   113  C   -0.163381
   114  C    0.002121
   115  C    0.096007
   116  C    0.131547
   117  C    0.042181
   118  O   -0.188326
   119  C    0.000970
   120  C    0.211212
   121  O   -0.251183
   122  O   -0.305593
   123  C    0.152120
   124  H   -0.018959
   125  H   -0.015540
   126  H   -0.040725
   127  H   -0.000787
   128  H   -0.004242
   129  H    0.022302
   130  H    0.014705
   131  H    0.016506
   132  H    0.013868
   133  H    0.037501
   134  H    0.020812
   135  H    0.019595
   136  H    0.009143
   137  H    0.028038
   138  H    0.040194
   139  H    0.039939
   140  H    0.036446
   141  H    0.033598
   142  H    0.014333
   143  H    0.012269
   144  H    0.025032
   145  H    0.011852
   146  H    0.005554
   147  H    0.006103
   148  H    0.003488
   149  H    0.010926
   150  H    0.017700
   151  H    0.030156
   152  H    0.045724
   153  H    0.008326
   154  H    0.046758
   155  H    0.034923
   156  H    0.043751
   157  H    0.049437
   158  H    0.053400
 Sum of Mulliken charges =  -0.00000

 Dipole moment (field-independent basis, Debye):
    X=              5.3328    Y=              2.7981    Z=              2.0217  Tot=              6.3526
 Quadrupole moment (field-independent basis, Debye-Ang):
   XX=           -554.2881   YY=           -471.2154   ZZ=           -515.3195
   XY=             14.8799   XZ=             59.5742   YZ=             35.7771

 Normal termination of Gaussian 16 at Sat Sep 11 18:40:46 2021.
