 Gaussian 16, Revision A.03,
 Gaussian 16:  ES64L-G16RevA.03 25-Dec-2016

 -----------------------------------
 #p cam-b3lyp/Def2SVP td=(nstates=5)
 -----------------------------------

 --------------------------------
 TDDFT excited states in gaussian
 --------------------------------
 Symbolic Z-matrix:
 Charge =  0 Multiplicity = 1

                         Standard orientation:
 ---------------------------------------------------------------------
 Center     Atomic      Atomic             Coordinates (Angstroms)
 Number     Number       Type             X           Y           Z
 ---------------------------------------------------------------------
      1         12           0        7.818016   -0.826823    0.346504
      2          6           0        8.266480    1.952520   -1.864005
      3          6           0        8.932860    1.187378    2.865072
      4          6           0        7.863316   -3.382438    2.223575
      5          6           0        7.837190   -2.880126   -2.469386
      6          7           0        8.483421    1.284387    0.372475
      7          6           0        8.550933    2.257192   -0.530998
      8          6           0        8.879465    3.650258    0.084477
      9          6           0        9.607198    3.170364    1.419431
     10          6           0        8.943744    1.814357    1.583740
     11          6           0       11.109602    2.965328    1.254368
     12          6           0        7.589553    4.479335    0.401477
     13          6           0        7.823038    5.963908    0.696236
     14          1           0        6.831730    6.930911    0.249515
     15          7           0        7.851480   -0.968964    2.316663
     16          6           0        8.326496   -0.046071    3.187245
     17          6           0        8.128183   -0.618291    4.536288
     18          6           0        7.674014   -2.026988    4.370766
     19          6           0        7.804958   -2.192819    2.945728
     20          6           0        8.318626    0.165331    5.798595
     21          6           0        7.207569   -3.063118    5.343903
     22          8           0        7.081484   -4.293287    5.019310
     23          6           0        6.983928   -2.610258    6.728801
     24          7           0        8.065861   -2.864260   -0.034358
     25          6           0        7.984796   -3.765285    0.950815
     26          6           0        7.910448   -5.161890    0.408683
     27          6           0        7.712034   -5.013766   -1.168797
     28          6           0        7.793435   -3.470788   -1.273029
     29          6           0        9.127750   -6.054054    0.688380
     30          6           0        6.489927   -5.731826   -1.794308
     31          6           0        5.211623   -5.082185   -1.313683
     32          7           0        7.836726   -0.535836   -1.804315
     33          6           0        7.865228   -1.533131   -2.789843
     34          6           0        7.979260   -0.850657   -4.091877
     35          6           0        8.026172    0.504382   -3.770138
     36          6           0        7.972935    0.657340   -2.355196
     37          6           0        8.084540   -1.487173   -5.360024
     38          6           0        8.133707    1.857434   -4.291235
     39          8           0        8.117889    2.356843   -5.417216
     40          6           0        8.416336    2.842725   -3.072567
     41          6           0        7.478195    4.011244   -3.205840
     42          8           0        6.246718    3.861694   -3.069954
     43          8           0        8.187620    5.149849   -3.234750
     44          6           0        7.315012    6.350020   -3.336233
     45          1           0        9.487500    1.649998    3.683789
     46          1           0        7.769822   -4.287240    2.827753
     47          1           0        7.763714   -3.451601   -3.396463
     48          1           0        9.558368    4.261355   -0.510565
     49          1           0        9.369388    3.813694    2.266364
     50          1           0       11.412224    3.058635    0.211470
     51          1           0       11.307656    1.957394    1.619518
     52          1           0       11.666347    3.636071    1.909284
     53          1           0        7.184662    4.160906    1.362064
     54          1           0        6.860724    4.381959   -0.403913
     55          1           0        8.823816    6.277009    0.397371
     56          1           0        7.806789    6.104187    1.777096
     57          1           0        8.813256    1.117023    5.608417
     58          1           0        9.025728   -0.390001    6.414486
     59          1           0        7.383813    0.300149    6.342912
     60          1           0        7.911276   -2.197636    7.126692
     61          1           0        6.567988   -3.464905    7.261176
     62          1           0        6.263013   -1.792233    6.720726
     63          1           0        7.060033   -5.698919    0.826796
     64          1           0        8.563764   -5.403790   -1.726570
     65          1           0        8.882341   -6.977745    1.213046
     66          1           0        9.854184   -5.466807    1.249382
     67          1           0        9.705705   -6.328411   -0.193728
     68          1           0        6.459118   -6.773687   -1.477256
     69          1           0        6.493375   -5.716812   -2.884269
     70          1           0        5.039640   -5.565096   -0.352407
     71          1           0        4.395521   -5.289944   -2.006521
     72          1           0        5.353051   -4.018148   -1.123129
     73          1           0        7.427810   -0.936329   -6.033260
     74          1           0        7.800162   -2.537513   -5.300708
     75          1           0        9.146398   -1.353045   -5.565750
     76          1           0        9.460283    3.145018   -3.149476
     77          1           0        7.639888    6.909840   -4.213325
     78          1           0        7.363810    6.851266   -2.369395
     79          1           0        6.269313    6.166035   -3.585233
     80         12           0       -7.985202    0.743995    0.560489
     81          6           0       -8.104592   -2.271334   -1.381822
     82          6           0       -6.983623    2.353728   -2.275037
     83          6           0       -7.436439    3.317066    2.334073
     84          6           0       -7.875633   -1.260204    3.409507
     85          7           0       -7.627277    0.025857   -1.500676
     86          6           0       -7.764725   -1.128517   -2.135401
     87          6           0       -7.602951   -1.038344   -3.676596
     88          6           0       -6.708182    0.293314   -3.746955
     89          6           0       -7.154369    0.956639   -2.445571
     90          6           0       -5.215819    0.021065   -3.657073
     91          6           0       -8.976015   -0.847281   -4.411560
     92          6           0       -8.929817   -1.060463   -5.926215
     93          1           0      -10.086251   -1.667654   -6.579241
     94          7           0       -7.787367    2.647545    0.035185
     95          6           0       -7.392266    3.123894   -1.164090
     96          6           0       -7.390354    4.589245   -1.034162
     97          6           0       -7.657557    4.934357    0.388591
     98          6           0       -7.615946    3.617276    0.991606
     99          6           0       -7.229225    5.510079   -2.208700
    100          6           0       -7.896627    6.235838    1.092296
    101          8           0       -7.870788    6.324761    2.370672
    102          6           0       -8.069156    7.420511    0.238904
    103          7           0       -7.484598    0.995902    2.562562
    104          6           0       -7.355459    2.224419    3.093596
    105          6           0       -7.265919    2.161005    4.599701
    106          6           0       -7.606164    0.647124    4.986954
    107          6           0       -7.752492    0.050228    3.570015
    108          6           0       -5.916122    2.549257    5.202789
    109          6           0       -8.756868    0.422933    6.005909
    110          6           0      -10.076919    0.829332    5.391332
    111          7           0       -8.173167   -1.365875    0.986098
    112          6           0       -8.069496   -1.994353    2.246402
    113          6           0       -8.152835   -3.450992    2.014680
    114          6           0       -8.277062   -3.570834    0.622314
    115          6           0       -8.251253   -2.280967    0.026423
    116          6           0       -8.062865   -4.459046    3.015612
    117          6           0       -8.413495   -4.495729   -0.479793
    118          8           0       -8.577697   -5.711051   -0.578703
    119          6           0       -8.180763   -3.702225   -1.837208
    120          6           0       -9.283527   -4.076763   -2.789120
    121          8           0      -10.462476   -3.765508   -2.544536
    122          8           0       -8.742091   -4.545386   -3.928245
    123          6           0       -9.796208   -4.919912   -4.908240
    124          1           0       -6.448337    2.908899   -3.045836
    125          1           0       -7.353718    4.177146    3.002589
    126          1           0       -7.947685   -1.947665    4.255009
    127          1           0       -7.071067   -1.867903   -4.126827
    128          1           0       -6.980831    0.907707   -4.601090
    129          1           0       -5.007824   -1.016379   -3.441220
    130          1           0       -4.848756    0.654317   -2.860011
    131          1           0       -4.714940    0.361921   -4.567713
    132          1           0       -9.254641    0.213893   -4.379595
    133          1           0       -9.729674   -1.477408   -3.980780
    134          1           0       -8.004571   -1.555867   -6.244712
    135          1           0       -8.891819   -0.083019   -6.413220
    136          1           0       -6.885215    4.969733   -3.099242
    137          1           0       -6.405933    6.191976   -1.969824
    138          1           0       -8.127653    6.097527   -2.409729
    139          1           0       -7.185695    7.550314   -0.381666
    140          1           0       -8.318061    8.237127    0.919407
    141          1           0       -8.908681    7.241800   -0.442179
    142          1           0       -7.998063    2.814136    5.058476
    143          1           0       -6.746979    0.142854    5.453175
    144          1           0       -5.986624    3.376138    5.934476
    145          1           0       -5.244598    2.811548    4.396077
    146          1           0       -5.380360    1.739604    5.695350
    147          1           0       -8.614548    1.058091    6.883674
    148          1           0       -8.829106   -0.600858    6.357516
    149          1           0      -10.099373    1.911889    5.548397
    150          1           0      -10.903891    0.339286    5.901242
    151          1           0      -10.078164    0.653135    4.309391
    152          1           0       -8.832831   -5.186372    2.795062
    153          1           0       -8.183646   -4.041050    4.012835
    154          1           0       -7.044655   -4.816881    2.841068
    155          1           0       -7.198267   -3.984579   -2.217415
    156          1           0       -9.618500   -5.963614   -5.185367
    157          1           0       -9.734291   -4.166691   -5.716068
    158          1           0      -10.818395   -4.966952   -4.551365
 ---------------------------------------------------------------------

 SCF Done:  E(RCAM-B3LYP) =  -4069.81190231     A.U. after   19 cycles

 Excitation energies and oscillator strengths:

 Excited State   1:      Singlet-A      1.6742 eV  740.56 nm  f=0.2912  <S**2>=0.000
     310 -> 316        0.15707
     311 -> 313        0.28739
     312 -> 314        0.62298
 This state for optimization and/or second-order correction.
 Total Energy, E(TD-HF/TD-DFT) =  -4069.75037716
 Copying the excited state density for this state as the 1-particle RhoCI density.

 Excited State   2:      Singlet-A      1.6808 eV  737.66 nm  f=0.4581  <S**2>=0.000
     309 -> 315        0.15964
     311 -> 313        0.62256
     312 -> 314       -0.28731

 Excited State   3:      Singlet-A      2.1859 eV  567.19 nm  f=0.0986  <S**2>=0.000
     310 -> 314        0.64174
     312 -> 316       -0.27240

 Excited State   4:      Singlet-A      2.1927 eV  565.44 nm  f=0.1006  <S**2>=0.000
     309 -> 313        0.63993
     311 -> 315       -0.27798

 Excited State   5:      Singlet-A      2.7634 eV  448.67 nm  f=0.0000  <S**2>=0.000
     312 -> 313        0.70710

 The electronic state is 1-A.
 Alpha  occ. eigenvalues --  -46.87839 -46.87587 -19.26360 -19.26281 -19.19097
 Alpha  occ. eigenvalues --  -19.19093 -19.18847 -19.18654 -19.18227 -19.17982
 Alpha  occ. eigenvalues --  -14.42492 -14.42418 -14.41489 -14.41290 -14.39444
 Alpha  occ. eigenvalues --  -14.39279 -14.38632 -14.38528 -10.39153 -10.39022
 Alpha  occ. eigenvalues --  -10.35480 -10.35332 -10.34447 -10.34159 -10.31762
 Alpha  occ. eigenvalues --  -10.31691 -10.31451 -10.31225 -10.30951 -10.30942
 Alpha  occ. eigenvalues --  -10.30616 -10.30550 -10.30330 -10.30286 -10.30242
 Alpha  occ. eigenvalues --  -10.30074 -10.29961 -10.29832 -10.29674 -10.29364
 Alpha  occ. eigenvalues --  -10.29331 -10.29294 -10.28795 -10.28623 -10.28589
 Alpha  occ. eigenvalues --  -10.28564 -10.28409 -10.28330 -10.28160 -10.28031
 Alpha  occ. eigenvalues --  -10.27929 -10.27838 -10.27769 -10.27626 -10.27585
 Alpha  occ. eigenvalues --  -10.27529 -10.27515 -10.27476 -10.27471 -10.27449
 Alpha  occ. eigenvalues --  -10.27409 -10.27396 -10.27379 -10.27331 -10.27216
 Alpha  occ. eigenvalues --  -10.26978 -10.26756 -10.26605 -10.26436 -10.26357
 Alpha  occ. eigenvalues --  -10.26274 -10.26206 -10.26102 -10.26059 -10.25898
 Alpha  occ. eigenvalues --  -10.25881 -10.25867 -10.25790 -10.25456 -10.25364
 Alpha  occ. eigenvalues --  -10.24880 -10.24827 -10.24801 -10.24710 -10.24696
 Alpha  occ. eigenvalues --  -10.24623  -3.16582  -3.16337  -1.91464  -1.91219
 Alpha  occ. eigenvalues --   -1.91050  -1.90892  -1.90808  -1.90645  -1.16708
 Alpha  occ. eigenvalues --   -1.16575  -1.08687  -1.08590  -1.07247  -1.06908
 Alpha  occ. eigenvalues --   -1.06878  -1.06718  -1.04624  -1.04416  -1.03801
 Alpha  occ. eigenvalues --   -1.03590  -1.03276  -1.02969  -1.02453  -1.02040
 Alpha  occ. eigenvalues --   -0.92020  -0.91913  -0.89555  -0.89435  -0.89232
 Alpha  occ. eigenvalues --   -0.89053  -0.88320  -0.88166  -0.87918  -0.87725
 Alpha  occ. eigenvalues --   -0.87715  -0.87607  -0.87311  -0.87048  -0.85026
 Alpha  occ. eigenvalues --   -0.84914  -0.83970  -0.83826  -0.83000  -0.82869
 Alpha  occ. eigenvalues --   -0.82692  -0.82572  -0.81642  -0.81526  -0.80644
 Alpha  occ. eigenvalues --   -0.80371  -0.78838  -0.78563  -0.77259  -0.77067
 Alpha  occ. eigenvalues --   -0.76981  -0.76824  -0.75972  -0.75753  -0.74934
 Alpha  occ. eigenvalues --   -0.74746  -0.72817  -0.72627  -0.71714  -0.71506
 Alpha  occ. eigenvalues --   -0.69937  -0.69709  -0.68917  -0.68745  -0.67685
 Alpha  occ. eigenvalues --   -0.67532  -0.67264  -0.67121  -0.65333  -0.65188
 Alpha  occ. eigenvalues --   -0.64901  -0.64699  -0.64666  -0.64580  -0.64306
 Alpha  occ. eigenvalues --   -0.64145  -0.62356  -0.62211  -0.60479  -0.60273
 Alpha  occ. eigenvalues --   -0.59849  -0.59708  -0.59030  -0.58923  -0.58548
 Alpha  occ. eigenvalues --   -0.58356  -0.57642  -0.57484  -0.57350  -0.57174
 Alpha  occ. eigenvalues --   -0.56355  -0.56131  -0.56040  -0.55814  -0.55562
 Alpha  occ. eigenvalues --   -0.55383  -0.55381  -0.55190  -0.54573  -0.54430
 Alpha  occ. eigenvalues --   -0.53940  -0.53819  -0.53340  -0.53266  -0.53160
 Alpha  occ. eigenvalues --   -0.53066  -0.52966  -0.52828  -0.52794  -0.52590
 Alpha  occ. eigenvalues --   -0.52469  -0.52355  -0.51966  -0.51820  -0.51662
 Alpha  occ. eigenvalues --   -0.51576  -0.51243  -0.51133  -0.50604  -0.50405
 Alpha  occ. eigenvalues --   -0.50063  -0.49956  -0.49901  -0.49807  -0.49557
 Alpha  occ. eigenvalues --   -0.49411  -0.49262  -0.49142  -0.49124  -0.49018
 Alpha  occ. eigenvalues --   -0.48643  -0.48498  -0.48487  -0.48480  -0.48321
 Alpha  occ. eigenvalues --   -0.48271  -0.47736  -0.47520  -0.47337  -0.47048
 Alpha  occ. eigenvalues --   -0.46838  -0.46639  -0.46601  -0.46467  -0.46402
 Alpha  occ. eigenvalues --   -0.46208  -0.46203  -0.46023  -0.45876  -0.45753
 Alpha  occ. eigenvalues --   -0.45235  -0.45152  -0.44629  -0.44544  -0.44444
 Alpha  occ. eigenvalues --   -0.44393  -0.44184  -0.44131  -0.44066  -0.44046
 Alpha  occ. eigenvalues --   -0.44016  -0.43867  -0.43551  -0.43485  -0.43426
 Alpha  occ. eigenvalues --   -0.43310  -0.43071  -0.42862  -0.42832  -0.42760
 Alpha  occ. eigenvalues --   -0.42694  -0.42496  -0.42049  -0.41900  -0.41749
 Alpha  occ. eigenvalues --   -0.41598  -0.41577  -0.41380  -0.41182  -0.40909
 Alpha  occ. eigenvalues --   -0.40909  -0.40858  -0.40651  -0.40623  -0.40607
 Alpha  occ. eigenvalues --   -0.40431  -0.40280  -0.40143  -0.39469  -0.39378
 Alpha  occ. eigenvalues --   -0.38503  -0.38291  -0.37795  -0.37571  -0.37356
 Alpha  occ. eigenvalues --   -0.37310  -0.37202  -0.37117  -0.36775  -0.36706
 Alpha  occ. eigenvalues --   -0.36241  -0.36152  -0.34329  -0.34181  -0.33841
 Alpha  occ. eigenvalues --   -0.33794  -0.33231  -0.33104  -0.31377  -0.31213
 Alpha  occ. eigenvalues --   -0.31078  -0.30900  -0.30087  -0.29887  -0.29491
 Alpha  occ. eigenvalues --   -0.29368  -0.29256  -0.29141  -0.24123  -0.23963
 Alpha  occ. eigenvalues --   -0.21170  -0.21044
 Alpha virt. eigenvalues --   -0.08817  -0.08720  -0.01790  -0.01613  -0.00098
 Alpha virt. eigenvalues --    0.00044   0.02152   0.02274   0.03074   0.03293
 Alpha virt. eigenvalues --    0.04675   0.04813   0.05028   0.05234   0.06128

 Mulliken charges:
               1
     1  Mg   0.838640
     2  C   -0.003082
     3  C   -0.094135
     4  C   -0.045802
     5  C   -0.063922
     6  N   -0.256812
     7  C   -0.052526
     8  C   -0.013987
     9  C   -0.087016
    10  C    0.046368
    11  C    0.104779
    12  C    0.053460
    13  C   -0.071805
    14  H    0.035918
    15  N   -0.433171
    16  C    0.168493
    17  C   -0.177074
    18  C   -0.003911
    19  C    0.148734
    20  C    0.110153
    21  C    0.012338
    22  O   -0.249393
    23  C    0.062449
    24  N   -0.341124
    25  C    0.041290
    26  C   -0.028252
    27  C   -0.023979
    28  C    0.074791
    29  C    0.076121
    30  C    0.035112
    31  C   -0.004539
    32  N   -0.310408
    33  C    0.080289
    34  C   -0.169910
    35  C    0.008232
    36  C    0.082872
    37  C    0.127374
    38  C    0.045895
    39  O   -0.188801
    40  C   -0.005266
    41  C    0.212859
    42  O   -0.257488
    43  O   -0.304662
    44  C    0.157836
    45  H   -0.017490
    46  H   -0.016635
    47  H   -0.041499
    48  H    0.000903
    49  H   -0.003958
    50  H    0.025468
    51  H    0.016521
    52  H    0.016761
    53  H    0.011282
    54  H    0.043865
    55  H    0.017928
    56  H    0.018134
    57  H    0.005937
    58  H    0.026967
    59  H    0.039644
    60  H    0.037408
    61  H    0.035819
    62  H    0.031464
    63  H    0.016755
    64  H    0.009513
    65  H    0.023434
    66  H    0.012536
    67  H    0.004824
    68  H    0.006665
    69  H    0.004641
    70  H    0.009064
    71  H    0.018154
    72  H    0.028702
    73  H    0.047177
    74  H    0.009133
    75  H    0.046071
    76  H    0.035213
    77  H    0.042871
    78  H    0.046560
    79  H    0.053229
    80  Mg   0.837980
    81  C   -0.016800
    82  C   -0.087526
    83  C   -0.045559
    84  C   -0.064956
    85  N   -0.254616
    86  C   -0.049704
    87  C   -0.015124
    88  C   -0.090490
    89  C    0.045688
    90  C    0.114181
    91  C    0.062495
    92  C   -0.077884
    93  H    0.034602
    94  N   -0.423539
    95  C    0.162850
    96  C   -0.174292
    97  C   -0.007931
    98  C    0.152243
    99  C    0.099233
   100  C    0.015534
   101  O   -0.253482
   102  C    0.061209
   103  N   -0.350043
   104  C    0.037587
   105  C   -0.019808
   106  C   -0.034782
   107  C    0.088918
   108  C    0.073731
   109  C    0.034813
   110  C   -0.007638
   111  N   -0.324093
   112  C    0.078411
   113  C   -0.163241
   114  C    0.002252
   115  C    0.096137
   116  C    0.131503
   117  C    0.042314
   118  O   -0.188078
   119  C    0.000998
   120  C    0.211197
   121  O   -0.251123
   122  O   -0.305548
   123  C    0.152081
   124  H   -0.018925
   125  H   -0.015830
   126  H   -0.040686
   127  H   -0.000540
   128  H   -0.004189
   129  H    0.022439
   130  H    0.014912
   131  H    0.017223
   132  H    0.013854
   133  H    0.037477
   134  H    0.021017
   135  H    0.019742
   136  H    0.009205
   137  H    0.026467
   138  H    0.039649
   139  H    0.038440
   140  H    0.036116
   141  H    0.033883
   142  H    0.014204
   143  H    0.012269
   144  H    0.024729
   145  H    0.011852
   146  H    0.005424
   147  H    0.005950
   148  H    0.003557
   149  H    0.010820
   150  H    0.017776
   151  H    0.030273
   152  H    0.045839
   153  H    0.008319
   154  H    0.046997
   155  H    0.035182
   156  H    0.043784
   157  H    0.049618
   158  H    0.053447
 Sum of Mulliken charges =  -0.00000

 Dipole moment (field-independent basis, Debye):
    X=              4.4890    Y=              3.9245    Z=              1.4944  Tot=              6.1471
 Quadrupole moment (field-independent basis, Debye-Ang):
   XX=           -519.3367   YY=           -516.3929   ZZ=           -482.4810
   XY=            -16.3137   XZ=             50.6177   YZ=             14.4226

 Normal termination of Gaussian 16 at Sat Sep 11 19:03:09 2021.
