 Gaussian 16, Revision A.03,
 Gaussian 16:  ES64L-G16RevA.03 25-Dec-2016

 -----------------------------------
 #p cam-b3lyp/Def2SVP td=(nstates=5)
 -----------------------------------

 --------------------------------
 TDDFT excited states in gaussian
 --------------------------------
 Symbolic Z-matrix:
 Charge =  0 Multiplicity = 1

                         Standard orientation:
 ---------------------------------------------------------------------
 Center     Atomic      Atomic             Coordinates (Angstroms)
 Number     Number       Type             X           Y           Z
 ---------------------------------------------------------------------
      1         12           0        4.512960    0.461881    1.310009
      2          6           0        5.269309   -2.476057   -0.589642
      3          6           0        6.116563    2.257553   -1.108065
      4          6           0        4.257142    3.007608    3.183629
      5          6           0        3.998142   -1.624049    4.054006
      6          7           0        5.522192   -0.145668   -0.564286
      7          6           0        5.690160   -1.296579   -1.207995
      8          6           0        6.287828   -1.124035   -2.636419
      9          6           0        7.013649    0.281531   -2.437507
     10          6           0        6.145466    0.848369   -1.328058
     11          6           0        8.445978    0.160785   -1.927255
     12          6           0        5.179115   -1.045278   -3.739272
     13          6           0        5.676911   -1.204652   -5.178769
     14          1           0        4.833331   -1.900916   -6.138424
     15          7           0        4.655311    2.385702    0.883985
     16          6           0        5.335699    2.938232   -0.149005
     17          6           0        5.136174    4.398905   -0.033654
     18          6           0        4.442736    4.662851    1.257691
     19          6           0        4.447462    3.348054    1.846475
     20          6           0        5.539854    5.371193   -1.099228
     21          6           0        3.876498    5.905204    1.869299
     22          8           0        3.524859    5.959446    3.097298
     23          6           0        3.825870    7.098532    1.005328
     24          7           0        4.390346    0.694355    3.380892
     25          6           0        4.226571    1.902395    3.931168
     26          6           0        3.883287    1.797006    5.387529
     27          6           0        3.606239    0.249195    5.665521
     28          6           0        3.937234   -0.306243    4.258326
     29          6           0        4.950374    2.308106    6.365339
     30          6           0        2.241826   -0.117863    6.301182
     31          6           0        1.125592    0.169919    5.322253
     32          7           0        4.434600   -1.679225    1.657243
     33          6           0        4.229263   -2.327518    2.883712
     34          6           0        4.367502   -3.774442    2.635983
     35          6           0        4.661950   -3.866964    1.277092
     36          6           0        4.730823   -2.559233    0.717280
     37          6           0        4.278896   -4.800262    3.617958
     38          6           0        4.958712   -4.765167    0.172999
     39          8           0        4.950525   -5.987915    0.023625
     40          6           0        5.483835   -3.895428   -1.053226
     41          6           0        4.747434   -4.352393   -2.282943
     42          8           0        3.520332   -4.159287   -2.402517
     43          8           0        5.633640   -4.726527   -3.218467
     44          6           0        4.969139   -5.163464   -4.475319
     45          1           0        6.794808    2.894885   -1.678795
     46          1           0        4.054752    3.852917    3.844635
     47          1           0        3.767646   -2.340353    4.844723
     48          1           0        7.017541   -1.883217   -2.918529
     49          1           0        6.944559    0.904945   -3.328744
     50          1           0        8.688729   -0.867903   -1.661182
     51          1           0        8.496952    0.803541   -1.048188
     52          1           0        9.150016    0.580259   -2.646386
     53          1           0        4.792568   -0.027318   -3.788269
     54          1           0        4.391504   -1.774764   -3.547316
     55          1           0        6.693422   -1.598068   -5.207723
     56          1           0        5.757458   -0.212975   -5.624067
     57          1           0        6.172632    4.901386   -1.851171
     58          1           0        6.184154    6.112247   -0.626550
     59          1           0        4.679710    5.866145   -1.550346
     60          1           0        4.833902    7.342685    0.669455
     61          1           0        3.309853    7.865487    1.581831
     62          1           0        3.252998    6.861062    0.108458
     63          1           0        2.985295    2.367989    5.619944
     64          1           0        4.341084   -0.182131    6.345694
     65          1           0        4.590026    3.085377    7.039656
     66          1           0        5.801010    2.659799    5.782225
     67          1           0        5.413344    1.537075    6.980632
     68          1           0        2.058765    0.492501    7.184862
     69          1           0        2.174036   -1.163787    6.600680
     70          1           0        0.940680    1.233361    5.469663
     71          1           0        0.241293   -0.418143    5.570064
     72          1           0        1.455484    0.036309    4.291814
     73          1           0        3.679515   -5.595572    3.175022
     74          1           0        3.827581   -4.429709    4.538072
     75          1           0        5.331860   -5.052910    3.741623
     76          1           0        6.556006   -4.074256   -1.127994
     77          1           0        5.322987   -6.171514   -4.691795
     78          1           0        5.166309   -4.388093   -5.215812
     79          1           0        3.892990   -5.330866   -4.418587
     80         12           0       -4.136024    0.465021   -1.161420
     81          6           0       -6.547704   -1.635062    0.467243
     82          6           0       -6.474637    2.947197   -1.095827
     83          6           0       -2.205900    2.195898   -2.990655
     84          6           0       -2.455836   -2.437011   -2.110558
     85          7           0       -6.206889    0.526749   -0.386843
     86          6           0       -6.995669   -0.312685    0.267003
     87          6           0       -8.306975    0.322033    0.802898
     88          6           0       -8.418435    1.549255   -0.226846
     89          6           0       -6.939535    1.715185   -0.570359
     90          6           0       -9.168455    1.199235   -1.501325
     91          6           0       -8.166469    0.824758    2.282611
     92          6           0       -9.487762    1.172332    2.971908
     93          1           0       -9.623046    0.892740    4.398789
     94          7           0       -4.103336    2.419295   -1.505352
     95          6           0       -5.138373    3.279925   -1.408903
     96          6           0       -4.602429    4.597440   -1.784515
     97          6           0       -3.207244    4.415451   -2.269327
     98          6           0       -3.123350    2.968924   -2.294039
     99          6           0       -5.370046    5.873077   -1.592243
    100          6           0       -2.131415    5.383059   -2.659863
    101          8           0       -1.075282    5.002175   -3.278195
    102          6           0       -2.393274    6.802481   -2.380294
    103          7           0       -2.678070   -0.046307   -2.552559
    104          6           0       -1.947938    0.900057   -3.168371
    105          6           0       -0.782569    0.292175   -3.911864
    106          6           0       -0.742369   -1.243172   -3.466149
    107          6           0       -2.000889   -1.280031   -2.571625
    108          6           0       -0.848708    0.377653   -5.436559
    109          6           0        0.596058   -1.771342   -2.881063
    110          6           0        0.871681   -1.113920   -1.547942
    111          7           0       -4.315641   -1.645759   -0.736648
    112          6           0       -3.523975   -2.691508   -1.259859
    113          6           0       -4.099829   -3.960589   -0.769690
    114          6           0       -5.209036   -3.563023   -0.008038
    115          6           0       -5.328702   -2.147327   -0.039085
    116          6           0       -3.624552   -5.265377   -1.082316
    117          6           0       -6.312117   -4.019692    0.806438
    118          8           0       -6.668381   -5.108626    1.254792
    119          6           0       -7.302017   -2.799527    1.046608
    120          6           0       -7.639443   -2.756610    2.511805
    121          8           0       -6.761206   -2.504724    3.355528
    122          8           0       -8.976172   -2.804018    2.657716
    123          6           0       -9.360722   -2.752995    4.093449
    124          1           0       -7.206782    3.720174   -1.331093
    125          1           0       -1.448847    2.751389   -3.549017
    126          1           0       -1.932378   -3.380076   -2.281729
    127          1           0       -9.183094   -0.310378    0.723909
    128          1           0       -8.798745    2.442163    0.262484
    129          1           0       -9.401034    0.146104   -1.555620
    130          1           0       -8.514857    1.484799   -2.315142
    131          1           0      -10.060567    1.824715   -1.597579
    132          1           0       -7.689581    1.813345    2.281149
    133          1           0       -7.624980    0.114370    2.876556
    134          1           0      -10.354083    0.786590    2.420879
    135          1           0       -9.616549    2.257172    2.948402
    136          1           0       -6.426759    5.677371   -1.372083
    137          1           0       -5.384718    6.386362   -2.559810
    138          1           0       -4.913832    6.531379   -0.849841
    139          1           0       -3.301356    7.110055   -2.893367
    140          1           0       -1.474058    7.327377   -2.647509
    141          1           0       -2.583296    6.918486   -1.307428
    142          1           0        0.148393    0.765776   -3.625313
    143          1           0       -0.938247   -1.918303   -4.312120
    144          1           0        0.026434    0.885953   -5.883591
    145          1           0       -1.764122    0.885053   -5.710594
    146          1           0       -0.951817   -0.577527   -5.948611
    147          1           0        1.427993   -1.503581   -3.537069
    148          1           0        0.617802   -2.848887   -2.756857
    149          1           0        1.329328   -0.161668   -1.832323
    150          1           0        1.555428   -1.719352   -0.956341
    151          1           0       -0.062122   -0.886453   -1.020761
    152          1           0       -3.634847   -5.829898   -0.159443
    153          1           0       -2.627980   -5.231796   -1.517624
    154          1           0       -4.379293   -5.579093   -1.808421
    155          1           0       -8.184549   -2.966991    0.427992
    156          1           0       -9.982206   -3.632277    4.289171
    157          1           0       -9.829064   -1.761904    4.242239
    158          1           0       -8.574310   -2.882135    4.827841
 ---------------------------------------------------------------------

 SCF Done:  E(RCAM-B3LYP) =  -4069.81552098     A.U. after   19 cycles

 Excitation energies and oscillator strengths:

 Excited State   1:      Singlet-A      1.6436 eV  754.34 nm  f=0.0045  <S**2>=0.000
     309 -> 315       -0.11155
     310 -> 316        0.12271
     311 -> 313       -0.46027
     312 -> 314        0.51101
 This state for optimization and/or second-order correction.
 Total Energy, E(TD-HF/TD-DFT) =  -4069.75511930
 Copying the excited state density for this state as the 1-particle RhoCI density.

 Excited State   2:      Singlet-A      1.7029 eV  728.08 nm  f=0.6938  <S**2>=0.000
     309 -> 315        0.13515
     310 -> 316        0.12054
     311 -> 313        0.50849
     312 -> 314        0.45791

 Excited State   3:      Singlet-A      2.1808 eV  568.53 nm  f=0.0646  <S**2>=0.000
     309 -> 313        0.20260
     310 -> 314        0.61172
     312 -> 316       -0.25520

 Excited State   4:      Singlet-A      2.1966 eV  564.44 nm  f=0.1248  <S**2>=0.000
     309 -> 313        0.60772
     310 -> 314       -0.19912
     311 -> 315       -0.26648

 Excited State   5:      Singlet-A      2.3941 eV  517.87 nm  f=0.0000  <S**2>=0.000
     312 -> 313        0.70659

 The electronic state is 1-A.
 Alpha  occ. eigenvalues --  -46.87726 -46.87361 -19.26617 -19.26175 -19.19513
 Alpha  occ. eigenvalues --  -19.18974 -19.18712 -19.18560 -19.18198 -19.17809
 Alpha  occ. eigenvalues --  -14.42407 -14.42213 -14.41379 -14.41020 -14.39327
 Alpha  occ. eigenvalues --  -14.39068 -14.38543 -14.38299 -10.39470 -10.38897
 Alpha  occ. eigenvalues --  -10.35341 -10.35245 -10.34435 -10.33985 -10.31968
 Alpha  occ. eigenvalues --  -10.31610 -10.31392 -10.31015 -10.30898 -10.30782
 Alpha  occ. eigenvalues --  -10.30527 -10.30448 -10.30097 -10.30091 -10.30047
 Alpha  occ. eigenvalues --  -10.29861 -10.29766 -10.29568 -10.29539 -10.29160
 Alpha  occ. eigenvalues --  -10.29149 -10.29108 -10.28832 -10.28720 -10.28508
 Alpha  occ. eigenvalues --  -10.28499 -10.28340 -10.28146 -10.28145 -10.27915
 Alpha  occ. eigenvalues --  -10.27728 -10.27723 -10.27671 -10.27506 -10.27410
 Alpha  occ. eigenvalues --  -10.27383 -10.27362 -10.27339 -10.27304 -10.27280
 Alpha  occ. eigenvalues --  -10.27258 -10.27206 -10.27193 -10.26939 -10.26922
 Alpha  occ. eigenvalues --  -10.26890 -10.26820 -10.26507 -10.26338 -10.26248
 Alpha  occ. eigenvalues --  -10.26243 -10.25979 -10.25929 -10.25821 -10.25743
 Alpha  occ. eigenvalues --  -10.25530 -10.25440 -10.25340 -10.25116 -10.25019
 Alpha  occ. eigenvalues --  -10.24794 -10.24728 -10.24599 -10.24428 -10.24392
 Alpha  occ. eigenvalues --  -10.23793  -3.16463  -3.16111  -1.91343  -1.90993
 Alpha  occ. eigenvalues --   -1.90932  -1.90774  -1.90581  -1.90419  -1.16975
 Alpha  occ. eigenvalues --   -1.16465  -1.08685  -1.08420  -1.07111  -1.07049
 Alpha  occ. eigenvalues --   -1.06823  -1.06757  -1.04549  -1.04218  -1.03697
 Alpha  occ. eigenvalues --   -1.03361  -1.03171  -1.02715  -1.02353  -1.01804
 Alpha  occ. eigenvalues --   -0.91988  -0.91711  -0.89426  -0.89232  -0.89054
 Alpha  occ. eigenvalues --   -0.88887  -0.88188  -0.87808  -0.87716  -0.87640
 Alpha  occ. eigenvalues --   -0.87476  -0.87382  -0.87162  -0.86891  -0.85014
 Alpha  occ. eigenvalues --   -0.84753  -0.83847  -0.83368  -0.82850  -0.82678
 Alpha  occ. eigenvalues --   -0.82654  -0.82353  -0.81673  -0.81327  -0.80599
 Alpha  occ. eigenvalues --   -0.80176  -0.78707  -0.78363  -0.77177  -0.76969
 Alpha  occ. eigenvalues --   -0.76858  -0.76553  -0.75949  -0.75577  -0.74833
 Alpha  occ. eigenvalues --   -0.74431  -0.72714  -0.72373  -0.71648  -0.71295
 Alpha  occ. eigenvalues --   -0.69764  -0.69122  -0.68881  -0.68554  -0.67619
 Alpha  occ. eigenvalues --   -0.67325  -0.67249  -0.66992  -0.65331  -0.65022
 Alpha  occ. eigenvalues --   -0.64874  -0.64616  -0.64459  -0.64351  -0.64183
 Alpha  occ. eigenvalues --   -0.63689  -0.62415  -0.61985  -0.60344  -0.60060
 Alpha  occ. eigenvalues --   -0.59813  -0.59545  -0.58962  -0.58678  -0.58493
 Alpha  occ. eigenvalues --   -0.58111  -0.57719  -0.57309  -0.57255  -0.56879
 Alpha  occ. eigenvalues --   -0.56321  -0.56097  -0.55909  -0.55649  -0.55487
 Alpha  occ. eigenvalues --   -0.55343  -0.55233  -0.54883  -0.54577  -0.54065
 Alpha  occ. eigenvalues --   -0.53953  -0.53683  -0.53255  -0.53218  -0.53011
 Alpha  occ. eigenvalues --   -0.52967  -0.52848  -0.52677  -0.52626  -0.52486
 Alpha  occ. eigenvalues --   -0.52285  -0.51866  -0.51673  -0.51622  -0.51495
 Alpha  occ. eigenvalues --   -0.51443  -0.51187  -0.50832  -0.50423  -0.50261
 Alpha  occ. eigenvalues --   -0.49946  -0.49839  -0.49742  -0.49545  -0.49378
 Alpha  occ. eigenvalues --   -0.49262  -0.49194  -0.49114  -0.48968  -0.48829
 Alpha  occ. eigenvalues --   -0.48637  -0.48444  -0.48354  -0.48319  -0.48152
 Alpha  occ. eigenvalues --   -0.48012  -0.47665  -0.47308  -0.47242  -0.46854
 Alpha  occ. eigenvalues --   -0.46755  -0.46596  -0.46391  -0.46328  -0.46271
 Alpha  occ. eigenvalues --   -0.46129  -0.45933  -0.45869  -0.45753  -0.45534
 Alpha  occ. eigenvalues --   -0.45121  -0.44838  -0.44607  -0.44460  -0.44293
 Alpha  occ. eigenvalues --   -0.44164  -0.44136  -0.44047  -0.43981  -0.43902
 Alpha  occ. eigenvalues --   -0.43725  -0.43636  -0.43561  -0.43374  -0.43230
 Alpha  occ. eigenvalues --   -0.43093  -0.43009  -0.42896  -0.42693  -0.42603
 Alpha  occ. eigenvalues --   -0.42545  -0.42124  -0.41957  -0.41696  -0.41545
 Alpha  occ. eigenvalues --   -0.41490  -0.41373  -0.41117  -0.41079  -0.40866
 Alpha  occ. eigenvalues --   -0.40768  -0.40716  -0.40552  -0.40480  -0.40395
 Alpha  occ. eigenvalues --   -0.40319  -0.40042  -0.39875  -0.39283  -0.38773
 Alpha  occ. eigenvalues --   -0.38392  -0.37896  -0.37836  -0.37416  -0.37286
 Alpha  occ. eigenvalues --   -0.37245  -0.36964  -0.36953  -0.36801  -0.36521
 Alpha  occ. eigenvalues --   -0.36215  -0.35824  -0.34269  -0.34115  -0.33946
 Alpha  occ. eigenvalues --   -0.33653  -0.33152  -0.32870  -0.31249  -0.31120
 Alpha  occ. eigenvalues --   -0.31005  -0.30680  -0.30071  -0.29711  -0.29372
 Alpha  occ. eigenvalues --   -0.29263  -0.29069  -0.28927  -0.24042  -0.23733
 Alpha  occ. eigenvalues --   -0.21068  -0.20811
 Alpha virt. eigenvalues --   -0.08711  -0.08508  -0.01686  -0.01383   0.00004
 Alpha virt. eigenvalues --    0.00189   0.02220   0.02489   0.02983   0.03856
 Alpha virt. eigenvalues --    0.04666   0.04726   0.05010   0.05365   0.05974

 Mulliken charges:
               1
     1  Mg   0.835583
     2  C   -0.006227
     3  C   -0.093082
     4  C   -0.045263
     5  C   -0.062861
     6  N   -0.256672
     7  C   -0.054973
     8  C   -0.011754
     9  C   -0.087249
    10  C    0.046423
    11  C    0.104752
    12  C    0.042901
    13  C   -0.071594
    14  H    0.034163
    15  N   -0.433163
    16  C    0.169491
    17  C   -0.175074
    18  C   -0.002750
    19  C    0.149192
    20  C    0.109558
    21  C    0.013247
    22  O   -0.250015
    23  C    0.061036
    24  N   -0.340684
    25  C    0.041640
    26  C   -0.028200
    27  C   -0.024074
    28  C    0.074729
    29  C    0.076237
    30  C    0.034919
    31  C   -0.005178
    32  N   -0.310740
    33  C    0.080849
    34  C   -0.169179
    35  C    0.006291
    36  C    0.081956
    37  C    0.127171
    38  C    0.044989
    39  O   -0.188969
    40  C   -0.005827
    41  C    0.216488
    42  O   -0.260761
    43  O   -0.303221
    44  C    0.157192
    45  H   -0.017697
    46  H   -0.016684
    47  H   -0.040758
    48  H    0.000525
    49  H   -0.003554
    50  H    0.025404
    51  H    0.017102
    52  H    0.016856
    53  H    0.012508
    54  H    0.048641
    55  H    0.018927
    56  H    0.019572
    57  H    0.005718
    58  H    0.026178
    59  H    0.044120
    60  H    0.036985
    61  H    0.034550
    62  H    0.035513
    63  H    0.016905
    64  H    0.009314
    65  H    0.023155
    66  H    0.012232
    67  H    0.004839
    68  H    0.006216
    69  H    0.005516
    70  H    0.008056
    71  H    0.021551
    72  H    0.028971
    73  H    0.047566
    74  H    0.010307
    75  H    0.045727
    76  H    0.035865
    77  H    0.044482
    78  H    0.047235
    79  H    0.052085
    80  Mg   0.837229
    81  C   -0.017704
    82  C   -0.088418
    83  C   -0.046031
    84  C   -0.064227
    85  N   -0.254674
    86  C   -0.049784
    87  C   -0.015127
    88  C   -0.090354
    89  C    0.045455
    90  C    0.114599
    91  C    0.062628
    92  C   -0.077498
    93  H    0.034079
    94  N   -0.423166
    95  C    0.162482
    96  C   -0.175244
    97  C   -0.008624
    98  C    0.151954
    99  C    0.099487
   100  C    0.014821
   101  O   -0.256094
   102  C    0.061679
   103  N   -0.350401
   104  C    0.037680
   105  C   -0.018642
   106  C   -0.038524
   107  C    0.089424
   108  C    0.074994
   109  C    0.039757
   110  C   -0.029399
   111  N   -0.324335
   112  C    0.079107
   113  C   -0.161617
   114  C    0.001727
   115  C    0.096652
   116  C    0.130419
   117  C    0.042392
   118  O   -0.188188
   119  C    0.000944
   120  C    0.211214
   121  O   -0.251409
   122  O   -0.305631
   123  C    0.152262
   124  H   -0.020727
   125  H   -0.017400
   126  H   -0.035167
   127  H   -0.001089
   128  H   -0.004917
   129  H    0.022121
   130  H    0.014325
   131  H    0.015508
   132  H    0.013996
   133  H    0.037434
   134  H    0.020568
   135  H    0.019370
   136  H    0.008371
   137  H    0.024900
   138  H    0.039106
   139  H    0.038297
   140  H    0.032944
   141  H    0.034634
   142  H    0.012726
   143  H    0.011383
   144  H    0.021600
   145  H    0.010180
   146  H    0.005109
   147  H    0.005129
   148  H    0.019214
   149  H    0.008143
   150  H    0.043454
   151  H    0.023331
   152  H    0.046252
   153  H    0.013740
   154  H    0.045873
   155  H    0.034485
   156  H    0.043567
   157  H    0.049264
   158  H    0.053154
 Sum of Mulliken charges =  -0.00000

 Dipole moment (field-independent basis, Debye):
    X=              0.8638    Y=              6.6270    Z=             -2.9279  Tot=              7.2963
 Quadrupole moment (field-independent basis, Debye-Ang):
   XX=           -450.1620   YY=           -538.9581   ZZ=           -484.0628
   XY=            -23.1370   XZ=            -15.3677   YZ=              1.5738

 Normal termination of Gaussian 16 at Thu Sep  9 14:59:44 2021.
