 Gaussian 16, Revision A.03,
 Gaussian 16:  ES64L-G16RevA.03 25-Dec-2016

 -----------------------------------
 #p cam-b3lyp/Def2SVP td=(nstates=5)
 -----------------------------------

 --------------------------------
 TDDFT excited states in gaussian
 --------------------------------
 Symbolic Z-matrix:
 Charge =  0 Multiplicity = 1

                         Standard orientation:
 ---------------------------------------------------------------------
 Center     Atomic      Atomic             Coordinates (Angstroms)
 Number     Number       Type             X           Y           Z
 ---------------------------------------------------------------------
      1         12           0       -7.856761   -0.694187    0.300899
      2          6           0       -8.045022    2.835445   -0.263438
      3          6           0       -8.829416   -1.114274   -2.942638
      4          6           0       -8.137828   -3.795443    0.900759
      5          6           0       -8.013795   -0.007732    3.714076
      6          7           0       -8.343714    0.754495   -1.300615
      7          6           0       -8.318921    2.079474   -1.405424
      8          6           0       -8.537241    2.588215   -2.861753
      9          6           0       -9.318412    1.330505   -3.453305
     10          6           0       -8.772579    0.251525   -2.534724
     11          6           0      -10.830615    1.411768   -3.271258
     12          6           0       -7.186449    2.830125   -3.615788
     13          6           0       -7.298587    3.630194   -4.916814
     14          1           0       -6.224691    4.546208   -5.270386
     15          7           0       -7.925504   -2.236470   -0.931776
     16          6           0       -8.332114   -2.222913   -2.223972
     17          6           0       -8.198425   -3.613809   -2.707931
     18          6           0       -7.861594   -4.472141   -1.538356
     19          6           0       -7.988911   -3.527681   -0.458002
     20          6           0       -8.337790   -4.000831   -4.148258
     21          6           0       -7.495000   -5.917143   -1.413020
     22          8           0       -7.468267   -6.516629   -0.284093
     23          6           0       -7.250856   -6.644513   -2.671737
     24          7           0       -8.269399   -1.772458    2.040064
     25          6           0       -8.275665   -3.109970    2.037586
     26          6           0       -8.311793   -3.658406    3.433240
     27          6           0       -8.082876   -2.411592    4.404221
     28          6           0       -8.033829   -1.288702    3.338866
     29          6           0       -9.602630   -4.386351    3.833051
     30          6           0       -6.917654   -2.515997    5.419985
     31          6           0       -5.595372   -2.514688    4.686045
     32          7           0       -7.825412    1.084754    1.544053
     33          6           0       -7.925367    1.138436    2.941838
     34          6           0       -7.966427    2.563639    3.317575
     35          6           0       -7.903802    3.244287    2.103227
     36          6           0       -7.854870    2.303646    1.035008
     37          6           0       -8.109369    3.073529    4.638186
     38          6           0       -7.891685    4.547262    1.458272
     39          8           0       -7.820755    5.711030    1.855897
     40          6           0       -8.105538    4.334403   -0.105309
     41          6           0       -7.071525    5.159374   -0.821931
     42          8           0       -5.858559    4.878063   -0.738606
     43          8           0       -7.682946    5.995141   -1.675278
     44          6           0       -6.711967    6.822375   -2.440155
     45          1           0       -9.353201   -1.367889   -3.866364
     46          1           0       -8.127476   -4.856185    1.159907
     47          1           0       -7.977257    0.283575    4.765389
     48          1           0       -9.155562    3.482371   -2.942930
     49          1           0       -9.037814    1.126248   -4.486391
     50          1           0      -11.111910    2.261300   -2.649092
     51          1           0      -11.116534    0.476257   -2.790048
     52          1           0      -11.337154    1.419132   -4.236733
     53          1           0       -6.821077    1.882553   -4.011607
     54          1           0       -6.458739    3.308955   -2.959674
     55          1           0       -8.266067    4.126591   -4.997328
     56          1           0       -7.283581    2.929056   -5.751307
     57          1           0       -8.748872   -3.186628   -4.743766
     58          1           0       -9.096120   -4.782084   -4.196086
     59          1           0       -7.401547   -4.371208   -4.566113
     60          1           0       -8.145173   -6.598075   -3.293500
     61          1           0       -6.914161   -7.639706   -2.383503
     62          1           0       -6.464072   -6.133845   -3.227739
     63          1           0       -7.514272   -4.383719    3.589151
     64          1           0       -8.957494   -2.208922    5.022802
     65          1           0       -9.441534   -5.411306    4.168044
     66          1           0      -10.284107   -4.355170    2.983400
     67          1           0      -10.190913   -3.885076    4.601207
     68          1           0       -6.977785   -3.453993    5.970888
     69          1           0       -6.906820   -1.704238    6.147433
     70          1           0       -5.475827   -3.558503    4.397963
     71          1           0       -4.791267   -2.198785    5.351501
     72          1           0       -5.649672   -1.927723    3.768980
     73          1           0       -7.400922    3.897211    4.725479
     74          1           0       -7.914468    2.302739    5.383505
     75          1           0       -9.153776    3.384697    4.622554
     76          1           0       -9.119586    4.663135   -0.330616
     77          1           0       -6.978439    7.866173   -2.273688
     78          1           0       -6.730257    6.452841   -3.465589
     79          1           0       -5.682397    6.812971   -2.080661
     80         12           0        8.018447   -0.827394   -0.162710
     81          6           0        7.871053    2.613780    0.845097
     82          6           0        7.060273    0.197303   -3.271808
     83          6           0        7.701686   -3.881329   -0.963065
     84          6           0        7.840878   -1.679049    3.212034
     85          7           0        7.556109    1.173584   -0.984034
     86          6           0        7.594015    2.414889   -0.523533
     87          6           0        7.398663    3.509129   -1.607065
     88          6           0        6.599774    2.634192   -2.691098
     89          6           0        7.126241    1.248589   -2.322841
     90          6           0        5.094656    2.644450   -2.481687
     91          6           0        8.762093    4.031007   -2.182148
     92          6           0        8.660999    5.310741   -3.015110
     93          1           0        9.753555    6.276897   -2.942028
     94          7           0        7.943365   -1.685317   -1.950691
     95          6           0        7.551936   -1.116666   -3.110304
     96          6           0        7.658125   -2.170573   -4.131177
     97          6           0        7.986579   -3.452219   -3.449855
     98          6           0        7.866842   -3.051399   -2.062373
     99          6           0        7.532383   -1.894897   -5.601418
    100          6           0        8.336415   -4.816470   -3.962339
    101          8           0        8.350595   -5.841544   -3.193019
    102          6           0        8.570663   -4.933153   -5.409052
    103          7           0        7.589895   -2.536883    0.940171
    104          6           0        7.562837   -3.747684    0.356097
    105          6           0        7.508588   -4.849621    1.387206
    106          6           0        7.749877   -4.132081    2.795925
    107          6           0        7.815920   -2.663073    2.323643
    108          6           0        6.206299   -5.648164    1.439547
    109          6           0        8.908007   -4.678671    3.674932
    110          6           0       10.237107   -4.391679    3.014242
    111          7           0        8.066328    0.239720    1.715336
    112          6           0        7.951181   -0.309019    3.011367
    113          6           0        7.924121    0.821474    3.961982
    114          6           0        8.002856    1.959348    3.144949
    115          6           0        8.053604    1.566408    1.780206
    116          6           0        7.788700    0.717050    5.375090
    117          6           0        8.043860    3.403877    3.126082
    118          8           0        8.118173    4.282085    3.984543
    119          6           0        7.832834    3.895910    1.629495
    120          6           0        8.880638    4.932475    1.329228
    121          8           0       10.084813    4.623330    1.297927
    122          8           0        8.277362    6.062226    0.916800
    123          6           0        9.275921    7.116738    0.596339
    124          1           0        6.545942    0.381636   -4.215402
    125          1           0        7.698213   -4.952572   -1.177309
    126          1           0        7.885816   -1.864381    4.287346
    127          1           0        6.797236    4.354694   -1.295483
    128          1           0        6.893085    2.896672   -3.704231
    129          1           0        4.818821    3.144177   -1.564997
    130          1           0        4.794828    1.605116   -2.451013
    131          1           0        4.595651    3.076451   -3.353871
    132          1           0        9.116555    3.333363   -2.951816
    133          1           0        9.479872    4.166858   -1.396672
    134          1           0        7.694683    5.812693   -2.883907
    135          1           0        8.680140    5.038509   -4.073183
    136          1           0        7.127367   -0.892921   -5.789619
    137          1           0        6.766459   -2.574840   -5.989887
    138          1           0        8.464886   -2.066346   -6.143382
    139          1           0        7.682733   -4.608039   -5.946030
    140          1           0        8.895045   -5.963003   -5.570445
    141          1           0        9.377088   -4.246351   -5.689408
    142          1           0        8.297326   -5.573239    1.221750
    143          1           0        6.869415   -4.212520    3.450261
    144          1           0        6.354877   -6.735261    1.297366
    145          1           0        5.534265   -5.254779    0.688446
    146          1           0        5.627184   -5.527792    2.353521
    147          1           0        8.834525   -5.765222    3.765307
    148          1           0        8.916129   -4.271696    4.680558
    149          1           0       10.340951   -5.214797    2.300948
    150          1           0       11.040076   -4.402046    3.748537
    151          1           0       10.197335   -3.459670    2.438562
    152          1           0        8.498692    1.409228    5.807889
    153          1           0        7.965194   -0.300554    5.717290
    154          1           0        6.743296    1.014391    5.493340
    155          1           0        6.823027    4.301712    1.557379
    156          1           0        9.016894    7.994836    1.195949
    157          1           0        9.246763    7.231415   -0.503550
    158          1           0       10.301166    6.946022    0.903226
 ---------------------------------------------------------------------

 SCF Done:  E(RCAM-B3LYP) =  -4069.81173474     A.U. after   19 cycles

 Excitation energies and oscillator strengths:

 Excited State   1:      Singlet-A      1.6705 eV  742.21 nm  f=0.0493  <S**2>=0.000
     309 -> 315       -0.10170
     310 -> 316        0.13938
     311 -> 313       -0.40293
     312 -> 314        0.55561
 This state for optimization and/or second-order correction.
 Total Energy, E(TD-HF/TD-DFT) =  -4069.75034601
 Copying the excited state density for this state as the 1-particle RhoCI density.

 Excited State   2:      Singlet-A      1.6845 eV  736.02 nm  f=0.7066  <S**2>=0.000
     309 -> 315        0.14317
     310 -> 316        0.10309
     311 -> 313        0.55482
     312 -> 314        0.40244

 Excited State   3:      Singlet-A      2.1852 eV  567.38 nm  f=0.0642  <S**2>=0.000
     309 -> 313       -0.12943
     310 -> 314        0.62962
     312 -> 316       -0.26682

 Excited State   4:      Singlet-A      2.1930 eV  565.36 nm  f=0.1299  <S**2>=0.000
     309 -> 313        0.62756
     310 -> 314        0.12840
     311 -> 315       -0.27297

 Excited State   5:      Singlet-A      2.7643 eV  448.51 nm  f=0.0000  <S**2>=0.000
     312 -> 313        0.70710

 The electronic state is 1-A.
 Alpha  occ. eigenvalues --  -46.87836 -46.87586 -19.26342 -19.26257 -19.19076
 Alpha  occ. eigenvalues --  -19.19074 -19.18849 -19.18662 -19.18205 -19.17966
 Alpha  occ. eigenvalues --  -14.42492 -14.42420 -14.41487 -14.41286 -14.39442
 Alpha  occ. eigenvalues --  -14.39280 -14.38625 -14.38524 -10.39135 -10.39002
 Alpha  occ. eigenvalues --  -10.35483 -10.35341 -10.34427 -10.34142 -10.31745
 Alpha  occ. eigenvalues --  -10.31666 -10.31447 -10.31227 -10.30954 -10.30947
 Alpha  occ. eigenvalues --  -10.30609 -10.30544 -10.30325 -10.30284 -10.30243
 Alpha  occ. eigenvalues --  -10.30074 -10.29955 -10.29821 -10.29667 -10.29368
 Alpha  occ. eigenvalues --  -10.29331 -10.29292 -10.28806 -10.28629 -10.28623
 Alpha  occ. eigenvalues --  -10.28578 -10.28405 -10.28330 -10.28168 -10.28046
 Alpha  occ. eigenvalues --  -10.27928 -10.27829 -10.27768 -10.27622 -10.27594
 Alpha  occ. eigenvalues --  -10.27529 -10.27525 -10.27478 -10.27454 -10.27445
 Alpha  occ. eigenvalues --  -10.27420 -10.27406 -10.27399 -10.27311 -10.27202
 Alpha  occ. eigenvalues --  -10.26958 -10.26778 -10.26614 -10.26445 -10.26381
 Alpha  occ. eigenvalues --  -10.26280 -10.26208 -10.26083 -10.26055 -10.25904
 Alpha  occ. eigenvalues --  -10.25864 -10.25863 -10.25773 -10.25460 -10.25332
 Alpha  occ. eigenvalues --  -10.24869 -10.24825 -10.24797 -10.24714 -10.24679
 Alpha  occ. eigenvalues --  -10.24618  -3.16579  -3.16336  -1.91461  -1.91218
 Alpha  occ. eigenvalues --   -1.91047  -1.90889  -1.90807  -1.90644  -1.16690
 Alpha  occ. eigenvalues --   -1.16552  -1.08664  -1.08571  -1.07250  -1.06915
 Alpha  occ. eigenvalues --   -1.06858  -1.06698  -1.04623  -1.04418  -1.03799
 Alpha  occ. eigenvalues --   -1.03589  -1.03272  -1.02966  -1.02449  -1.02037
 Alpha  occ. eigenvalues --   -0.92013  -0.91907  -0.89553  -0.89426  -0.89241
 Alpha  occ. eigenvalues --   -0.89063  -0.88320  -0.88153  -0.87903  -0.87718
 Alpha  occ. eigenvalues --   -0.87716  -0.87609  -0.87312  -0.87062  -0.85033
 Alpha  occ. eigenvalues --   -0.84919  -0.83969  -0.83810  -0.83003  -0.82879
 Alpha  occ. eigenvalues --   -0.82696  -0.82577  -0.81633  -0.81515  -0.80640
 Alpha  occ. eigenvalues --   -0.80367  -0.78835  -0.78570  -0.77260  -0.77070
 Alpha  occ. eigenvalues --   -0.76983  -0.76819  -0.75970  -0.75754  -0.74933
 Alpha  occ. eigenvalues --   -0.74732  -0.72811  -0.72625  -0.71712  -0.71502
 Alpha  occ. eigenvalues --   -0.69938  -0.69695  -0.68921  -0.68749  -0.67681
 Alpha  occ. eigenvalues --   -0.67529  -0.67274  -0.67130  -0.65336  -0.65189
 Alpha  occ. eigenvalues --   -0.64895  -0.64695  -0.64665  -0.64575  -0.64304
 Alpha  occ. eigenvalues --   -0.64135  -0.62346  -0.62197  -0.60479  -0.60277
 Alpha  occ. eigenvalues --   -0.59852  -0.59713  -0.59027  -0.58918  -0.58543
 Alpha  occ. eigenvalues --   -0.58350  -0.57628  -0.57469  -0.57346  -0.57167
 Alpha  occ. eigenvalues --   -0.56348  -0.56132  -0.56032  -0.55805  -0.55560
 Alpha  occ. eigenvalues --   -0.55383  -0.55377  -0.55174  -0.54565  -0.54413
 Alpha  occ. eigenvalues --   -0.53948  -0.53827  -0.53337  -0.53268  -0.53159
 Alpha  occ. eigenvalues --   -0.53067  -0.52960  -0.52826  -0.52799  -0.52607
 Alpha  occ. eigenvalues --   -0.52468  -0.52340  -0.51944  -0.51807  -0.51667
 Alpha  occ. eigenvalues --   -0.51584  -0.51236  -0.51124  -0.50611  -0.50423
 Alpha  occ. eigenvalues --   -0.50065  -0.49958  -0.49907  -0.49802  -0.49559
 Alpha  occ. eigenvalues --   -0.49418  -0.49255  -0.49143  -0.49125  -0.49018
 Alpha  occ. eigenvalues --   -0.48636  -0.48495  -0.48484  -0.48477  -0.48307
 Alpha  occ. eigenvalues --   -0.48276  -0.47737  -0.47522  -0.47336  -0.47051
 Alpha  occ. eigenvalues --   -0.46836  -0.46636  -0.46608  -0.46474  -0.46397
 Alpha  occ. eigenvalues --   -0.46201  -0.46200  -0.46011  -0.45863  -0.45740
 Alpha  occ. eigenvalues --   -0.45235  -0.45139  -0.44618  -0.44549  -0.44436
 Alpha  occ. eigenvalues --   -0.44400  -0.44182  -0.44135  -0.44060  -0.44046
 Alpha  occ. eigenvalues --   -0.44012  -0.43870  -0.43539  -0.43473  -0.43429
 Alpha  occ. eigenvalues --   -0.43307  -0.43066  -0.42850  -0.42820  -0.42747
 Alpha  occ. eigenvalues --   -0.42692  -0.42489  -0.42049  -0.41894  -0.41744
 Alpha  occ. eigenvalues --   -0.41590  -0.41585  -0.41382  -0.41182  -0.40916
 Alpha  occ. eigenvalues --   -0.40909  -0.40864  -0.40660  -0.40626  -0.40607
 Alpha  occ. eigenvalues --   -0.40422  -0.40297  -0.40152  -0.39471  -0.39364
 Alpha  occ. eigenvalues --   -0.38506  -0.38281  -0.37808  -0.37577  -0.37356
 Alpha  occ. eigenvalues --   -0.37314  -0.37195  -0.37121  -0.36762  -0.36688
 Alpha  occ. eigenvalues --   -0.36236  -0.36142  -0.34325  -0.34178  -0.33824
 Alpha  occ. eigenvalues --   -0.33778  -0.33226  -0.33101  -0.31379  -0.31220
 Alpha  occ. eigenvalues --   -0.31075  -0.30898  -0.30065  -0.29869  -0.29487
 Alpha  occ. eigenvalues --   -0.29358  -0.29260  -0.29136  -0.24120  -0.23960
 Alpha  occ. eigenvalues --   -0.21166  -0.21043
 Alpha virt. eigenvalues --   -0.08812  -0.08719  -0.01788  -0.01612  -0.00097
 Alpha virt. eigenvalues --    0.00038   0.02165   0.02285   0.03073   0.03293
 Alpha virt. eigenvalues --    0.04669   0.04809   0.05045   0.05253   0.06110

 Mulliken charges:
               1
     1  Mg   0.838561
     2  C   -0.003072
     3  C   -0.094299
     4  C   -0.045793
     5  C   -0.063834
     6  N   -0.256778
     7  C   -0.052521
     8  C   -0.013997
     9  C   -0.086981
    10  C    0.046251
    11  C    0.104804
    12  C    0.053540
    13  C   -0.071577
    14  H    0.035494
    15  N   -0.433132
    16  C    0.168366
    17  C   -0.177234
    18  C   -0.003975
    19  C    0.148648
    20  C    0.110193
    21  C    0.012288
    22  O   -0.249523
    23  C    0.062493
    24  N   -0.341093
    25  C    0.041226
    26  C   -0.028213
    27  C   -0.023993
    28  C    0.074821
    29  C    0.076136
    30  C    0.035099
    31  C   -0.004527
    32  N   -0.310499
    33  C    0.080401
    34  C   -0.169547
    35  C    0.008410
    36  C    0.082986
    37  C    0.127275
    38  C    0.046189
    39  O   -0.188259
    40  C   -0.005391
    41  C    0.212958
    42  O   -0.257302
    43  O   -0.304721
    44  C    0.157735
    45  H   -0.017645
    46  H   -0.016754
    47  H   -0.041293
    48  H    0.000983
    49  H   -0.004218
    50  H    0.025538
    51  H    0.016559
    52  H    0.016638
    53  H    0.010987
    54  H    0.043952
    55  H    0.018081
    56  H    0.017817
    57  H    0.005759
    58  H    0.026910
    59  H    0.039371
    60  H    0.037354
    61  H    0.035793
    62  H    0.031368
    63  H    0.016581
    64  H    0.009573
    65  H    0.023282
    66  H    0.012550
    67  H    0.004844
    68  H    0.006437
    69  H    0.004900
    70  H    0.008726
    71  H    0.018259
    72  H    0.028890
    73  H    0.047801
    74  H    0.009269
    75  H    0.046086
    76  H    0.035214
    77  H    0.043094
    78  H    0.046199
    79  H    0.053486
    80  Mg   0.837881
    81  C   -0.016733
    82  C   -0.087773
    83  C   -0.045589
    84  C   -0.064837
    85  N   -0.254562
    86  C   -0.049589
    87  C   -0.015129
    88  C   -0.090570
    89  C    0.045832
    90  C    0.114353
    91  C    0.062535
    92  C   -0.077813
    93  H    0.034671
    94  N   -0.423459
    95  C    0.162893
    96  C   -0.174757
    97  C   -0.007986
    98  C    0.152115
    99  C    0.099454
   100  C    0.015420
   101  O   -0.253345
   102  C    0.061265
   103  N   -0.350009
   104  C    0.037532
   105  C   -0.019820
   106  C   -0.034823
   107  C    0.089004
   108  C    0.073652
   109  C    0.034739
   110  C   -0.007630
   111  N   -0.324159
   112  C    0.078579
   113  C   -0.163061
   114  C    0.002454
   115  C    0.096203
   116  C    0.131437
   117  C    0.042563
   118  O   -0.187591
   119  C    0.000820
   120  C    0.211223
   121  O   -0.251237
   122  O   -0.305379
   123  C    0.152083
   124  H   -0.019810
   125  H   -0.015755
   126  H   -0.040511
   127  H   -0.000169
   128  H   -0.004621
   129  H    0.023353
   130  H    0.014478
   131  H    0.016295
   132  H    0.013709
   133  H    0.037600
   134  H    0.021090
   135  H    0.019369
   136  H    0.008659
   137  H    0.025763
   138  H    0.039548
   139  H    0.038022
   140  H    0.036153
   141  H    0.033839
   142  H    0.014226
   143  H    0.012495
   144  H    0.024956
   145  H    0.011754
   146  H    0.005775
   147  H    0.006150
   148  H    0.003612
   149  H    0.010841
   150  H    0.017807
   151  H    0.030156
   152  H    0.045950
   153  H    0.008345
   154  H    0.047372
   155  H    0.035811
   156  H    0.044078
   157  H    0.049421
   158  H    0.053383
 Sum of Mulliken charges =  -0.00000

 Dipole moment (field-independent basis, Debye):
    X=             -4.2877    Y=             -2.2927    Z=             -7.3153  Tot=              8.7838
 Quadrupole moment (field-independent basis, Debye-Ang):
   XX=           -517.4991   YY=           -546.6706   ZZ=           -452.4942
   XY=              7.9997   XZ=             -2.2216   YZ=            -44.0516

 Normal termination of Gaussian 16 at Sat Sep  4 14:17:30 2021.
