 Gaussian 16, Revision A.03,
 Gaussian 16:  ES64L-G16RevA.03 25-Dec-2016

 -----------------------------------
 #p cam-b3lyp/Def2SVP td=(nstates=5)
 -----------------------------------

 --------------------------------
 TDDFT excited states in gaussian
 --------------------------------
 Symbolic Z-matrix:
 Charge =  0 Multiplicity = 1

                         Standard orientation:
 ---------------------------------------------------------------------
 Center     Atomic      Atomic             Coordinates (Angstroms)
 Number     Number       Type             X           Y           Z
 ---------------------------------------------------------------------
      1         12           0        8.028155   -0.476753   -0.148805
      2          6           0        8.081786    2.979151   -1.079431
      3          6           0        8.948963    0.506747    2.986144
      4          6           0        8.429256   -3.537895    0.575866
      5          6           0        8.230267   -1.241576   -3.542897
      6          7           0        8.431770    1.518726    0.720563
      7          6           0        8.358685    2.768397    0.273180
      8          6           0        8.529593    3.836895    1.394106
      9          6           0        9.341991    2.963861    2.452321
     10          6           0        8.852822    1.582509    2.054196
     11          6           0       10.853819    3.024070    2.259309
     12          6           0        7.156192    4.311830    1.977148
     13          6           0        7.213995    5.578070    2.836595
     14          1           0        6.101877    6.514690    2.779296
     15          7           0        8.125639   -1.375374    1.607847
     16          6           0        8.505271   -0.817878    2.782736
     17          6           0        8.410374   -1.893035    3.793534
     18          6           0        8.127431   -3.167596    3.076924
     19          6           0        8.243602   -2.743715    1.704988
     20          6           0        8.533943   -1.650776    5.266555
     21          6           0        7.814047   -4.550767    3.553117
     22          8           0        7.831101   -5.560310    2.768830
     23          6           0        7.569962   -4.708451    4.998316
     24          7           0        8.513274   -2.154851   -1.291732
     25          6           0        8.566112   -3.372781   -0.741424
     26          6           0        8.649600   -4.442428   -1.789672
     27          6           0        8.397072   -3.712463   -3.187217
     28          6           0        8.287340   -2.254872   -2.675693
     29          6           0        9.972862   -5.217841   -1.850698
     30          6           0        7.257012   -4.270061   -4.075906
     31          6           0        5.920893   -4.021523   -3.412495
     32          7           0        7.959997    0.634801   -2.011826
     33          6           0        8.086313    0.115696   -3.308456
     34          6           0        8.085267    1.262700   -4.234981
     35          6           0        7.974367    2.377601   -3.406403
     36          6           0        7.936629    1.955378   -2.046772
     37          6           0        8.237068    1.192755   -5.647955
     38          6           0        7.903774    3.828778   -3.351998
     39          8           0        7.800386    4.724026   -4.191840
     40          6           0        8.093202    4.283223   -1.837592
     41          6           0        7.016754    5.287033   -1.526248
     42          8           0        5.816269    4.947867   -1.492086
     43          8           0        7.581258    6.422619   -1.087703
     44          6           0        6.566737    7.450768   -0.733003
     45          1           0        9.462453    0.674608    3.934875
     46          1           0        8.461140   -4.611275    0.774049
     47          1           0        8.204900   -1.407755   -4.621412
     48          1           0        9.114596    4.709970    1.104387
     49          1           0        9.047816    3.189213    3.477211
     50          1           0       11.117873    3.555109    1.344872
     51          1           0       11.181865    1.985844    2.204860
     52          1           0       11.340133    3.446217    3.139121
     53          1           0        6.816133    3.595419    2.724929
     54          1           0        6.425672    4.450606    1.179396
     55          1           0        8.161753    6.102301    2.710712
     56          1           0        7.206540    5.279870    3.885033
     57          1           0        8.904245   -0.648400    5.477897
     58          1           0        9.317923   -2.312937    5.633471
     59          1           0        7.602909   -1.854923    5.795547
     60          1           0        8.449338   -4.375802    5.550213
     61          1           0        7.274072   -5.747070    5.141739
     62          1           0        6.754753   -4.046962    5.292961
     63          1           0        7.881170   -5.199366   -1.638057
     64          1           0        9.276443   -3.745806   -3.830854
     65          1           0        9.854413   -6.295684   -1.736997
     66          1           0       10.635488   -4.814370   -1.085565
     67          1           0       10.558752   -5.051689   -2.754326
     68          1           0        7.360953   -5.348128   -4.193859
     69          1           0        7.232624   -3.828254   -5.072130
     70          1           0        5.831998   -4.859897   -2.722525
     71          1           0        5.119909   -4.038148   -4.152332
     72          1           0        5.936111   -3.108992   -2.816221
     73          1           0        7.502251    1.879440   -6.068046
     74          1           0        8.084293    0.177311   -6.012834
     75          1           0        9.269462    1.524674   -5.756808
     76          1           0        9.090402    4.715745   -1.762503
     77          1           0        6.799977    8.344791   -1.311412
     78          1           0        6.577123    7.534318    0.353881
     79          1           0        5.545614    7.253787   -1.061401
     80         12           0       -7.834560   -1.049073    0.267734
     81          6           0       -9.397721    2.142729   -0.230255
     82          6           0       -5.675090    0.508456    2.399718
     83          6           0       -6.160815   -3.742223    0.381606
     84          6           0       -9.337868   -2.092482   -2.698261
     85          7           0       -7.660522    1.057246    0.919918
     86          6           0       -8.348438    2.169834    0.711927
     87          6           0       -7.937586    3.359433    1.620556
     88          6           0       -6.436409    2.898328    1.956283
     89          6           0       -6.599991    1.389535    1.784619
     90          6           0       -5.415752    3.386573    0.941769
     91          6           0       -8.814328    3.450703    2.918639
     92          6           0       -8.676470    4.761026    3.696974
     93          1           0       -9.857251    5.301253    4.365091
     94          7           0       -6.489588   -1.670411    1.588165
     95          6           0       -5.718149   -0.903033    2.386477
     96          6           0       -4.882366   -1.837021    3.156736
     97          6           0       -5.106309   -3.210716    2.629929
     98          6           0       -5.929882   -2.918677    1.473845
     99          6           0       -4.042661   -1.404935    4.323625
    100          6           0       -4.643839   -4.562297    3.083317
    101          8           0       -4.761387   -5.598941    2.338745
    102          6           0       -3.964822   -4.619914    4.386047
    103          7           0       -7.585334   -2.612320   -1.080049
    104          6           0       -6.845451   -3.688780   -0.761079
    105          6           0       -7.034662   -4.798447   -1.767679
    106          6           0       -8.245954   -4.330013   -2.700911
    107          6           0       -8.499997   -2.929339   -2.101765
    108          6           0       -5.819486   -5.123096   -2.636199
    109          6           0       -9.447550   -5.304900   -2.836682
    110          6           0      -10.174370   -5.415330   -1.515731
    111          7           0       -9.277023   -0.230263   -1.116792
    112          6           0       -9.747570   -0.823736   -2.308625
    113          6           0      -10.628206    0.162364   -2.967808
    114          6           0      -10.590361    1.278550   -2.118585
    115          6           0       -9.729831    1.014666   -1.018881
    116          6           0      -11.292263   -0.017417   -4.213931
    117          6           0      -11.074338    2.623936   -1.907877
    118          8           0      -11.898779    3.347731   -2.464783
    119          6           0      -10.224399    3.289856   -0.741446
    120          6           0      -11.182353    3.944417    0.215839
    121          8           0      -11.979524    3.258835    0.879999
    122          8           0      -10.853351    5.242138    0.350101
    123          6           0      -11.768233    5.931648    1.298452
    124          1           0       -4.809380    0.936016    2.906302
    125          1           0       -5.693074   -4.728421    0.427443
    126          1           0       -9.921546   -2.377662   -3.576140
    127          1           0       -7.928848    4.324776    1.128803
    128          1           0       -6.169465    3.138648    2.982124
    129          1           0       -5.885922    3.865248    0.095631
    130          1           0       -4.872016    2.506370    0.624547
    131          1           0       -4.681595    4.035388    1.427972
    132          1           0       -8.423607    2.746931    3.664826
    133          1           0       -9.847664    3.270897    2.693895
    134          1           0       -8.178315    5.540226    3.107363
    135          1           0       -8.004367    4.593573    4.542099
    136          1           0       -3.950143   -0.312835    4.370132
    137          1           0       -3.023039   -1.755957    4.131215
    138          1           0       -4.388554   -1.825684    5.270196
    139          1           0       -3.090973   -3.973002    4.366744
    140          1           0       -3.789181   -5.680290    4.577402
    141          1           0       -4.638590   -4.216006    5.149922
    142          1           0       -7.307483   -5.724171   -1.276043
    143          1           0       -7.922378   -4.173188   -3.740404
    144          1           0       -5.502904   -6.180890   -2.566012
    145          1           0       -5.010160   -4.464223   -2.350847
    146          1           0       -5.936162   -4.900397   -3.695440
    147          1           0       -9.094288   -6.309606   -3.081501
    148          1           0      -10.153883   -5.015151   -3.607482
    149          1           0       -9.585074   -6.159220   -0.971259
    150          1           0      -11.196468   -5.756089   -1.668202
    151          1           0      -10.117205   -4.474980   -0.955257
    152          1           0      -12.298461    0.359615   -4.087774
    153          1           0      -11.293506   -1.062469   -4.516652
    154          1           0      -10.661075    0.596817   -4.861684
    155          1           0       -9.547227    4.011259   -1.200330
    156          1           0      -12.192991    6.788643    0.766637
    157          1           0      -11.159955    6.147418    2.196885
    158          1           0      -12.665538    5.405011    1.601680
 ---------------------------------------------------------------------

 SCF Done:  E(RCAM-B3LYP) =  -4069.81175035     A.U. after   19 cycles

 Excitation energies and oscillator strengths:

 Excited State   1:      Singlet-A      1.6706 eV  742.17 nm  f=0.1111  <S**2>=0.000
     309 -> 315       -0.10125
     310 -> 316       -0.13979
     311 -> 313       -0.40115
     312 -> 314        0.55690
 This state for optimization and/or second-order correction.
 Total Energy, E(TD-HF/TD-DFT) =  -4069.75035843
 Copying the excited state density for this state as the 1-particle RhoCI density.

 Excited State   2:      Singlet-A      1.6842 eV  736.18 nm  f=0.6554  <S**2>=0.000
     309 -> 315        0.14352
     310 -> 316       -0.10268
     311 -> 313        0.55613
     312 -> 314        0.40067

 Excited State   3:      Singlet-A      2.1853 eV  567.35 nm  f=0.0574  <S**2>=0.000
     309 -> 313        0.14010
     310 -> 314        0.62737
     312 -> 316        0.26593

 Excited State   4:      Singlet-A      2.1930 eV  565.36 nm  f=0.1357  <S**2>=0.000
     309 -> 313        0.62531
     310 -> 314       -0.13901
     311 -> 315       -0.27199

 Excited State   5:      Singlet-A      2.7462 eV  451.47 nm  f=0.0000  <S**2>=0.000
     312 -> 313        0.70706

 The electronic state is 1-A.
 Alpha  occ. eigenvalues --  -46.87890 -46.87591 -19.26400 -19.26294 -19.19137
 Alpha  occ. eigenvalues --  -19.19105 -19.18899 -19.18656 -19.18262 -19.17986
 Alpha  occ. eigenvalues --  -14.42545 -14.42426 -14.41537 -14.41290 -14.39496
 Alpha  occ. eigenvalues --  -14.39284 -14.38679 -14.38532 -10.39194 -10.39033
 Alpha  occ. eigenvalues --  -10.35533 -10.35335 -10.34483 -10.34163 -10.31801
 Alpha  occ. eigenvalues --  -10.31708 -10.31501 -10.31236 -10.31009 -10.30954
 Alpha  occ. eigenvalues --  -10.30663 -10.30596 -10.30331 -10.30293 -10.30291
 Alpha  occ. eigenvalues --  -10.30074 -10.30003 -10.29826 -10.29721 -10.29369
 Alpha  occ. eigenvalues --  -10.29345 -10.29337 -10.28862 -10.28684 -10.28647
 Alpha  occ. eigenvalues --  -10.28607 -10.28460 -10.28337 -10.28222 -10.28058
 Alpha  occ. eigenvalues --  -10.27934 -10.27884 -10.27821 -10.27676 -10.27597
 Alpha  occ. eigenvalues --  -10.27585 -10.27566 -10.27513 -10.27498 -10.27454
 Alpha  occ. eigenvalues --  -10.27418 -10.27415 -10.27403 -10.27310 -10.27257
 Alpha  occ. eigenvalues --  -10.26983 -10.26842 -10.26636 -10.26501 -10.26372
 Alpha  occ. eigenvalues --  -10.26329 -10.26237 -10.26105 -10.26083 -10.25920
 Alpha  occ. eigenvalues --  -10.25910 -10.25867 -10.25787 -10.25492 -10.25325
 Alpha  occ. eigenvalues --  -10.24924 -10.24874 -10.24806 -10.24736 -10.24681
 Alpha  occ. eigenvalues --  -10.24621  -3.16633  -3.16341  -1.91514  -1.91223
 Alpha  occ. eigenvalues --   -1.91101  -1.90943  -1.90812  -1.90649  -1.16748
 Alpha  occ. eigenvalues --   -1.16588  -1.08720  -1.08594  -1.07299  -1.06909
 Alpha  occ. eigenvalues --   -1.06889  -1.06758  -1.04677  -1.04424  -1.03850
 Alpha  occ. eigenvalues --   -1.03594  -1.03324  -1.02971  -1.02501  -1.02043
 Alpha  occ. eigenvalues --   -0.92067  -0.91919  -0.89597  -0.89430  -0.89296
 Alpha  occ. eigenvalues --   -0.89075  -0.88361  -0.88155  -0.87958  -0.87769
 Alpha  occ. eigenvalues --   -0.87728  -0.87616  -0.87367  -0.87062  -0.85087
 Alpha  occ. eigenvalues --   -0.84931  -0.84008  -0.83814  -0.83054  -0.82877
 Alpha  occ. eigenvalues --   -0.82749  -0.82587  -0.81687  -0.81535  -0.80693
 Alpha  occ. eigenvalues --   -0.80380  -0.78890  -0.78574  -0.77310  -0.77078
 Alpha  occ. eigenvalues --   -0.77034  -0.76833  -0.76023  -0.75768  -0.74975
 Alpha  occ. eigenvalues --   -0.74736  -0.72863  -0.72632  -0.71762  -0.71509
 Alpha  occ. eigenvalues --   -0.69974  -0.69696  -0.68975  -0.68760  -0.67733
 Alpha  occ. eigenvalues --   -0.67538  -0.67331  -0.67141  -0.65391  -0.65204
 Alpha  occ. eigenvalues --   -0.64947  -0.64715  -0.64704  -0.64589  -0.64348
 Alpha  occ. eigenvalues --   -0.64140  -0.62399  -0.62218  -0.60530  -0.60279
 Alpha  occ. eigenvalues --   -0.59906  -0.59724  -0.59077  -0.58926  -0.58595
 Alpha  occ. eigenvalues --   -0.58360  -0.57684  -0.57491  -0.57395  -0.57174
 Alpha  occ. eigenvalues --   -0.56402  -0.56141  -0.56087  -0.55827  -0.55613
 Alpha  occ. eigenvalues --   -0.55421  -0.55392  -0.55185  -0.54612  -0.54427
 Alpha  occ. eigenvalues --   -0.54003  -0.53840  -0.53388  -0.53323  -0.53165
 Alpha  occ. eigenvalues --   -0.53078  -0.53013  -0.52855  -0.52839  -0.52609
 Alpha  occ. eigenvalues --   -0.52504  -0.52344  -0.51999  -0.51820  -0.51724
 Alpha  occ. eigenvalues --   -0.51596  -0.51287  -0.51137  -0.50667  -0.50422
 Alpha  occ. eigenvalues --   -0.50107  -0.50010  -0.49912  -0.49803  -0.49613
 Alpha  occ. eigenvalues --   -0.49424  -0.49310  -0.49196  -0.49136  -0.49032
 Alpha  occ. eigenvalues --   -0.48689  -0.48541  -0.48536  -0.48491  -0.48311
 Alpha  occ. eigenvalues --   -0.48279  -0.47789  -0.47531  -0.47387  -0.47056
 Alpha  occ. eigenvalues --   -0.46886  -0.46663  -0.46643  -0.46486  -0.46448
 Alpha  occ. eigenvalues --   -0.46249  -0.46207  -0.46021  -0.45917  -0.45758
 Alpha  occ. eigenvalues --   -0.45277  -0.45141  -0.44672  -0.44600  -0.44450
 Alpha  occ. eigenvalues --   -0.44409  -0.44230  -0.44187  -0.44114  -0.44057
 Alpha  occ. eigenvalues --   -0.44018  -0.43879  -0.43592  -0.43493  -0.43479
 Alpha  occ. eigenvalues --   -0.43318  -0.43117  -0.42871  -0.42836  -0.42801
 Alpha  occ. eigenvalues --   -0.42733  -0.42491  -0.42094  -0.41903  -0.41795
 Alpha  occ. eigenvalues --   -0.41638  -0.41602  -0.41394  -0.41232  -0.40967
 Alpha  occ. eigenvalues --   -0.40916  -0.40916  -0.40662  -0.40649  -0.40634
 Alpha  occ. eigenvalues --   -0.40427  -0.40356  -0.40167  -0.39505  -0.39366
 Alpha  occ. eigenvalues --   -0.38549  -0.38284  -0.37865  -0.37593  -0.37402
 Alpha  occ. eigenvalues --   -0.37370  -0.37200  -0.37132  -0.36816  -0.36713
 Alpha  occ. eigenvalues --   -0.36286  -0.36152  -0.34378  -0.34185  -0.33883
 Alpha  occ. eigenvalues --   -0.33804  -0.33279  -0.33108  -0.31429  -0.31215
 Alpha  occ. eigenvalues --   -0.31127  -0.30904  -0.30122  -0.29891  -0.29541
 Alpha  occ. eigenvalues --   -0.29413  -0.29263  -0.29145  -0.24172  -0.23967
 Alpha  occ. eigenvalues --   -0.21218  -0.21049
 Alpha virt. eigenvalues --   -0.08866  -0.08725  -0.01839  -0.01616  -0.00151
 Alpha virt. eigenvalues --    0.00035   0.02111   0.02273   0.03013   0.03284
 Alpha virt. eigenvalues --    0.04616   0.04800   0.04986   0.05224   0.06054

 Mulliken charges:
               1
     1  Mg   0.838365
     2  C   -0.003166
     3  C   -0.094440
     4  C   -0.045705
     5  C   -0.063779
     6  N   -0.256760
     7  C   -0.052582
     8  C   -0.013949
     9  C   -0.086948
    10  C    0.046171
    11  C    0.104780
    12  C    0.053583
    13  C   -0.071601
    14  H    0.035454
    15  N   -0.433132
    16  C    0.168291
    17  C   -0.177358
    18  C   -0.004005
    19  C    0.148642
    20  C    0.110211
    21  C    0.012261
    22  O   -0.249211
    23  C    0.062555
    24  N   -0.341119
    25  C    0.041230
    26  C   -0.028243
    27  C   -0.024033
    28  C    0.074879
    29  C    0.076093
    30  C    0.035048
    31  C   -0.004536
    32  N   -0.310479
    33  C    0.080406
    34  C   -0.169603
    35  C    0.008394
    36  C    0.082930
    37  C    0.127303
    38  C    0.046123
    39  O   -0.188310
    40  C   -0.005355
    41  C    0.212959
    42  O   -0.257500
    43  O   -0.304658
    44  C    0.157730
    45  H   -0.017611
    46  H   -0.016557
    47  H   -0.041249
    48  H    0.001060
    49  H   -0.004274
    50  H    0.025586
    51  H    0.016616
    52  H    0.016712
    53  H    0.010735
    54  H    0.043819
    55  H    0.018241
    56  H    0.017781
    57  H    0.005765
    58  H    0.027046
    59  H    0.039023
    60  H    0.037420
    61  H    0.035957
    62  H    0.030911
    63  H    0.016829
    64  H    0.009604
    65  H    0.023473
    66  H    0.012520
    67  H    0.004883
    68  H    0.006664
    69  H    0.004789
    70  H    0.009097
    71  H    0.018375
    72  H    0.028637
    73  H    0.047634
    74  H    0.009290
    75  H    0.046166
    76  H    0.035295
    77  H    0.043199
    78  H    0.046237
    79  H    0.053391
    80  Mg   0.837938
    81  C   -0.016861
    82  C   -0.087699
    83  C   -0.045410
    84  C   -0.064802
    85  N   -0.254603
    86  C   -0.049663
    87  C   -0.015125
    88  C   -0.090533
    89  C    0.045807
    90  C    0.114283
    91  C    0.062562
    92  C   -0.077740
    93  H    0.034554
    94  N   -0.423525
    95  C    0.162934
    96  C   -0.174437
    97  C   -0.007829
    98  C    0.152208
    99  C    0.099351
   100  C    0.015634
   101  O   -0.253115
   102  C    0.061225
   103  N   -0.349980
   104  C    0.037604
   105  C   -0.019882
   106  C   -0.034799
   107  C    0.088937
   108  C    0.073578
   109  C    0.034749
   110  C   -0.007648
   111  N   -0.324107
   112  C    0.078471
   113  C   -0.163127
   114  C    0.002282
   115  C    0.096207
   116  C    0.131478
   117  C    0.042398
   118  O   -0.187952
   119  C    0.000904
   120  C    0.211207
   121  O   -0.251164
   122  O   -0.305522
   123  C    0.152097
   124  H   -0.019453
   125  H   -0.015561
   126  H   -0.040524
   127  H   -0.000519
   128  H   -0.004646
   129  H    0.022709
   130  H    0.015085
   131  H    0.016583
   132  H    0.013743
   133  H    0.037571
   134  H    0.020926
   135  H    0.019382
   136  H    0.008675
   137  H    0.026176
   138  H    0.039336
   139  H    0.038186
   140  H    0.036306
   141  H    0.033610
   142  H    0.014261
   143  H    0.012503
   144  H    0.025008
   145  H    0.012033
   146  H    0.005720
   147  H    0.006173
   148  H    0.003591
   149  H    0.010872
   150  H    0.017780
   151  H    0.030125
   152  H    0.045865
   153  H    0.008417
   154  H    0.047137
   155  H    0.035295
   156  H    0.043872
   157  H    0.049427
   158  H    0.053444
 Sum of Mulliken charges =  -0.00000

 Dipole moment (field-independent basis, Debye):
    X=              6.1090    Y=              0.3516    Z=              5.9948  Tot=              8.5663
 Quadrupole moment (field-independent basis, Debye-Ang):
   XX=           -554.2054   YY=           -518.8429   ZZ=           -473.9423
   XY=             14.3581   XZ=             20.2718   YZ=             58.5540

 Normal termination of Gaussian 16 at Sun Sep 12 06:41:16 2021.
