 Gaussian 16, Revision A.03,
 Gaussian 16:  ES64L-G16RevA.03 25-Dec-2016

 -----------------------------------
 #p cam-b3lyp/Def2SVP td=(nstates=5)
 -----------------------------------

 --------------------------------
 TDDFT excited states in gaussian
 --------------------------------
 Symbolic Z-matrix:
 Charge =  0 Multiplicity = 1

                         Standard orientation:
 ---------------------------------------------------------------------
 Center     Atomic      Atomic             Coordinates (Angstroms)
 Number     Number       Type             X           Y           Z
 ---------------------------------------------------------------------
      1         12           0        4.263265    0.081348    0.383598
      2          6           0        4.161339   -3.102237   -1.249378
      3          6           0        5.385786    1.389226   -2.561307
      4          6           0        4.793520    2.804145    1.920421
      5          6           0        4.235814   -1.637966    3.414913
      6          7           0        4.678846   -0.840722   -1.585596
      7          6           0        4.541677   -2.059843   -2.097554
      8          6           0        4.767072   -2.111865   -3.638289
      9          6           0        5.676502   -0.812793   -3.803659
     10          6           0        5.194579   -0.023947   -2.598920
     11          6           0        7.168156   -1.089105   -3.645150
     12          6           0        3.428441   -1.979886   -4.439773
     13          6           0        3.516946   -2.345545   -5.924298
     14          1           0        2.380306   -3.001461   -6.552926
     15          7           0        4.511663    1.915296   -0.307620
     16          6           0        4.962014    2.263329   -1.536987
     17          6           0        4.968509    3.741788   -1.565194
     18          6           0        4.666198    4.224476   -0.189071
     19          6           0        4.670952    2.984777    0.544756
     20          6           0        5.193340    4.539976   -2.812630
     21          6           0        4.423536    5.587883    0.376941
     22          8           0        4.408676    5.808826    1.636122
     23          6           0        4.289885    6.688327   -0.594759
     24          7           0        4.705724    0.525191    2.374796
     25          6           0        4.829432    1.791083    2.788558
     26          6           0        4.863015    1.875335    4.285793
     27          6           0        4.490569    0.417034    4.819081
     28          6           0        4.381756   -0.311692    3.456955
     29          6           0        6.197437    2.318450    4.901406
     30          6           0        3.303008    0.312217    5.808592
     31          6           0        2.013147    0.662972    5.101256
     32          7           0        4.030944   -1.983333    1.011422
     33          6           0        4.075147   -2.475580    2.323830
     34          6           0        3.977347   -3.944291    2.237856
     35          6           0        3.899221   -4.207182    0.871609
     36          6           0        3.971723   -2.982267    0.148686
     37          6           0        4.027100   -4.848478    3.335310
     38          6           0        3.796153   -5.239748   -0.146744
     39          8           0        3.609019   -6.457220   -0.131389
     40          6           0        4.084310   -4.575335   -1.564964
     41          6           0        3.008503   -5.036670   -2.510013
     42          8           0        1.822687   -4.681388   -2.351960
     43          8           0        3.574701   -5.621728   -3.576629
     44          6           0        2.563192   -6.076258   -4.567792
     45          1           0        5.962895    1.865122   -3.356549
     46          1           0        4.866926    3.728840    2.496606
     47          1           0        4.135827   -2.235086    4.323155
     48          1           0        5.307067   -2.991469   -3.989183
     49          1           0        5.452487   -0.273664   -4.723919
     50          1           0        7.351107   -2.111944   -3.316138
     51          1           0        7.517467   -0.379593   -2.894773
     52          1           0        7.706703   -0.845644   -4.561376
     53          1           0        3.162203   -0.926263   -4.523776
     54          1           0        2.638249   -2.566900   -3.970371
     55          1           0        4.439407   -2.881997   -6.148339
     56          1           0        3.593742   -1.422721   -6.499362
     57          1           0        5.552664    3.914605   -3.628928
     58          1           0        6.018539    5.222290   -2.609647
     59          1           0        4.308953    5.108237   -3.101198
     60          1           0        5.198591    6.751879   -1.193728
     61          1           0        4.031618    7.572895   -0.013650
     62          1           0        3.481961    6.451382   -1.287626
     63          1           0        4.127107    2.589026    4.653909
     64          1           0        5.321063   -0.048722    5.350141
     65          1           0        6.114894    3.200109    5.537463
     66          1           0        6.903852    2.487018    4.089091
     67          1           0        6.711270    1.550996    5.479685
     68          1           0        3.425249    1.023915    6.624367
     69          1           0        3.194656   -0.679761    6.247329
     70          1           0        1.996174    1.751106    5.151332
     71          1           0        1.160865    0.234485    5.629674
     72          1           0        2.048880    0.385791    4.047510
     73          1           0        3.246406   -5.587861    3.156989
     74          1           0        3.873748   -4.330952    4.282017
     75          1           0        5.040047   -5.236978    3.231100
     76          1           0        5.073084   -4.912782   -1.874120
     77          1           0        2.730831   -7.140700   -4.732395
     78          1           0        2.650942   -5.411381   -5.427236
     79          1           0        1.526086   -6.080999   -4.230557
     80         12           0       -3.628151    0.974275    0.135513
     81          6           0       -6.402859   -1.299582    0.233734
     82          6           0       -5.528782    2.971955   -1.872355
     83          6           0       -1.058227    2.773714   -0.338782
     84          6           0       -1.604107   -1.669523    1.164724
     85          7           0       -5.685245    0.756481   -0.647569
     86          6           0       -6.666290   -0.119909   -0.493185
     87          6           0       -8.028603    0.328410   -1.087066
     88          6           0       -7.482870    1.367921   -2.182723
     89          6           0       -6.164407    1.755651   -1.516406
     90          6           0       -7.169314    0.721564   -3.521850
     91          6           0       -8.939023    1.038739   -0.024721
     92          6           0      -10.397214    1.225696   -0.449551
     93          1           0      -11.438310    1.116358    0.568611
     94          7           0       -3.470102    2.838800   -0.525662
     95          6           0       -4.344669    3.500017   -1.312552
     96          6           0       -3.760822    4.832376   -1.531883
     97          6           0       -2.392774    4.847212   -0.946270
     98          6           0       -2.242754    3.450186   -0.591458
     99          6           0       -4.521591    5.959548   -2.167598
    100          6           0       -1.381281    5.935778   -0.751072
    101          8           0       -0.165575    5.677076   -0.438065
    102          6           0       -1.832439    7.307306   -1.028294
    103          7           0       -1.591031    0.560475    0.171172
    104          6           0       -0.684184    1.535270   -0.016795
    105          6           0        0.707443    1.058997    0.325157
    106          6           0        0.514728   -0.370642    1.015488
    107          6           0       -1.015254   -0.519659    0.866008
    108          6           0        1.674133    0.929410   -0.851745
    109          6           0        1.142018   -0.562601    2.423443
    110          6           0        0.422241    0.303909    3.431641
    111          7           0       -3.941528   -1.059009    0.795505
    112          6           0       -2.952860   -2.001409    1.153981
    113          6           0       -3.645345   -3.278817    1.420682
    114          6           0       -4.997096   -2.994739    1.174604
    115          6           0       -5.134819   -1.641641    0.762708
    116          6           0       -3.019422   -4.503876    1.786162
    117          6           0       -6.337563   -3.534741    1.159357
    118          8           0       -6.848080   -4.601885    1.497460
    119          6           0       -7.292505   -2.496075    0.427493
    120          6           0       -8.525039   -2.323269    1.272192
    121          8           0       -8.450507   -1.805692    2.400546
    122          8           0       -9.611715   -2.595469    0.526934
    123          6           0      -10.859882   -2.427301    1.317882
    124          1           0       -5.952472    3.559686   -2.687175
    125          1           0       -0.150593    3.380239   -0.381210
    126          1           0       -1.054915   -2.514731    1.585055
    127          1           0       -8.594392   -0.458785   -1.570767
    128          1           0       -8.136257    2.232418   -2.266892
    129          1           0       -7.253607   -0.354194   -3.479547
    130          1           0       -6.154219    1.012514   -3.758422
    131          1           0       -7.797383    1.154547   -4.305679
    132          1           0       -8.633049    2.089086    0.064048
    133          1           0       -8.899752    0.524234    0.915693
    134          1           0      -10.652120    0.618432   -1.326600
    135          1           0      -10.530451    2.255789   -0.788896
    136          1           0       -5.442961    5.604030   -2.645196
    137          1           0       -3.910505    6.329505   -2.997992
    138          1           0       -4.712305    6.782288   -1.475202
    139          1           0       -2.177863    7.372793   -2.057306
    140          1           0       -0.997795    7.952097   -0.746372
    141          1           0       -2.696793    7.526694   -0.391604
    142          1           0        1.182888    1.728877    1.031064
    143          1           0        0.968629   -1.175645    0.419012
    144          1           0        2.597201    1.526269   -0.726141
    145          1           0        1.153525    1.219687   -1.754647
    146          1           0        1.987258   -0.087440   -1.082366
    147          1           0        2.184683   -0.235499    2.421300
    148          1           0        1.128133   -1.591972    2.765793
    149          1           0        0.904987    1.278086    3.309041
    150          1           0        0.563422   -0.082554    4.438993
    151          1           0       -0.634196    0.423600    3.164694
    152          1           0       -3.616618   -4.934207    2.579049
    153          1           0       -1.990756   -4.345641    2.103288
    154          1           0       -3.078006   -5.043546    0.837159
    155          1           0       -7.524973   -2.902563   -0.557549
    156          1           0      -11.408431   -3.372120    1.253847
    157          1           0      -11.355601   -1.528135    0.906165
    158          1           0      -10.761545   -2.312148    2.390970
 ---------------------------------------------------------------------

 SCF Done:  E(RCAM-B3LYP) =  -4069.72162628     A.U. after   19 cycles

 Excitation energies and oscillator strengths:

 Excited State   1:      Singlet-A      1.6189 eV  765.85 nm  f=0.0016  <S**2>=0.000
     309 -> 315        0.12008
     310 -> 316       -0.10578
     311 -> 313        0.51139
     312 -> 314       -0.45886
 This state for optimization and/or second-order correction.
 Total Energy, E(TD-HF/TD-DFT) =  -4069.66213218
 Copying the excited state density for this state as the 1-particle RhoCI density.

 Excited State   2:      Singlet-A      1.7067 eV  726.45 nm  f=0.6577  <S**2>=0.000
     309 -> 315        0.12289
     310 -> 316        0.13297
     311 -> 313        0.45339
     312 -> 314        0.50824

 Excited State   3:      Singlet-A      2.1525 eV  575.99 nm  f=0.0418  <S**2>=0.000
     309 -> 313        0.44606
     311 -> 315       -0.18880
     312 -> 313        0.49528

 Excited State   4:      Singlet-A      2.1806 eV  568.59 nm  f=0.1209  <S**2>=0.000
     310 -> 314        0.63683
     312 -> 316       -0.26350

 Excited State   5:      Singlet-A      2.1931 eV  565.35 nm  f=0.0435  <S**2>=0.000
     309 -> 313       -0.45778
     311 -> 315        0.19291
     312 -> 313        0.49336

 The electronic state is 1-A.
 Alpha  occ. eigenvalues --  -46.87981 -46.87350 -19.26416 -19.26150 -19.19190
 Alpha  occ. eigenvalues --  -19.18949 -19.18597 -19.18536 -19.18306 -19.17789
 Alpha  occ. eigenvalues --  -14.42545 -14.42196 -14.41540 -14.41033 -14.39363
 Alpha  occ. eigenvalues --  -14.39058 -14.38724 -14.38278 -10.39240 -10.38872
 Alpha  occ. eigenvalues --  -10.35268 -10.35162 -10.34531 -10.33962 -10.31774
 Alpha  occ. eigenvalues --  -10.31598 -10.31584 -10.31030 -10.30980 -10.30790
 Alpha  occ. eigenvalues --  -10.30728 -10.30638 -10.30266 -10.30094 -10.30063
 Alpha  occ. eigenvalues --  -10.30003 -10.29835 -10.29708 -10.29608 -10.29352
 Alpha  occ. eigenvalues --  -10.29156 -10.29068 -10.28872 -10.28638 -10.28499
 Alpha  occ. eigenvalues --  -10.28495 -10.28492 -10.28243 -10.28146 -10.27941
 Alpha  occ. eigenvalues --  -10.27913 -10.27901 -10.27719 -10.27622 -10.27578
 Alpha  occ. eigenvalues --  -10.27499 -10.27483 -10.27380 -10.27366 -10.27321
 Alpha  occ. eigenvalues --  -10.27302 -10.27272 -10.27191 -10.27172 -10.27139
 Alpha  occ. eigenvalues --  -10.26836 -10.26795 -10.26501 -10.26346 -10.26343
 Alpha  occ. eigenvalues --  -10.26073 -10.25996 -10.25831 -10.25807 -10.25636
 Alpha  occ. eigenvalues --  -10.25579 -10.25506 -10.25443 -10.25321 -10.25097
 Alpha  occ. eigenvalues --  -10.24979 -10.24885 -10.24582 -10.24416 -10.23883
 Alpha  occ. eigenvalues --  -10.22540  -3.16685  -3.16098  -1.91571  -1.91152
 Alpha  occ. eigenvalues --   -1.91000  -1.90980  -1.90569  -1.90406  -1.16770
 Alpha  occ. eigenvalues --   -1.16441  -1.08768  -1.08396  -1.06915  -1.06846
 Alpha  occ. eigenvalues --   -1.06804  -1.06733  -1.04741  -1.04205  -1.03928
 Alpha  occ. eigenvalues --   -1.03418  -1.03357  -1.02725  -1.02568  -1.01812
 Alpha  occ. eigenvalues --   -0.92133  -0.91700  -0.90040  -0.89356  -0.89187
 Alpha  occ. eigenvalues --   -0.88921  -0.88495  -0.88123  -0.88005  -0.87808
 Alpha  occ. eigenvalues --   -0.87459  -0.87379  -0.87211  -0.86892  -0.85380
 Alpha  occ. eigenvalues --   -0.84988  -0.84696  -0.83624  -0.82983  -0.82646
 Alpha  occ. eigenvalues --   -0.82549  -0.82396  -0.81721  -0.81358  -0.80679
 Alpha  occ. eigenvalues --   -0.80215  -0.78909  -0.78411  -0.77939  -0.77194
 Alpha  occ. eigenvalues --   -0.76818  -0.76643  -0.76023  -0.75645  -0.75213
 Alpha  occ. eigenvalues --   -0.74540  -0.72927  -0.72464  -0.71790  -0.71456
 Alpha  occ. eigenvalues --   -0.70989  -0.69120  -0.68716  -0.68433  -0.67730
 Alpha  occ. eigenvalues --   -0.67361  -0.67223  -0.66989  -0.65453  -0.65170
 Alpha  occ. eigenvalues --   -0.64967  -0.64825  -0.64580  -0.64424  -0.64269
 Alpha  occ. eigenvalues --   -0.63823  -0.62445  -0.62048  -0.60474  -0.60124
 Alpha  occ. eigenvalues --   -0.59941  -0.59540  -0.59112  -0.58759  -0.58625
 Alpha  occ. eigenvalues --   -0.58199  -0.57754  -0.57474  -0.57292  -0.57117
 Alpha  occ. eigenvalues --   -0.56576  -0.56275  -0.56129  -0.55964  -0.55707
 Alpha  occ. eigenvalues --   -0.55581  -0.55469  -0.55226  -0.54964  -0.54723
 Alpha  occ. eigenvalues --   -0.54088  -0.53807  -0.53680  -0.53486  -0.53187
 Alpha  occ. eigenvalues --   -0.53032  -0.52954  -0.52855  -0.52738  -0.52651
 Alpha  occ. eigenvalues --   -0.52485  -0.52351  -0.52082  -0.51634  -0.51507
 Alpha  occ. eigenvalues --   -0.51426  -0.51352  -0.50962  -0.50588  -0.50259
 Alpha  occ. eigenvalues --   -0.50210  -0.49833  -0.49747  -0.49713  -0.49414
 Alpha  occ. eigenvalues --   -0.49376  -0.49293  -0.49136  -0.48954  -0.48888
 Alpha  occ. eigenvalues --   -0.48786  -0.48555  -0.48422  -0.48313  -0.48289
 Alpha  occ. eigenvalues --   -0.48085  -0.47556  -0.47404  -0.47363  -0.47111
 Alpha  occ. eigenvalues --   -0.47051  -0.46882  -0.46579  -0.46435  -0.46352
 Alpha  occ. eigenvalues --   -0.46172  -0.46032  -0.45840  -0.45735  -0.45545
 Alpha  occ. eigenvalues --   -0.45483  -0.45158  -0.44712  -0.44653  -0.44482
 Alpha  occ. eigenvalues --   -0.44316  -0.44267  -0.44107  -0.43999  -0.43940
 Alpha  occ. eigenvalues --   -0.43806  -0.43710  -0.43570  -0.43517  -0.43213
 Alpha  occ. eigenvalues --   -0.43097  -0.43026  -0.42797  -0.42727  -0.42659
 Alpha  occ. eigenvalues --   -0.42438  -0.42203  -0.41812  -0.41755  -0.41539
 Alpha  occ. eigenvalues --   -0.41396  -0.41350  -0.41165  -0.40944  -0.40902
 Alpha  occ. eigenvalues --   -0.40679  -0.40590  -0.40558  -0.40388  -0.40350
 Alpha  occ. eigenvalues --   -0.40224  -0.40029  -0.39777  -0.39006  -0.38500
 Alpha  occ. eigenvalues --   -0.38005  -0.37773  -0.37472  -0.37383  -0.37156
 Alpha  occ. eigenvalues --   -0.36975  -0.36936  -0.36771  -0.36630  -0.36488
 Alpha  occ. eigenvalues --   -0.36082  -0.34497  -0.34245  -0.33935  -0.33840
 Alpha  occ. eigenvalues --   -0.33622  -0.33228  -0.32849  -0.31163  -0.31139
 Alpha  occ. eigenvalues --   -0.30966  -0.30675  -0.30166  -0.29688  -0.29517
 Alpha  occ. eigenvalues --   -0.29310  -0.29055  -0.28896  -0.24175  -0.23712
 Alpha  occ. eigenvalues --   -0.21269  -0.20798
 Alpha virt. eigenvalues --   -0.08903  -0.08493  -0.01890  -0.01384  -0.00013
 Alpha virt. eigenvalues --    0.00187   0.02035   0.02529   0.03550   0.04468
 Alpha virt. eigenvalues --    0.04920   0.05024   0.05382   0.05516   0.06340

 Mulliken charges:
               1
     1  Mg   0.642682
     2  C   -0.000873
     3  C   -0.078885
     4  C   -0.042664
     5  C   -0.063078
     6  N   -0.242152
     7  C   -0.056266
     8  C   -0.013038
     9  C   -0.086006
    10  C    0.041098
    11  C    0.104612
    12  C    0.051061
    13  C   -0.071841
    14  H    0.036616
    15  N   -0.448222
    16  C    0.165199
    17  C   -0.170079
    18  C   -0.002401
    19  C    0.152776
    20  C    0.111403
    21  C    0.024887
    22  O   -0.248882
    23  C    0.059626
    24  N   -0.323487
    25  C    0.037752
    26  C   -0.026465
    27  C   -0.020719
    28  C    0.056795
    29  C    0.078140
    30  C    0.093465
    31  C   -0.047866
    32  N   -0.302774
    33  C    0.080094
    34  C   -0.174652
    35  C    0.010584
    36  C    0.074864
    37  C    0.127665
    38  C    0.043402
    39  O   -0.187542
    40  C   -0.007534
    41  C    0.212767
    42  O   -0.258442
    43  O   -0.304469
    44  C    0.157378
    45  H   -0.018079
    46  H   -0.016704
    47  H   -0.045907
    48  H    0.000763
    49  H   -0.003740
    50  H    0.025962
    51  H    0.017858
    52  H    0.016920
    53  H    0.012714
    54  H    0.043867
    55  H    0.018218
    56  H    0.018283
    57  H    0.004649
    58  H    0.026937
    59  H    0.043928
    60  H    0.032414
    61  H    0.036120
    62  H    0.042894
    63  H    0.016254
    64  H    0.009224
    65  H    0.023609
    66  H    0.013055
    67  H    0.005008
    68  H   -0.006516
    69  H   -0.005089
    70  H    0.015381
    71  H    0.031691
    72  H   -0.000560
    73  H    0.046099
    74  H    0.008782
    75  H    0.046894
    76  H    0.036032
    77  H    0.043597
    78  H    0.046632
    79  H    0.053966
    80  Mg   0.839536
    81  C   -0.017740
    82  C   -0.088522
    83  C   -0.047407
    84  C   -0.064275
    85  N   -0.254606
    86  C   -0.049264
    87  C   -0.015178
    88  C   -0.090361
    89  C    0.045357
    90  C    0.114700
    91  C    0.062643
    92  C   -0.077489
    93  H    0.034211
    94  N   -0.422780
    95  C    0.162020
    96  C   -0.176140
    97  C   -0.009751
    98  C    0.150501
    99  C    0.099988
   100  C    0.015141
   101  O   -0.256607
   102  C    0.061205
   103  N   -0.352021
   104  C    0.044890
   105  C   -0.035626
   106  C   -0.032474
   107  C    0.105742
   108  C    0.019011
   109  C   -0.055464
   110  C    0.116025
   111  N   -0.324677
   112  C    0.077736
   113  C   -0.160974
   114  C    0.001768
   115  C    0.097296
   116  C    0.133023
   117  C    0.042882
   118  O   -0.187713
   119  C    0.000904
   120  C    0.211107
   121  O   -0.251389
   122  O   -0.305598
   123  C    0.152220
   124  H   -0.021198
   125  H   -0.017204
   126  H   -0.033819
   127  H   -0.000973
   128  H   -0.005143
   129  H    0.022401
   130  H    0.014199
   131  H    0.015121
   132  H    0.013889
   133  H    0.037556
   134  H    0.020565
   135  H    0.019218
   136  H    0.008165
   137  H    0.023764
   138  H    0.038729
   139  H    0.036965
   140  H    0.034528
   141  H    0.034956
   142  H    0.032005
   143  H    0.038215
   144  H    0.127934
   145  H    0.008316
   146  H    0.064660
   147  H    0.067821
   148  H    0.012714
   149  H   -0.014207
   150  H   -0.001741
   151  H   -0.002949
   152  H    0.044081
   153  H    0.011380
   154  H    0.051565
   155  H    0.034899
   156  H    0.043602
   157  H    0.049168
   158  H    0.053288
 Sum of Mulliken charges =  -0.00000

 Dipole moment (field-independent basis, Debye):
    X=              1.7741    Y=              5.7942    Z=             -6.0502  Tot=              8.5630
 Quadrupole moment (field-independent basis, Debye-Ang):
   XX=           -472.7755   YY=           -544.9469   ZZ=           -471.5073
   XY=            -31.6917   XZ=             12.3587   YZ=            -12.1517

 Normal termination of Gaussian 16 at Thu Sep  9 11:20:38 2021.
