 Gaussian 16, Revision A.03,
 Gaussian 16:  ES64L-G16RevA.03 25-Dec-2016

 -----------------------------------
 #p cam-b3lyp/Def2SVP td=(nstates=5)
 -----------------------------------

 --------------------------------
 TDDFT excited states in gaussian
 --------------------------------
 Symbolic Z-matrix:
 Charge =  0 Multiplicity = 1

                         Standard orientation:
 ---------------------------------------------------------------------
 Center     Atomic      Atomic             Coordinates (Angstroms)
 Number     Number       Type             X           Y           Z
 ---------------------------------------------------------------------
      1         12           0       -5.204004    0.672239    0.329356
      2          6           0       -5.520641   -2.466403   -1.362058
      3          6           0       -5.846621   -0.997759    3.234733
      4          6           0       -5.379440    3.486294    1.780885
      5          6           0       -5.714213    2.216954   -2.752722
      6          7           0       -5.613420   -1.461506    0.753806
      7          6           0       -5.647355   -2.572603    0.024777
      8          6           0       -5.754721   -3.870051    0.880624
      9          6           0       -6.411308   -3.250971    2.195018
     10          6           0       -5.898668   -1.826649    2.074879
     11          6           0       -7.936072   -3.228642    2.161869
     12          6           0       -4.353722   -4.500722    1.182599
     13          6           0       -4.385045   -5.931609    1.727517
     14          1           0       -3.331534   -6.854479    1.332835
     15          7           0       -5.077691    1.135429    2.245694
     16          6           0       -5.362043    0.326798    3.294762
     17          6           0       -5.112161    1.132102    4.509557
     18          6           0       -4.842151    2.532254    4.079719
     19          6           0       -5.118337    2.445117    2.668512
     20          6           0       -5.096294    0.553807    5.891249
     21          6           0       -4.414784    3.757237    4.824640
     22          8           0       -4.462664    4.922789    4.301410
     23          6           0       -4.016988    3.565488    6.231065
     24          7           0       -5.721013    2.582663   -0.334434
     25          6           0       -5.657994    3.638278    0.484523
     26          6           0       -5.795912    4.925762   -0.272645
     27          6           0       -5.723288    4.538525   -1.820071
     28          6           0       -5.633004    2.999422   -1.674196
     29          6           0       -7.079146    5.724712   -0.006189
     30          6           0       -4.654156    5.262201   -2.676617
     31          6           0       -3.270967    4.833547   -2.240565
     32          7           0       -5.380690    0.027783   -1.735711
     33          6           0       -5.613340    0.839576   -2.855328
     34          6           0       -5.762787   -0.057585   -4.015861
     35          6           0       -5.622272   -1.338124   -3.484522
     36          6           0       -5.425353   -1.247865   -2.076911
     37          6           0       -6.054515    0.345636   -5.348805
     38          6           0       -5.617249   -2.762770   -3.774722
     39          8           0       -5.643898   -3.438034   -4.804674
     40          6           0       -5.672924   -3.555428   -2.394715
     41          6           0       -4.620478   -4.629288   -2.444598
     42          8           0       -3.407695   -4.335929   -2.466154
     43          8           0       -5.191870   -5.822498   -2.220317
     44          6           0       -4.197710   -6.928733   -2.227054
     45          1           0       -6.268093   -1.371518    4.169937
     46          1           0       -5.338604    4.483605    2.223764
     47          1           0       -5.791065    2.631016   -3.759746
     48          1           0       -6.408075   -4.636724    0.463774
     49          1           0       -6.025324   -3.717459    3.101178
     50          1           0       -8.317684   -3.523830    1.184547
     51          1           0       -8.217010   -2.199229    2.385198
     52          1           0       -8.349965   -3.833970    2.968743
     53          1           0       -3.904585   -3.988059    2.033195
     54          1           0       -3.716127   -4.465486    0.298542
     55          1           0       -5.365103   -6.389218    1.589716
     56          1           0       -4.256037   -5.888112    2.809027
     57          1           0       -5.491449   -0.461182    5.905153
     58          1           0       -5.805518    1.129574    6.485558
     59          1           0       -4.107271    0.606135    6.346690
     60          1           0       -4.850552    3.133343    6.785115
     61          1           0       -3.657770    4.534169    6.576707
     62          1           0       -3.209137    2.834345    6.272971
     63          1           0       -4.980069    5.607684   -0.036406
     64          1           0       -6.661123    4.742682   -2.337235
     65          1           0       -6.897354    6.742659    0.339414
     66          1           0       -7.679022    5.168596    0.713654
     67          1           0       -7.761653    5.789138   -0.853214
     68          1           0       -4.716974    6.339970   -2.530283
     69          1           0       -4.753187    5.066146   -3.744328
     70          1           0       -3.071347    5.484204   -1.389901
     71          1           0       -2.549877    5.004547   -3.040564
     72          1           0       -3.269630    3.807162   -1.873117
     73          1           0       -5.400763   -0.240325   -5.994736
     74          1           0       -5.890533    1.414479   -5.484037
     75          1           0       -7.107561    0.072901   -5.416383
     76          1           0       -6.677116   -3.969931   -2.311598
     77          1           0       -4.532065   -7.656263   -2.966744
     78          1           0       -4.101094   -7.264815   -1.194524
     79          1           0       -3.207091   -6.684222   -2.612057
     80         12           0        5.355375    0.732961   -0.483257
     81          6           0        5.274065   -2.582267    0.888481
     82          6           0        4.713297    1.888655    2.661062
     83          6           0        4.973986    3.625031   -1.731424
     84          6           0        4.851857   -0.701964   -3.619046
     85          7           0        5.053820   -0.310203    1.443690
     86          6           0        5.106831   -1.568267    1.854545
     87          6           0        5.053505   -1.744304    3.395881
     88          6           0        4.312647   -0.369372    3.769454
     89          6           0        4.743995    0.474040    2.571428
     90          6           0        2.797044   -0.479271    3.755301
     91          6           0        6.482889   -1.819654    4.038697
     92          6           0        6.510087   -2.298697    5.491808
     93          1           0        7.633905   -3.120245    5.932924
     94          7           0        5.396041    2.519693    0.379596
     95          6           0        5.130888    2.805641    1.671565
     96          6           0        5.277585    4.263844    1.799199
     97          6           0        5.489598    4.834585    0.441254
     98          6           0        5.269197    3.658558   -0.376339
     99          6           0        5.290586    4.967380    3.125199
    100          6           0        5.821557    6.213769   -0.042335
    101          8           0        5.724528    6.535102   -1.279335
    102          6           0        6.173553    7.202472    0.987265
    103          7           0        4.758903    1.389725   -2.363473
    104          6           0        4.728637    2.700785   -2.660344
    105          6           0        4.537674    2.920275   -4.142150
    106          6           0        4.688758    1.476559   -4.813298
    107          6           0        4.859761    0.621523   -3.538518
    108          6           0        3.201741    3.536613   -4.556626
    109          6           0        5.742055    1.333729   -5.945923
    110          6           0        7.134248    1.495999   -5.379473
    111          7           0        5.289147   -1.272903   -1.283364
    112          6           0        5.039265   -1.649806   -2.621115
    113          6           0        4.980722   -3.125580   -2.653958
    114          6           0        5.179292   -3.507100   -1.318474
    115          6           0        5.329435   -2.350085   -0.507145
    116          6           0        4.720233   -3.922389   -3.804328
    117          6           0        5.285428   -4.625205   -0.408935
    118          8           0        5.324566   -5.848265   -0.536701
    119          6           0        5.225334   -4.072736    1.080212
    120          6           0        6.339713   -4.715697    1.859500
    121          8           0        7.527337   -4.477478    1.577706
    122          8           0        5.824417   -5.330124    2.939924
    123          6           0        6.892295   -5.973592    3.750728
    124          1           0        4.290356    2.342651    3.557666
    125          1           0        4.941645    4.595992   -2.231100
    126          1           0        4.796267   -1.228356   -4.574286
    127          1           0        4.465469   -2.588028    3.736655
    128          1           0        4.702993    0.051528    4.692414
    129          1           0        2.465973   -1.436140    3.379868
    130          1           0        2.450147    0.319685    3.113137
    131          1           0        2.394157   -0.263677    4.749050
    132          1           0        6.870885   -0.801259    4.169303
    133          1           0        7.136002   -2.429219    3.444977
    134          1           0        5.559165   -2.754427    5.793449
    135          1           0        6.607807   -1.426615    6.142917
    136          1           0        4.947776    4.309262    3.933125
    137          1           0        4.531534    5.755625    3.076411
    138          1           0        6.257630    5.421522    3.351605
    139          1           0        5.350113    7.300051    1.690742
    140          1           0        6.464839    8.101881    0.441280
    141          1           0        7.030533    6.825070    1.556265
    142          1           0        5.305002    3.574010   -4.538310
    143          1           0        3.752776    1.148257   -5.288681
    144          1           0        3.313870    4.472140   -5.136539
    145          1           0        2.614554    3.710202   -3.664660
    146          1           0        2.552308    2.883741   -5.137309
    147          1           0        5.613258    2.128066   -6.685236
    148          1           0        5.681914    0.388504   -6.474998
    149          1           0        7.262444    2.582089   -5.347072
    150          1           0        7.870094    1.031013   -6.032451
    151          1           0        7.185100    1.127169   -4.348447
    152          1           0        5.420344   -4.746769   -3.777101
    153          1           0        4.821688   -3.343702   -4.720085
    154          1           0        3.682667   -4.208609   -3.612459
    155          1           0        4.244316   -4.325724    1.484150
    156          1           0        6.621810   -7.028837    3.855545
    157          1           0        6.962600   -5.376946    4.679611
    158          1           0        7.878931   -6.051008    3.309141
 ---------------------------------------------------------------------

 SCF Done:  E(RCAM-B3LYP) =  -4069.81175777     A.U. after   19 cycles

 Excitation energies and oscillator strengths:

 Excited State   1:      Singlet-A      1.6630 eV  745.56 nm  f=0.1369  <S**2>=0.000
     309 -> 315       -0.11294
     310 -> 316        0.12791
     311 -> 313       -0.45324
     312 -> 314        0.51574
 This state for optimization and/or second-order correction.
 Total Energy, E(TD-HF/TD-DFT) =  -4069.75064508
 Copying the excited state density for this state as the 1-particle RhoCI density.

 Excited State   2:      Singlet-A      1.6889 eV  734.10 nm  f=0.5689  <S**2>=0.000
     309 -> 315        0.13330
     310 -> 316        0.11719
     311 -> 313        0.51451
     312 -> 314        0.45232

 Excited State   3:      Singlet-A      2.1849 eV  567.46 nm  f=0.0597  <S**2>=0.000
     309 -> 313       -0.23245
     310 -> 314        0.59946
     312 -> 316       -0.25425

 Excited State   4:      Singlet-A      2.1918 eV  565.68 nm  f=0.1327  <S**2>=0.000
     309 -> 313        0.59737
     310 -> 314        0.23064
     311 -> 315       -0.25927
     312 -> 316       -0.10092

 Excited State   5:      Singlet-A      2.4856 eV  498.81 nm  f=0.0000  <S**2>=0.000
     312 -> 313        0.70709

 The electronic state is 1-A.
 Alpha  occ. eigenvalues --  -46.87874 -46.87500 -19.26285 -19.26267 -19.19076
 Alpha  occ. eigenvalues --  -19.19021 -19.18945 -19.18571 -19.18231 -19.17902
 Alpha  occ. eigenvalues --  -14.42522 -14.42349 -14.41523 -14.41196 -14.39487
 Alpha  occ. eigenvalues --  -14.39194 -14.38663 -14.38432 -10.39084 -10.39002
 Alpha  occ. eigenvalues --  -10.35583 -10.35250 -10.34448 -10.34081 -10.31721
 Alpha  occ. eigenvalues --  -10.31621 -10.31469 -10.31162 -10.30982 -10.30894
 Alpha  occ. eigenvalues --  -10.30644 -10.30588 -10.30290 -10.30228 -10.30193
 Alpha  occ. eigenvalues --  -10.29989 -10.29975 -10.29722 -10.29717 -10.29344
 Alpha  occ. eigenvalues --  -10.29272 -10.29233 -10.28790 -10.28637 -10.28631
 Alpha  occ. eigenvalues --  -10.28522 -10.28444 -10.28252 -10.28166 -10.28057
 Alpha  occ. eigenvalues --  -10.27877 -10.27834 -10.27803 -10.27679 -10.27610
 Alpha  occ. eigenvalues --  -10.27563 -10.27521 -10.27512 -10.27472 -10.27337
 Alpha  occ. eigenvalues --  -10.27334 -10.27325 -10.27303 -10.27211 -10.27200
 Alpha  occ. eigenvalues --  -10.26921 -10.26726 -10.26631 -10.26594 -10.26289
 Alpha  occ. eigenvalues --  -10.26280 -10.26230 -10.26096 -10.25971 -10.25970
 Alpha  occ. eigenvalues --  -10.25921 -10.25756 -10.25591 -10.25495 -10.25237
 Alpha  occ. eigenvalues --  -10.24912 -10.24864 -10.24724 -10.24701 -10.24583
 Alpha  occ. eigenvalues --  -10.24531  -3.16617  -3.16250  -1.91499  -1.91132
 Alpha  occ. eigenvalues --   -1.91085  -1.90927  -1.90721  -1.90558  -1.16620
 Alpha  occ. eigenvalues --   -1.16574  -1.08683  -1.08513  -1.07349  -1.06861
 Alpha  occ. eigenvalues --   -1.06825  -1.06643  -1.04653  -1.04349  -1.03835
 Alpha  occ. eigenvalues --   -1.03505  -1.03314  -1.02872  -1.02488  -1.01948
 Alpha  occ. eigenvalues --   -0.92037  -0.91837  -0.89585  -0.89331  -0.89235
 Alpha  occ. eigenvalues --   -0.89057  -0.88351  -0.88059  -0.87949  -0.87741
 Alpha  occ. eigenvalues --   -0.87605  -0.87534  -0.87387  -0.86968  -0.85036
 Alpha  occ. eigenvalues --   -0.84891  -0.83993  -0.83720  -0.83090  -0.82788
 Alpha  occ. eigenvalues --   -0.82707  -0.82539  -0.81617  -0.81478  -0.80656
 Alpha  occ. eigenvalues --   -0.80311  -0.78895  -0.78473  -0.77283  -0.77015
 Alpha  occ. eigenvalues --   -0.76970  -0.76782  -0.75968  -0.75724  -0.74955
 Alpha  occ. eigenvalues --   -0.74655  -0.72848  -0.72533  -0.71734  -0.71443
 Alpha  occ. eigenvalues --   -0.69963  -0.69600  -0.68935  -0.68712  -0.67718
 Alpha  occ. eigenvalues --   -0.67457  -0.67279  -0.67094  -0.65335  -0.65162
 Alpha  occ. eigenvalues --   -0.64911  -0.64671  -0.64625  -0.64530  -0.64332
 Alpha  occ. eigenvalues --   -0.64047  -0.62319  -0.62165  -0.60540  -0.60185
 Alpha  occ. eigenvalues --   -0.59864  -0.59679  -0.59053  -0.58842  -0.58570
 Alpha  occ. eigenvalues --   -0.58280  -0.57629  -0.57423  -0.57375  -0.57083
 Alpha  occ. eigenvalues --   -0.56390  -0.56051  -0.55993  -0.55788  -0.55607
 Alpha  occ. eigenvalues --   -0.55386  -0.55322  -0.55103  -0.54557  -0.54359
 Alpha  occ. eigenvalues --   -0.53942  -0.53819  -0.53388  -0.53291  -0.53077
 Alpha  occ. eigenvalues --   -0.53020  -0.52969  -0.52848  -0.52785  -0.52543
 Alpha  occ. eigenvalues --   -0.52491  -0.52245  -0.51989  -0.51679  -0.51665
 Alpha  occ. eigenvalues --   -0.51550  -0.51251  -0.51058  -0.50707  -0.50337
 Alpha  occ. eigenvalues --   -0.50099  -0.50018  -0.49859  -0.49713  -0.49588
 Alpha  occ. eigenvalues --   -0.49362  -0.49287  -0.49147  -0.49077  -0.48979
 Alpha  occ. eigenvalues --   -0.48641  -0.48562  -0.48507  -0.48434  -0.48224
 Alpha  occ. eigenvalues --   -0.48201  -0.47764  -0.47467  -0.47372  -0.46975
 Alpha  occ. eigenvalues --   -0.46860  -0.46604  -0.46567  -0.46448  -0.46429
 Alpha  occ. eigenvalues --   -0.46218  -0.46114  -0.45925  -0.45865  -0.45679
 Alpha  occ. eigenvalues --   -0.45265  -0.45058  -0.44640  -0.44587  -0.44401
 Alpha  occ. eigenvalues --   -0.44341  -0.44216  -0.44143  -0.44086  -0.44004
 Alpha  occ. eigenvalues --   -0.43934  -0.43806  -0.43532  -0.43445  -0.43440
 Alpha  occ. eigenvalues --   -0.43258  -0.43090  -0.42825  -0.42757  -0.42744
 Alpha  occ. eigenvalues --   -0.42668  -0.42400  -0.42060  -0.41832  -0.41768
 Alpha  occ. eigenvalues --   -0.41582  -0.41529  -0.41345  -0.41203  -0.40950
 Alpha  occ. eigenvalues --   -0.40906  -0.40861  -0.40628  -0.40607  -0.40584
 Alpha  occ. eigenvalues --   -0.40344  -0.40271  -0.40146  -0.39493  -0.39265
 Alpha  occ. eigenvalues --   -0.38526  -0.38204  -0.37785  -0.37565  -0.37385
 Alpha  occ. eigenvalues --   -0.37314  -0.37114  -0.37071  -0.36733  -0.36676
 Alpha  occ. eigenvalues --   -0.36230  -0.36080  -0.34359  -0.34098  -0.33787
 Alpha  occ. eigenvalues --   -0.33762  -0.33256  -0.33016  -0.31472  -0.31131
 Alpha  occ. eigenvalues --   -0.31108  -0.30822  -0.30087  -0.29808  -0.29544
 Alpha  occ. eigenvalues --   -0.29402  -0.29166  -0.29035  -0.24154  -0.23875
 Alpha  occ. eigenvalues --   -0.21206  -0.20956
 Alpha virt. eigenvalues --   -0.08858  -0.08629  -0.01830  -0.01525  -0.00157
 Alpha virt. eigenvalues --    0.00116   0.02128   0.02372   0.03027   0.03374
 Alpha virt. eigenvalues --    0.04665   0.04859   0.05086   0.05259   0.06165

 Mulliken charges:
               1
     1  Mg   0.838650
     2  C   -0.002823
     3  C   -0.094377
     4  C   -0.045975
     5  C   -0.064019
     6  N   -0.256809
     7  C   -0.052245
     8  C   -0.013957
     9  C   -0.086923
    10  C    0.046263
    11  C    0.104805
    12  C    0.053534
    13  C   -0.072505
    14  H    0.038178
    15  N   -0.433052
    16  C    0.168122
    17  C   -0.177616
    18  C   -0.004493
    19  C    0.148607
    20  C    0.110251
    21  C    0.011625
    22  O   -0.249693
    23  C    0.062901
    24  N   -0.341217
    25  C    0.041300
    26  C   -0.028158
    27  C   -0.024087
    28  C    0.075099
    29  C    0.076130
    30  C    0.035055
    31  C   -0.004442
    32  N   -0.310534
    33  C    0.080647
    34  C   -0.169820
    35  C    0.008482
    36  C    0.083087
    37  C    0.127325
    38  C    0.046156
    39  O   -0.187985
    40  C   -0.005259
    41  C    0.212861
    42  O   -0.256910
    43  O   -0.304945
    44  C    0.157350
    45  H   -0.017620
    46  H   -0.016958
    47  H   -0.041365
    48  H    0.001262
    49  H   -0.004083
    50  H    0.025615
    51  H    0.016317
    52  H    0.016774
    53  H    0.010481
    54  H    0.044592
    55  H    0.017890
    56  H    0.017554
    57  H    0.006068
    58  H    0.026896
    59  H    0.038125
    60  H    0.037799
    61  H    0.035011
    62  H    0.029881
    63  H    0.016560
    64  H    0.009599
    65  H    0.023245
    66  H    0.012495
    67  H    0.004905
    68  H    0.006724
    69  H    0.004661
    70  H    0.009073
    71  H    0.018533
    72  H    0.028622
    73  H    0.047468
    74  H    0.009124
    75  H    0.046310
    76  H    0.035341
    77  H    0.043193
    78  H    0.046768
    79  H    0.054552
    80  Mg   0.838218
    81  C   -0.016840
    82  C   -0.087990
    83  C   -0.045379
    84  C   -0.063139
    85  N   -0.254465
    86  C   -0.049701
    87  C   -0.015057
    88  C   -0.090567
    89  C    0.045711
    90  C    0.114599
    91  C    0.062660
    92  C   -0.077494
    93  H    0.034512
    94  N   -0.423422
    95  C    0.162686
    96  C   -0.174607
    97  C   -0.007951
    98  C    0.152003
    99  C    0.099362
   100  C    0.015464
   101  O   -0.253587
   102  C    0.061228
   103  N   -0.349827
   104  C    0.037559
   105  C   -0.019899
   106  C   -0.035163
   107  C    0.088928
   108  C    0.073545
   109  C    0.034673
   110  C   -0.007587
   111  N   -0.324366
   112  C    0.078593
   113  C   -0.161539
   114  C    0.002563
   115  C    0.096481
   116  C    0.131012
   117  C    0.043020
   118  O   -0.188245
   119  C    0.000668
   120  C    0.211057
   121  O   -0.251094
   122  O   -0.305822
   123  C    0.152159
   124  H   -0.020326
   125  H   -0.015884
   126  H   -0.039442
   127  H   -0.001380
   128  H   -0.005034
   129  H    0.022602
   130  H    0.015275
   131  H    0.014050
   132  H    0.013997
   133  H    0.037741
   134  H    0.019991
   135  H    0.019279
   136  H    0.008196
   137  H    0.026514
   138  H    0.039245
   139  H    0.038464
   140  H    0.035985
   141  H    0.033605
   142  H    0.013979
   143  H    0.014010
   144  H    0.024198
   145  H    0.011691
   146  H    0.006466
   147  H    0.005987
   148  H    0.004145
   149  H    0.010601
   150  H    0.017692
   151  H    0.029998
   152  H    0.045169
   153  H    0.008623
   154  H    0.050503
   155  H    0.035033
   156  H    0.043401
   157  H    0.049090
   158  H    0.053574
 Sum of Mulliken charges =  -0.00000

 Dipole moment (field-independent basis, Debye):
    X=             -3.5501    Y=              1.9595    Z=              6.9645  Tot=              8.0590
 Quadrupole moment (field-independent basis, Debye-Ang):
   XX=           -518.8335   YY=           -532.1885   ZZ=           -467.0270
   XY=             20.0815   XZ=             -1.8925   YZ=            -30.5018

 Normal termination of Gaussian 16 at Sat Sep  4 04:49:42 2021.
