 Gaussian 16, Revision A.03,
 Gaussian 16:  ES64L-G16RevA.03 25-Dec-2016

 -----------------------------------
 #p cam-b3lyp/Def2SVP td=(nstates=5)
 -----------------------------------

 --------------------------------
 TDDFT excited states in gaussian
 --------------------------------
 Symbolic Z-matrix:
 Charge =  0 Multiplicity = 1

                         Standard orientation:
 ---------------------------------------------------------------------
 Center     Atomic      Atomic             Coordinates (Angstroms)
 Number     Number       Type             X           Y           Z
 ---------------------------------------------------------------------
      1         12           0        4.464957   -0.569733    1.006062
      2          6           0        5.114758    2.261036   -1.085999
      3          6           0        4.702439    1.538390    3.678604
      4          6           0        4.346070   -3.118667    2.888992
      5          6           0        5.396595   -2.583703   -1.681248
      6          7           0        4.859942    1.603743    1.149698
      7          6           0        5.032492    2.585331    0.269991
      8          6           0        5.042165    4.001786    0.918785
      9          6           0        5.475838    3.597762    2.398884
     10          6           0        4.950941    2.173086    2.425432
     11          6           0        6.986929    3.568392    2.604416
     12          6           0        3.628239    4.674223    0.899504
     13          6           0        3.613325    6.173301    1.212388
     14          1           0        2.655847    7.023460    0.521148
     15          7           0        4.037800   -0.723452    2.928757
     16          6           0        4.180523    0.240711    3.869664
     17          6           0        3.728817   -0.361726    5.142342
     18          6           0        3.491227   -1.811910    4.900245
     19          6           0        3.980260   -1.949715    3.552197
     20          6           0        3.518562    0.428086    6.397627
     21          6           0        2.924590   -2.902896    5.752775
     22          8           0        3.021288   -4.136660    5.431763
     23          6           0        2.323275   -2.490315    7.033883
     24          7           0        5.027392   -2.561867    0.736419
     25          6           0        4.813899   -3.474393    1.690726
     26          6           0        5.031892   -4.865717    1.174359
     27          6           0        5.204611   -4.728306   -0.407108
     28          6           0        5.132797   -3.185401   -0.519165
     29          6           0        6.238979   -5.614137    1.756441
     30          6           0        4.259437   -5.577032   -1.294086
     31          6           0        2.837601   -5.082857   -1.148245
     32          7           0        4.969082   -0.260657   -1.082328
     33          6           0        5.347827   -1.239816   -2.012100
     34          6           0        5.694427   -0.537951   -3.261629
     35          6           0        5.507917    0.810759   -2.964914
     36          6           0        5.097674    0.944805   -1.607702
     37          6           0        6.174369   -1.147555   -4.454303
     38          6           0        5.583507    2.171482   -3.471448
     39          8           0        5.783280    2.675094   -4.577775
     40          6           0        5.449702    3.172588   -2.240308
     41          6           0        4.444890    4.226431   -2.618566
     42          8           0        3.242260    3.935009   -2.780184
     43          8           0        5.006125    5.439323   -2.498359
     44          6           0        4.053198    6.531884   -2.830619
     45          1           0        4.986749    2.054951    4.597448
     46          1           0        4.212994   -4.033207    3.470666
     47          1           0        5.614538   -3.152110   -2.587266
     48          1           0        5.770614    4.691888    0.492703
     49          1           0        4.969070    4.202381    3.150778
     50          1           0        7.519712    3.704577    1.663398
     51          1           0        7.204254    2.586951    3.026360
     52          1           0        7.289144    4.293290    3.360701
     53          1           0        3.042358    4.303333    1.740483
     54          1           0        3.131313    4.500306   -0.055558
     55          1           0        4.614366    6.601982    1.157086
     56          1           0        3.320812    6.301787    2.254563
     57          1           0        3.932966    1.431932    6.313330
     58          1           0        4.114499   -0.047270    7.176476
     59          1           0        2.470921    0.449883    6.698136
     60          1           0        3.074047   -1.977021    7.635066
     61          1           0        1.891074   -3.391552    7.467270
     62          1           0        1.537442   -1.760664    6.836336
     63          1           0        4.172437   -5.500517    1.386001
     64          1           0        6.204444   -5.013055   -0.735628
     65          1           0        5.980836   -6.564265    2.224762
     66          1           0        6.736894   -4.951866    2.464090
     67          1           0        7.040102   -5.812806    1.044999
     68          1           0        4.271664   -6.618115   -0.973238
     69          1           0        4.524154   -5.552660   -2.351244
     70          1           0        2.494718   -5.590329   -0.247281
     71          1           0        2.241947   -5.377401   -2.012914
     72          1           0        2.806932   -4.011235   -0.950326
     73          1           0        5.641331   -0.670383   -5.276585
     74          1           0        6.005398   -2.224103   -4.444432
     75          1           0        7.232141   -0.890395   -4.400982
     76          1           0        6.439999    3.593658   -2.069619
     77          1           0        4.514367    7.132648   -3.614609
     78          1           0        3.809859    7.027360   -1.890569
     79          1           0        3.126432    6.230839   -3.320328
     80         12           0       -4.285184   -0.711333   -1.042869
     81          6           0       -5.909149    1.609603    1.160555
     82          6           0       -3.854324    1.882741   -3.215375
     83          6           0       -3.257631   -2.809831   -3.189469
     84          6           0       -5.829799   -3.274194    0.743625
     85          7           0       -4.851351    1.423780   -0.928850
     86          6           0       -5.409701    2.204975   -0.016525
     87          6           0       -5.362149    3.720052   -0.350965
     88          6           0       -5.231988    3.609863   -1.947763
     89          6           0       -4.572472    2.235724   -2.044997
     90          6           0       -6.573953    3.546922   -2.658053
     91          6           0       -4.114192    4.432392    0.279279
     92          6           0       -4.166081    5.961597    0.254680
     93          1           0       -3.587821    6.695784    1.376756
     94          7           0       -3.221381   -0.440915   -2.696288
     95          6           0       -3.143425    0.683186   -3.438988
     96          6           0       -2.247938    0.362597   -4.561256
     97          6           0       -1.934587   -1.091365   -4.510769
     98          6           0       -2.828552   -1.517083   -3.452622
     99          6           0       -1.713878    1.405475   -5.499662
    100          6           0       -0.996165   -1.957805   -5.294885
    101          8           0       -1.059374   -3.236964   -5.244078
    102          6           0       -0.062621   -1.265715   -6.195442
    103          7           0       -4.674145   -2.732283   -1.337486
    104          6           0       -4.055460   -3.420330   -2.313064
    105          6           0       -4.280227   -4.905719   -2.159811
    106          6           0       -4.980940   -5.089356   -0.734025
    107          6           0       -5.127298   -3.605593   -0.331007
    108          6           0       -5.141307   -5.562984   -3.238204
    109          6           0       -4.298342   -6.062893    0.265453
    110          6           0       -2.967797   -5.498428    0.708636
    111          7           0       -5.476745   -0.855962    0.753596
    112          6           0       -6.043430   -2.023813    1.309555
    113          6           0       -6.862072   -1.602940    2.465035
    114          6           0       -6.732326   -0.206095    2.487418
    115          6           0       -5.908479    0.215694    1.409056
    116          6           0       -7.633073   -2.463883    3.295959
    117          6           0       -7.113596    1.008410    3.171736
    118          8           0       -7.729841    1.266543    4.204869
    119          6           0       -6.700292    2.248805    2.267856
    120          6           0       -5.997063    3.248522    3.144536
    121          8           0       -4.901608    2.972791    3.664680
    122          8           0       -6.622976    4.435724    3.048806
    123          6           0       -5.955617    5.462968    3.892148
    124          1           0       -3.870027    2.570843   -4.061036
    125          1           0       -2.841249   -3.585654   -3.836147
    126          1           0       -6.263815   -4.021988    1.410792
    127          1           0       -6.256821    4.271586   -0.088016
    128          1           0       -4.573087    4.377960   -2.344288
    129          1           0       -7.395199    3.467379   -1.961359
    130          1           0       -6.530088    2.671532   -3.292726
    131          1           0       -6.684680    4.401932   -3.331121
    132          1           0       -3.242062    4.263595   -0.365418
    133          1           0       -3.948103    4.092575    1.283050
    134          1           0       -5.171527    6.336309    0.027506
    135          1           0       -3.553469    6.316245   -0.577754
    136          1           0       -2.248924    2.356873   -5.390310
    137          1           0       -1.953730    1.074194   -6.515833
    138          1           0       -0.632579    1.533598   -5.415701
    139          1           0       -0.625276   -0.673090   -6.912839
    140          1           0        0.585175   -2.045633   -6.600380
    141          1           0        0.535252   -0.561786   -5.605825
    142          1           0       -3.338854   -5.441368   -2.160319
    143          1           0       -6.000416   -5.491020   -0.829770
    144          1           0       -4.630541   -6.396126   -3.756916
    145          1           0       -5.442023   -4.801801   -3.945822
    146          1           0       -6.099009   -5.948743   -2.892948
    147          1           0       -4.083807   -7.017116   -0.221980
    148          1           0       -4.902496   -6.277035    1.140741
    149          1           0       -2.292269   -5.795666   -0.099080
    150          1           0       -2.663764   -5.934564    1.658057
    151          1           0       -2.992896   -4.402741    0.730952
    152          1           0       -7.464440   -2.145178    4.316003
    153          1           0       -7.356437   -3.506456    3.153485
    154          1           0       -8.637087   -2.250480    2.919568
    155          1           0       -7.613900    2.656446    1.833440
    156          1           0       -6.719244    5.873159    4.560205
    157          1           0       -5.475870    6.164859    3.184382
    158          1           0       -5.213058    5.121803    4.603955
 ---------------------------------------------------------------------

 SCF Done:  E(RCAM-B3LYP) =  -4069.81299994     A.U. after   18 cycles

 Excitation energies and oscillator strengths:

 Excited State   1:      Singlet-A      1.6468 eV  752.86 nm  f=0.0314  <S**2>=0.000
     309 -> 315        0.11523
     310 -> 316        0.12081
     311 -> 313       -0.47334
     312 -> 314        0.49897
 This state for optimization and/or second-order correction.
 Total Energy, E(TD-HF/TD-DFT) =  -4069.75247973
 Copying the excited state density for this state as the 1-particle RhoCI density.

 Excited State   2:      Singlet-A      1.7050 eV  727.20 nm  f=0.6742  <S**2>=0.000
     309 -> 315       -0.13217
     310 -> 316        0.12462
     311 -> 313        0.49632
     312 -> 314        0.47100

 Excited State   3:      Singlet-A      2.1854 eV  567.34 nm  f=0.0074  <S**2>=0.000
     309 -> 313        0.37259
     310 -> 314        0.52536
     311 -> 315        0.15632
     312 -> 316       -0.22120

 Excited State   4:      Singlet-A      2.1971 eV  564.31 nm  f=0.1687  <S**2>=0.000
     309 -> 313        0.52161
     310 -> 314       -0.36894
     311 -> 315        0.22998
     312 -> 316        0.16278

 Excited State   5:      Singlet-A      2.4334 eV  509.51 nm  f=0.0000  <S**2>=0.000
     312 -> 313        0.70703

 The electronic state is 1-A.
 Alpha  occ. eigenvalues --  -46.87726 -46.87431 -19.26452 -19.26293 -19.19198
 Alpha  occ. eigenvalues --  -19.19091 -19.18692 -19.18418 -19.18209 -19.17871
 Alpha  occ. eigenvalues --  -14.42386 -14.42270 -14.41369 -14.41136 -14.39326
 Alpha  occ. eigenvalues --  -14.39108 -14.38534 -14.38377 -10.39238 -10.39011
 Alpha  occ. eigenvalues --  -10.35319 -10.35083 -10.34433 -10.34055 -10.31885
 Alpha  occ. eigenvalues --  -10.31747 -10.31367 -10.31098 -10.30848 -10.30777
 Alpha  occ. eigenvalues --  -10.30521 -10.30446 -10.30182 -10.30131 -10.30091
 Alpha  occ. eigenvalues --  -10.29889 -10.29856 -10.29707 -10.29566 -10.29168
 Alpha  occ. eigenvalues --  -10.29165 -10.29147 -10.28730 -10.28576 -10.28546
 Alpha  occ. eigenvalues --  -10.28529 -10.28313 -10.28162 -10.28082 -10.27936
 Alpha  occ. eigenvalues --  -10.27755 -10.27743 -10.27657 -10.27504 -10.27422
 Alpha  occ. eigenvalues --  -10.27360 -10.27355 -10.27334 -10.27326 -10.27320
 Alpha  occ. eigenvalues --  -10.27265 -10.27207 -10.27206 -10.27188 -10.26935
 Alpha  occ. eigenvalues --  -10.26896 -10.26708 -10.26520 -10.26210 -10.26203
 Alpha  occ. eigenvalues --  -10.25963 -10.25957 -10.25955 -10.25926 -10.25845
 Alpha  occ. eigenvalues --  -10.25841 -10.25704 -10.25678 -10.25338 -10.25253
 Alpha  occ. eigenvalues --  -10.24802 -10.24717 -10.24643 -10.24529 -10.24476
 Alpha  occ. eigenvalues --  -10.24381  -3.16468  -3.16182  -1.91350  -1.91064
 Alpha  occ. eigenvalues --   -1.90936  -1.90779  -1.90652  -1.90489  -1.16800
 Alpha  occ. eigenvalues --   -1.16582  -1.08686  -1.08494  -1.07090  -1.06873
 Alpha  occ. eigenvalues --   -1.06814  -1.06674  -1.04523  -1.04267  -1.03685
 Alpha  occ. eigenvalues --   -1.03434  -1.03167  -1.02810  -1.02345  -1.01883
 Alpha  occ. eigenvalues --   -0.91949  -0.91782  -0.89408  -0.89285  -0.89156
 Alpha  occ. eigenvalues --   -0.88955  -0.88174  -0.88024  -0.87838  -0.87610
 Alpha  occ. eigenvalues --   -0.87583  -0.87457  -0.87160  -0.86768  -0.84945
 Alpha  occ. eigenvalues --   -0.84798  -0.83822  -0.83691  -0.82827  -0.82634
 Alpha  occ. eigenvalues --   -0.82597  -0.82387  -0.81620  -0.81447  -0.80565
 Alpha  occ. eigenvalues --   -0.80241  -0.78710  -0.78339  -0.77146  -0.76916
 Alpha  occ. eigenvalues --   -0.76915  -0.76731  -0.75909  -0.75641  -0.74815
 Alpha  occ. eigenvalues --   -0.74612  -0.72712  -0.72472  -0.71622  -0.71380
 Alpha  occ. eigenvalues --   -0.69744  -0.69561  -0.68828  -0.68616  -0.67591
 Alpha  occ. eigenvalues --   -0.67385  -0.67171  -0.66965  -0.65262  -0.65079
 Alpha  occ. eigenvalues --   -0.64830  -0.64574  -0.64573  -0.64464  -0.64165
 Alpha  occ. eigenvalues --   -0.64005  -0.62344  -0.62140  -0.60337  -0.60049
 Alpha  occ. eigenvalues --   -0.59765  -0.59585  -0.58937  -0.58786  -0.58461
 Alpha  occ. eigenvalues --   -0.58220  -0.57636  -0.57404  -0.57237  -0.57009
 Alpha  occ. eigenvalues --   -0.56277  -0.56037  -0.55979  -0.55732  -0.55452
 Alpha  occ. eigenvalues --   -0.55295  -0.55212  -0.55071  -0.54501  -0.54335
 Alpha  occ. eigenvalues --   -0.53869  -0.53717  -0.53231  -0.53170  -0.53010
 Alpha  occ. eigenvalues --   -0.52914  -0.52911  -0.52711  -0.52651  -0.52315
 Alpha  occ. eigenvalues --   -0.52261  -0.52205  -0.51905  -0.51700  -0.51575
 Alpha  occ. eigenvalues --   -0.51420  -0.51161  -0.51011  -0.50412  -0.50097
 Alpha  occ. eigenvalues --   -0.49905  -0.49818  -0.49700  -0.49632  -0.49462
 Alpha  occ. eigenvalues --   -0.49232  -0.49182  -0.49077  -0.48958  -0.48917
 Alpha  occ. eigenvalues --   -0.48602  -0.48416  -0.48375  -0.48345  -0.48202
 Alpha  occ. eigenvalues --   -0.48045  -0.47628  -0.47355  -0.47224  -0.46853
 Alpha  occ. eigenvalues --   -0.46726  -0.46529  -0.46503  -0.46345  -0.46304
 Alpha  occ. eigenvalues --   -0.46118  -0.46036  -0.45896  -0.45844  -0.45667
 Alpha  occ. eigenvalues --   -0.45101  -0.45015  -0.44583  -0.44414  -0.44335
 Alpha  occ. eigenvalues --   -0.44266  -0.44106  -0.44010  -0.43954  -0.43931
 Alpha  occ. eigenvalues --   -0.43863  -0.43645  -0.43520  -0.43414  -0.43324
 Alpha  occ. eigenvalues --   -0.43190  -0.42983  -0.42804  -0.42802  -0.42703
 Alpha  occ. eigenvalues --   -0.42523  -0.42326  -0.41916  -0.41772  -0.41665
 Alpha  occ. eigenvalues --   -0.41488  -0.41473  -0.41263  -0.41092  -0.40807
 Alpha  occ. eigenvalues --   -0.40788  -0.40712  -0.40517  -0.40461  -0.40432
 Alpha  occ. eigenvalues --   -0.40305  -0.40205  -0.40012  -0.39262  -0.39226
 Alpha  occ. eigenvalues --   -0.38367  -0.38164  -0.37734  -0.37483  -0.37234
 Alpha  occ. eigenvalues --   -0.37223  -0.37062  -0.36985  -0.36806  -0.36675
 Alpha  occ. eigenvalues --   -0.36163  -0.36041  -0.34232  -0.34039  -0.33910
 Alpha  occ. eigenvalues --   -0.33763  -0.33132  -0.32951  -0.31226  -0.30989
 Alpha  occ. eigenvalues --   -0.30976  -0.30750  -0.30075  -0.29785  -0.29383
 Alpha  occ. eigenvalues --   -0.29273  -0.29066  -0.28969  -0.24019  -0.23814
 Alpha  occ. eigenvalues --   -0.21059  -0.20879
 Alpha virt. eigenvalues --   -0.08707  -0.08544  -0.01671  -0.01453   0.00022
 Alpha virt. eigenvalues --    0.00248   0.02219   0.02408   0.02878   0.03784
 Alpha virt. eigenvalues --    0.04763   0.04928   0.04962   0.05260   0.06161

 Mulliken charges:
               1
     1  Mg   0.839340
     2  C   -0.003663
     3  C   -0.093344
     4  C   -0.045627
     5  C   -0.062995
     6  N   -0.256936
     7  C   -0.052654
     8  C   -0.014224
     9  C   -0.087182
    10  C    0.046671
    11  C    0.104779
    12  C    0.053232
    13  C   -0.071293
    14  H    0.033889
    15  N   -0.433368
    16  C    0.169241
    17  C   -0.175962
    18  C   -0.003244
    19  C    0.149044
    20  C    0.109909
    21  C    0.013012
    22  O   -0.249727
    23  C    0.061800
    24  N   -0.341307
    25  C    0.041750
    26  C   -0.028142
    27  C   -0.023946
    28  C    0.074855
    29  C    0.076261
    30  C    0.034958
    31  C   -0.005637
    32  N   -0.309941
    33  C    0.079827
    34  C   -0.171375
    35  C    0.006819
    36  C    0.082145
    37  C    0.127803
    38  C    0.043961
    39  O   -0.190676
    40  C   -0.004672
    41  C    0.212812
    42  O   -0.259874
    43  O   -0.304011
    44  C    0.158441
    45  H   -0.017367
    46  H   -0.016595
    47  H   -0.041095
    48  H    0.000356
    49  H   -0.003550
    50  H    0.025213
    51  H    0.016676
    52  H    0.016720
    53  H    0.012984
    54  H    0.042656
    55  H    0.017785
    56  H    0.018955
    57  H    0.005929
    58  H    0.026705
    59  H    0.042539
    60  H    0.037049
    61  H    0.035820
    62  H    0.034229
    63  H    0.016856
    64  H    0.009036
    65  H    0.023118
    66  H    0.012269
    67  H    0.004694
    68  H    0.005677
    69  H    0.005449
    70  H    0.007282
    71  H    0.024075
    72  H    0.028504
    73  H    0.044991
    74  H    0.010211
    75  H    0.045913
    76  H    0.035234
    77  H    0.042805
    78  H    0.046997
    79  H    0.051134
    80  Mg   0.837435
    81  C   -0.017154
    82  C   -0.085087
    83  C   -0.045926
    84  C   -0.064958
    85  N   -0.254558
    86  C   -0.050528
    87  C   -0.015156
    88  C   -0.090771
    89  C    0.045767
    90  C    0.114400
    91  C    0.061825
    92  C   -0.077098
    93  H    0.032117
    94  N   -0.423918
    95  C    0.164006
    96  C   -0.171646
    97  C   -0.007185
    98  C    0.152112
    99  C    0.098216
   100  C    0.015906
   101  O   -0.255583
   102  C    0.059545
   103  N   -0.350105
   104  C    0.037992
   105  C   -0.019698
   106  C   -0.034493
   107  C    0.088450
   108  C    0.073916
   109  C    0.034893
   110  C   -0.007629
   111  N   -0.323743
   112  C    0.077532
   113  C   -0.164046
   114  C    0.001645
   115  C    0.095438
   116  C    0.131724
   117  C    0.041402
   118  O   -0.189678
   119  C    0.001133
   120  C    0.211248
   121  O   -0.252199
   122  O   -0.305340
   123  C    0.152546
   124  H   -0.019152
   125  H   -0.016286
   126  H   -0.041178
   127  H   -0.001455
   128  H   -0.003427
   129  H    0.021999
   130  H    0.014512
   131  H    0.016062
   132  H    0.016591
   133  H    0.036501
   134  H    0.020408
   135  H    0.020301
   136  H    0.008695
   137  H    0.024746
   138  H    0.050608
   139  H    0.038336
   140  H    0.034110
   141  H    0.041747
   142  H    0.013668
   143  H    0.011814
   144  H    0.024404
   145  H    0.011695
   146  H    0.005373
   147  H    0.005369
   148  H    0.003386
   149  H    0.010218
   150  H    0.018973
   151  H    0.030278
   152  H    0.044845
   153  H    0.008166
   154  H    0.046265
   155  H    0.034601
   156  H    0.043405
   157  H    0.049458
   158  H    0.052206
 Sum of Mulliken charges =  -0.00000

 Dipole moment (field-independent basis, Debye):
    X=              1.6345    Y=              3.0862    Z=              0.3063  Tot=              3.5057
 Quadrupole moment (field-independent basis, Debye-Ang):
   XX=           -516.4625   YY=           -462.3421   ZZ=           -524.2098
   XY=              2.4319   XZ=             46.7922   YZ=             11.0057

 Normal termination of Gaussian 16 at Thu Sep  9 16:18:45 2021.
