 Gaussian 16, Revision A.03,
 Gaussian 16:  ES64L-G16RevA.03 25-Dec-2016

 -----------------------------------
 #p cam-b3lyp/Def2SVP td=(nstates=5)
 -----------------------------------

 --------------------------------
 TDDFT excited states in gaussian
 --------------------------------
 Symbolic Z-matrix:
 Charge =  0 Multiplicity = 1

                         Standard orientation:
 ---------------------------------------------------------------------
 Center     Atomic      Atomic             Coordinates (Angstroms)
 Number     Number       Type             X           Y           Z
 ---------------------------------------------------------------------
      1         12           0      -15.631528   -0.883550    0.246753
      2          6           0      -15.871294    2.683801    0.077235
      3          6           0      -16.533115   -0.951701   -3.043469
      4          6           0      -15.869216   -4.036517    0.489492
      5          6           0      -15.867269   -0.587230    3.711184
      6          7           0      -16.112752    0.728125   -1.192543
      7          6           0      -16.109415    2.056717   -1.147800
      8          6           0      -16.308266    2.722351   -2.542348
      9          6           0      -17.055325    1.527122   -3.287551
     10          6           0      -16.508472    0.360365   -2.484088
     11          6           0      -18.571995    1.564085   -3.129917
     12          6           0      -14.947520    3.068220   -3.235513
     13          6           0      -15.048422    4.007503   -4.440884
     14          1           0      -13.984242    4.973888   -4.666644
     15          7           0      -15.648854   -2.278528   -1.152026
     16          6           0      -16.030352   -2.126224   -2.442975
     17          6           0      -15.862606   -3.451746   -3.076642
     18          6           0      -15.533493   -4.430688   -2.003584
     19          6           0      -15.698588   -3.615599   -0.827254
     20          6           0      -15.966961   -3.676681   -4.553891
     21          6           0      -15.143851   -5.874795   -2.033006
     22          8           0      -15.128524   -6.596779   -0.977980
     23          6           0      -14.862339   -6.452361   -3.359735
     24          7           0      -16.058836   -2.156540    1.845046
     25          6           0      -16.041337   -3.485250    1.692707
     26          6           0      -16.094958   -4.187437    3.017093
     27          6           0      -15.907170   -3.054163    4.126228
     28          6           0      -15.857264   -1.818118    3.194578
     29          6           0      -17.380240   -4.975504    3.305208
     30          6           0      -14.760319   -3.253983    5.148590
     31          6           0      -13.424201   -3.149860    4.447844
     32          7           0      -15.655984    0.744808    1.681640
     33          6           0      -15.784127    0.639635    3.074189
     34          6           0      -15.857772    2.012825    3.606160
     35          6           0      -15.783544    2.826419    2.477268
     36          6           0      -15.697112    2.012553    1.311745
     37          6           0      -16.035470    2.368924    4.972195
     38          6           0      -15.781951    4.193610    1.982651
     39          8           0      -15.739437    5.306320    2.509492
     40          6           0      -15.961450    4.154408    0.400857
     41          6           0      -14.928442    5.070491   -0.196632
     42          8           0      -13.712535    4.800352   -0.119418
     43          8           0      -15.537820    5.987264   -0.963918
     44          6           0      -14.566922    6.910042   -1.610442
     45          1           0      -17.034200   -1.108032   -4.000764
     46          1           0      -15.845116   -5.119364    0.628415
     47          1           0      -15.856420   -0.415295    4.789040
     48          1           0      -16.940641    3.610319   -2.536106
     49          1           0      -16.751047    1.444523   -4.330775
     50          1           0      -18.880392    2.333934   -2.422708
     51          1           0      -18.850616    0.576154   -2.762690
     52          1           0      -19.059652    1.672005   -4.099102
     53          1           0      -14.557753    2.176842   -3.727029
     54          1           0      -14.241354    3.481514   -2.514511
     55          1           0      -16.022796    4.494813   -4.485979
     56          1           0      -15.004709    3.404825   -5.348115
     57          1           0      -16.380717   -2.807196   -5.063150
     58          1           0      -16.710243   -4.459229   -4.705083
     59          1           0      -15.016324   -3.983301   -4.990476
     60          1           0      -15.745037   -6.350200   -3.991364
     61          1           0      -14.513740   -7.468312   -3.177601
     62          1           0      -14.074035   -5.870407   -3.838124
     63          1           0      -15.287896   -4.913276    3.107831
     64          1           0      -16.797146   -2.935760    4.744773
     65          1           0      -17.207563   -6.028986    3.526712
     66          1           0      -18.045457   -4.859627    2.450018
     67          1           0      -17.992193   -4.572799    4.111905
     68          1           0      -14.814548   -4.248725    5.589603
     69          1           0      -14.778075   -2.528978    5.962411
     70          1           0      -13.280571   -4.152752    4.047332
     71          1           0      -12.638960   -2.898314    5.161518
     72          1           0      -13.470998   -2.464533    3.601308
     73          1           0      -15.343576    3.188426    5.166279
     74          1           0      -15.841512    1.522413    5.630528
     75          1           0      -17.084726    2.663727    4.969178
     76          1           0      -16.976579    4.490675    0.192146
     77          1           0      -14.855056    7.924308   -1.333896
     78          1           0      -14.558648    6.657760   -2.670956
     79          1           0      -13.544557    6.876215   -1.232336
     80         12           0       16.119259   -0.560587   -0.023188
     81          6           0       14.656001    2.712926    0.125371
     82          6           0       14.186972   -1.136316   -2.774448
     83          6           0       17.047821   -3.592770    0.081833
     84          6           0       17.040569   -0.148443    3.312533
     85          7           0       14.651293    0.703128   -1.091072
     86          6           0       14.222641    1.951431   -0.979963
     87          6           0       13.339412    2.435718   -2.161032
     88          6           0       12.813592    1.006266   -2.669994
     89          6           0       13.968355    0.133430   -2.182793
     90          6           0       11.542676    0.549566   -1.973187
     91          6           0       14.173351    3.168973   -3.269586
     92          6           0       13.340523    3.936786   -4.298482
     93          1           0       13.872995    5.187921   -4.831031
     94          7           0       16.070722   -1.967750   -1.421787
     95          6           0       15.236826   -2.034049   -2.480805
     96          6           0       15.591592   -3.269984   -3.195483
     97          6           0       16.591886   -4.012138   -2.381031
     98          6           0       16.593441   -3.212391   -1.172526
     99          6           0       15.056264   -3.604645   -4.557408
    100          6           0       17.402271   -5.245743   -2.641234
    101          8           0       18.032264   -5.848150   -1.701526
    102          6           0       17.360806   -5.780757   -4.010005
    103          7           0       16.739439   -1.792181    1.532725
    104          6           0       17.138456   -3.054591    1.298160
    105          6           0       17.797208   -3.653963    2.517668
    106          6           0       17.975251   -2.444021    3.548155
    107          6           0       17.277177   -1.323787    2.746183
    108          6           0       17.032933   -4.791043    3.195404
    109          6           0       19.408536   -2.183930    4.087341
    110          6           0       20.300287   -1.696095    2.968332
    111          7           0       16.068895    1.049357    1.416823
    112          6           0       16.481223    0.999752    2.766497
    113          6           0       16.146512    2.304935    3.372221
    114          6           0       15.536983    3.020800    2.330839
    115          6           0       15.476559    2.211212    1.164463
    116          6           0       16.366138    2.672881    4.729607
    117          6           0       14.921351    4.273484    1.956022
    118          8           0       14.768956    5.364641    2.503628
    119          6           0       14.209428    4.085175    0.547441
    120          6           0       14.594636    5.247065   -0.326706
    121          8           0       15.774345    5.401977   -0.688523
    122          8           0       13.478646    5.856019   -0.767294
    123          6           0       13.808815    7.008442   -1.647472
    124          1           0       13.462846   -1.500469   -3.503771
    125          1           0       17.480863   -4.593887    0.142844
    126          1           0       17.383893    0.093470    4.320642
    127          1           0       12.501299    3.060001   -1.875327
    128          1           0       12.742753    0.974608   -3.754127
    129          1           0       11.267280    1.209705   -1.164173
    130          1           0       11.753985   -0.442694   -1.596605
    131          1           0       10.735567    0.429919   -2.701607
    132          1           0       14.636097    2.419239   -3.924197
    133          1           0       14.898448    3.825416   -2.829194
    134          1           0       12.301879    4.069260   -3.971963
    135          1           0       13.261574    3.329788   -5.203653
    136          1           0       14.216137   -2.954206   -4.830388
    137          1           0       14.614788   -4.604899   -4.490529
    138          1           0       15.832870   -3.611726   -5.325198
    139          1           0       16.332194   -6.012041   -4.276321
    140          1           0       18.071390   -6.609499   -4.021483
    141          1           0       17.696878   -4.999809   -4.701216
    142          1           0       18.773662   -4.053506    2.272703
    143          1           0       17.379929   -2.595007    4.460638
    144          1           0       17.620184   -5.725371    3.274443
    145          1           0       16.117503   -4.962704    2.644896
    146          1           0       16.663164   -4.567690    4.194696
    147          1           0       19.850190   -3.114178    4.453049
    148          1           0       19.440026   -1.469839    4.903474
    149          1           0       20.612842   -2.623746    2.479604
    150          1           0       21.154493   -1.153389    3.368134
    151          1           0       19.729562   -1.113652    2.235748
    152          1           0       16.762579    3.679467    4.719093
    153          1           0       17.046145    1.982092    5.223761
    154          1           0       15.347745    2.595989    5.119755
    155          1           0       13.134235    4.046285    0.726390
    156          1           0       13.313233    7.886994   -1.222920
    157          1           0       13.505832    6.702511   -2.666466
    158          1           0       14.840359    7.339608   -1.673801
 ---------------------------------------------------------------------

 SCF Done:  E(RCAM-B3LYP) =  -4069.81177039     A.U. after   19 cycles

 Excitation energies and oscillator strengths:

 Excited State   1:      Singlet-A      1.6753 eV  740.07 nm  f=0.2084  <S**2>=0.000
     310 -> 316        0.16835
     311 -> 314       -0.16621
     312 -> 313        0.66562
     310 <- 316        0.10149
 This state for optimization and/or second-order correction.
 Total Energy, E(TD-HF/TD-DFT) =  -4069.75020412
 Copying the excited state density for this state as the 1-particle RhoCI density.

 Excited State   2:      Singlet-A      1.6801 eV  737.96 nm  f=0.5689  <S**2>=0.000
     309 -> 315        0.17037
     311 -> 314        0.66525
     312 -> 313        0.16616
     309 <- 315        0.10200

 Excited State   3:      Singlet-A      2.1861 eV  567.16 nm  f=0.0971  <S**2>=0.000
     310 -> 313        0.64220
     312 -> 316       -0.27297

 Excited State   4:      Singlet-A      2.1925 eV  565.49 nm  f=0.1034  <S**2>=0.000
     309 -> 314        0.64042
     311 -> 315       -0.27817

 Excited State   5:      Singlet-A      3.0637 eV  404.68 nm  f=0.0000  <S**2>=0.000
     312 -> 314        0.70710

 The electronic state is 1-A.
 Alpha  occ. eigenvalues --  -46.87806 -46.87660 -19.26344 -19.26292 -19.19156
 Alpha  occ. eigenvalues --  -19.19028 -19.18826 -19.18715 -19.18177 -19.18048
 Alpha  occ. eigenvalues --  -14.42496 -14.42459 -14.41459 -14.41359 -14.39412
 Alpha  occ. eigenvalues --  -14.39351 -14.38599 -14.38596 -10.39088 -10.39086
 Alpha  occ. eigenvalues --  -10.35460 -10.35393 -10.34397 -10.34226 -10.31749
 Alpha  occ. eigenvalues --  -10.31686 -10.31414 -10.31307 -10.31022 -10.30919
 Alpha  occ. eigenvalues --  -10.30579 -10.30517 -10.30397 -10.30359 -10.30216
 Alpha  occ. eigenvalues --  -10.30141 -10.29929 -10.29894 -10.29640 -10.29437
 Alpha  occ. eigenvalues --  -10.29400 -10.29264 -10.28759 -10.28716 -10.28651
 Alpha  occ. eigenvalues --  -10.28550 -10.28404 -10.28374 -10.28137 -10.28126
 Alpha  occ. eigenvalues --  -10.28000 -10.27802 -10.27737 -10.27668 -10.27594
 Alpha  occ. eigenvalues --  -10.27519 -10.27509 -10.27493 -10.27482 -10.27468
 Alpha  occ. eigenvalues --  -10.27465 -10.27458 -10.27413 -10.27377 -10.27166
 Alpha  occ. eigenvalues --  -10.27047 -10.26716 -10.26690 -10.26424 -10.26417
 Alpha  occ. eigenvalues --  -10.26243 -10.26192 -10.26139 -10.26028 -10.26020
 Alpha  occ. eigenvalues --  -10.25934 -10.25850 -10.25849 -10.25443 -10.25399
 Alpha  occ. eigenvalues --  -10.24872 -10.24842 -10.24797 -10.24733 -10.24696
 Alpha  occ. eigenvalues --  -10.24689  -3.16549  -3.16410  -1.91430  -1.91292
 Alpha  occ. eigenvalues --   -1.91017  -1.90880  -1.90859  -1.90717  -1.16640
 Alpha  occ. eigenvalues --   -1.16638  -1.08655  -1.08635  -1.07228  -1.06967
 Alpha  occ. eigenvalues --   -1.06941  -1.06650  -1.04590  -1.04494  -1.03770
 Alpha  occ. eigenvalues --   -1.03662  -1.03243  -1.03038  -1.02420  -1.02111
 Alpha  occ. eigenvalues --   -0.91985  -0.91981  -0.89528  -0.89494  -0.89197
 Alpha  occ. eigenvalues --   -0.89148  -0.88296  -0.88221  -0.87878  -0.87793
 Alpha  occ. eigenvalues --   -0.87683  -0.87682  -0.87285  -0.87120  -0.84998
 Alpha  occ. eigenvalues --   -0.84992  -0.83945  -0.83876  -0.82978  -0.82932
 Alpha  occ. eigenvalues --   -0.82658  -0.82651  -0.81594  -0.81593  -0.80606
 Alpha  occ. eigenvalues --   -0.80441  -0.78807  -0.78635  -0.77228  -0.77143
 Alpha  occ. eigenvalues --   -0.76943  -0.76896  -0.75932  -0.75836  -0.74907
 Alpha  occ. eigenvalues --   -0.74802  -0.72783  -0.72698  -0.71681  -0.71579
 Alpha  occ. eigenvalues --   -0.69916  -0.69758  -0.68883  -0.68825  -0.67650
 Alpha  occ. eigenvalues --   -0.67601  -0.67230  -0.67198  -0.65296  -0.65269
 Alpha  occ. eigenvalues --   -0.64862  -0.64769  -0.64652  -0.64630  -0.64278
 Alpha  occ. eigenvalues --   -0.64204  -0.62306  -0.62275  -0.60452  -0.60340
 Alpha  occ. eigenvalues --   -0.59814  -0.59794  -0.58996  -0.58992  -0.58513
 Alpha  occ. eigenvalues --   -0.58424  -0.57593  -0.57551  -0.57318  -0.57236
 Alpha  occ. eigenvalues --   -0.56319  -0.56203  -0.55987  -0.55883  -0.55530
 Alpha  occ. eigenvalues --   -0.55451  -0.55348  -0.55247  -0.54532  -0.54486
 Alpha  occ. eigenvalues --   -0.53910  -0.53904  -0.53308  -0.53232  -0.53227
 Alpha  occ. eigenvalues --   -0.53140  -0.52924  -0.52900  -0.52767  -0.52668
 Alpha  occ. eigenvalues --   -0.52447  -0.52402  -0.51922  -0.51883  -0.51657
 Alpha  occ. eigenvalues --   -0.51627  -0.51204  -0.51200  -0.50584  -0.50476
 Alpha  occ. eigenvalues --   -0.50040  -0.49979  -0.49929  -0.49868  -0.49524
 Alpha  occ. eigenvalues --   -0.49487  -0.49224  -0.49201  -0.49105  -0.49102
 Alpha  occ. eigenvalues --   -0.48601  -0.48556  -0.48471  -0.48455  -0.48376
 Alpha  occ. eigenvalues --   -0.48338  -0.47704  -0.47593  -0.47306  -0.47118
 Alpha  occ. eigenvalues --   -0.46806  -0.46708  -0.46565  -0.46552  -0.46368
 Alpha  occ. eigenvalues --   -0.46270  -0.46171  -0.46084  -0.45830  -0.45820
 Alpha  occ. eigenvalues --   -0.45210  -0.45209  -0.44586  -0.44517  -0.44512
 Alpha  occ. eigenvalues --   -0.44474  -0.44154  -0.44125  -0.44098  -0.44078
 Alpha  occ. eigenvalues --   -0.44029  -0.43938  -0.43550  -0.43503  -0.43395
 Alpha  occ. eigenvalues --   -0.43384  -0.43036  -0.42927  -0.42899  -0.42707
 Alpha  occ. eigenvalues --   -0.42663  -0.42554  -0.42018  -0.41964  -0.41713
 Alpha  occ. eigenvalues --   -0.41668  -0.41543  -0.41457  -0.41150  -0.40988
 Alpha  occ. eigenvalues --   -0.40879  -0.40834  -0.40722  -0.40697  -0.40580
 Alpha  occ. eigenvalues --   -0.40493  -0.40245  -0.40225  -0.39450  -0.39426
 Alpha  occ. eigenvalues --   -0.38478  -0.38350  -0.37758  -0.37652  -0.37329
 Alpha  occ. eigenvalues --   -0.37273  -0.37266  -0.37198  -0.36767  -0.36721
 Alpha  occ. eigenvalues --   -0.36216  -0.36201  -0.34295  -0.34252  -0.33858
 Alpha  occ. eigenvalues --   -0.33779  -0.33195  -0.33175  -0.31356  -0.31274
 Alpha  occ. eigenvalues --   -0.31045  -0.30972  -0.30037  -0.29953  -0.29459
 Alpha  occ. eigenvalues --   -0.29331  -0.29327  -0.29211  -0.24090  -0.24035
 Alpha  occ. eigenvalues --   -0.21137  -0.21116
 Alpha virt. eigenvalues --   -0.08791  -0.08784  -0.01759  -0.01683  -0.00068
 Alpha virt. eigenvalues --   -0.00028   0.02192   0.02209   0.03111   0.03226
 Alpha virt. eigenvalues --    0.04708   0.04731   0.05090   0.05169   0.06166

 Mulliken charges:
               1
     1  Mg   0.838694
     2  C   -0.002973
     3  C   -0.094140
     4  C   -0.045893
     5  C   -0.063944
     6  N   -0.256774
     7  C   -0.052464
     8  C   -0.014007
     9  C   -0.086994
    10  C    0.046305
    11  C    0.104811
    12  C    0.053480
    13  C   -0.071805
    14  H    0.036110
    15  N   -0.433145
    16  C    0.168422
    17  C   -0.177175
    18  C   -0.004015
    19  C    0.148714
    20  C    0.110181
    21  C    0.012262
    22  O   -0.249630
    23  C    0.062485
    24  N   -0.341153
    25  C    0.041259
    26  C   -0.028174
    27  C   -0.024003
    28  C    0.074850
    29  C    0.076179
    30  C    0.035146
    31  C   -0.004514
    32  N   -0.310467
    33  C    0.080416
    34  C   -0.169697
    35  C    0.008393
    36  C    0.082998
    37  C    0.127306
    38  C    0.046121
    39  O   -0.188388
    40  C   -0.005344
    41  C    0.212881
    42  O   -0.257111
    43  O   -0.304786
    44  C    0.157681
    45  H   -0.017610
    46  H   -0.016843
    47  H   -0.041462
    48  H    0.000956
    49  H   -0.004053
    50  H    0.025490
    51  H    0.016455
    52  H    0.016659
    53  H    0.011172
    54  H    0.044120
    55  H    0.017898
    56  H    0.017927
    57  H    0.005869
    58  H    0.026824
    59  H    0.039496
    60  H    0.037356
    61  H    0.035622
    62  H    0.031457
    63  H    0.016540
    64  H    0.009486
    65  H    0.023207
    66  H    0.012546
    67  H    0.004771
    68  H    0.006373
    69  H    0.004759
    70  H    0.008757
    71  H    0.018160
    72  H    0.028972
    73  H    0.047605
    74  H    0.009131
    75  H    0.046034
    76  H    0.035172
    77  H    0.042983
    78  H    0.046384
    79  H    0.053690
    80  Mg   0.837821
    81  C   -0.016836
    82  C   -0.087774
    83  C   -0.045539
    84  C   -0.064900
    85  N   -0.254558
    86  C   -0.049817
    87  C   -0.015122
    88  C   -0.090509
    89  C    0.045751
    90  C    0.114373
    91  C    0.062542
    92  C   -0.077911
    93  H    0.034901
    94  N   -0.423498
    95  C    0.162917
    96  C   -0.174618
    97  C   -0.007833
    98  C    0.152142
    99  C    0.099360
   100  C    0.015570
   101  O   -0.253193
   102  C    0.061205
   103  N   -0.350071
   104  C    0.037526
   105  C   -0.019835
   106  C   -0.034819
   107  C    0.088951
   108  C    0.073650
   109  C    0.034727
   110  C   -0.007671
   111  N   -0.324103
   112  C    0.078455
   113  C   -0.163125
   114  C    0.002259
   115  C    0.096211
   116  C    0.131490
   117  C    0.042408
   118  O   -0.187793
   119  C    0.000923
   120  C    0.211258
   121  O   -0.251044
   122  O   -0.305596
   123  C    0.152011
   124  H   -0.019650
   125  H   -0.015580
   126  H   -0.040444
   127  H   -0.000581
   128  H   -0.004332
   129  H    0.022523
   130  H    0.014425
   131  H    0.016321
   132  H    0.013891
   133  H    0.037672
   134  H    0.020844
   135  H    0.019572
   136  H    0.008765
   137  H    0.026142
   138  H    0.039776
   139  H    0.038250
   140  H    0.036383
   141  H    0.033889
   142  H    0.014391
   143  H    0.012437
   144  H    0.025130
   145  H    0.011654
   146  H    0.005691
   147  H    0.006260
   148  H    0.003660
   149  H    0.010925
   150  H    0.017932
   151  H    0.030104
   152  H    0.046020
   153  H    0.008506
   154  H    0.046997
   155  H    0.035108
   156  H    0.043976
   157  H    0.049493
   158  H    0.053567
 Sum of Mulliken charges =  -0.00000

 Dipole moment (field-independent basis, Debye):
    X=             -4.5611    Y=             -4.1020    Z=             -6.5681  Tot=              8.9872
 Quadrupole moment (field-independent basis, Debye-Ang):
   XX=           -523.7845   YY=           -562.5437   ZZ=           -445.7470
   XY=            -12.9396   XZ=             34.2394   YZ=            -31.7260

 Normal termination of Gaussian 16 at Sun Sep 12 19:01:33 2021.
