 Gaussian 16, Revision A.03,
 Gaussian 16:  ES64L-G16RevA.03 25-Dec-2016

 -----------------------------------
 #p cam-b3lyp/Def2SVP td=(nstates=5)
 -----------------------------------

 --------------------------------
 TDDFT excited states in gaussian
 --------------------------------
 Symbolic Z-matrix:
 Charge =  0 Multiplicity = 1

                         Standard orientation:
 ---------------------------------------------------------------------
 Center     Atomic      Atomic             Coordinates (Angstroms)
 Number     Number       Type             X           Y           Z
 ---------------------------------------------------------------------
      1         12           0       -6.260012    0.745672   -0.155301
      2          6           0       -6.631565   -2.339908    1.620468
      3          6           0       -7.125698    2.340809    2.734196
      4          6           0       -6.381807    3.447488   -1.811192
      5          6           0       -6.541078   -1.088717   -3.105162
      6          7           0       -6.786964   -0.012806    1.856583
      7          6           0       -6.833849   -1.214674    2.422698
      8          6           0       -7.043641   -1.163064    3.965649
      9          6           0       -7.737960    0.267807    4.077566
     10          6           0       -7.155784    0.918145    2.834966
     11          6           0       -9.256441    0.220492    3.941620
     12          6           0       -5.689993   -1.206033    4.751475
     13          6           0       -5.814040   -1.487721    6.251681
     14          1           0       -4.784623   -2.284345    6.902094
     15          7           0       -6.211173    2.624562    0.453171
     16          6           0       -6.585272    3.092279    1.668316
     17          6           0       -6.361700    4.553498    1.629106
     18          6           0       -6.006814    4.922143    0.230446
     19          6           0       -6.214002    3.667220   -0.446031
     20          6           0       -6.442880    5.431104    2.840290
     21          6           0       -5.563069    6.204854   -0.398741
     22          8           0       -5.531181    6.365127   -1.666759
     23          6           0       -5.246956    7.312756    0.520861
     24          7           0       -6.655177    1.164904   -2.161722
     25          6           0       -6.586400    2.415153   -2.631967
     26          6           0       -6.626824    2.437601   -4.131234
     27          6           0       -6.492648    0.917038   -4.599891
     28          6           0       -6.479837    0.240948   -3.206690
     29          6           0       -7.884476    3.055610   -4.757642
     30          6           0       -5.349324    0.585066   -5.591367
     31          6           0       -4.011153    0.761439   -4.909246
     32          7           0       -6.359704   -1.355613   -0.689818
     33          6           0       -6.497638   -1.892270   -1.978091
     34          6           0       -6.627956   -3.353062   -1.825865
     35          6           0       -6.573056   -3.564498   -0.449593
     36          6           0       -6.444624   -2.312612    0.217173
     37          6           0       -6.832426   -4.285898   -2.880589
     38          6           0       -6.617774   -4.554663    0.614095
     39          8           0       -6.622210   -5.785904    0.653054
     40          6           0       -6.779963   -3.791684    2.002398
     41          6           0       -5.776118   -4.372886    2.960421
     42          8           0       -4.551772   -4.213944    2.778547
     43          8           0       -6.411766   -4.815078    4.056304
     44          6           0       -5.469750   -5.377520    5.060505
     45          1           0       -7.611044    2.935332    3.510677
     46          1           0       -6.318537    4.346054   -2.428456
     47          1           0       -6.547382   -1.733527   -3.985862
     48          1           0       -7.708871   -1.931513    4.359832
     49          1           0       -7.420458    0.805456    4.970789
     50          1           0       -9.600471   -0.774852    3.660808
     51          1           0       -9.501486    0.942015    3.161973
     52          1           0       -9.738151    0.584966    4.849305
     53          1           0       -5.262242   -0.204072    4.785587
     54          1           0       -5.007001   -1.929051    4.304157
     55          1           0       -6.805491   -1.863557    6.506006
     56          1           0       -5.738773   -0.539783    6.784550
     57          1           0       -6.883844    4.905888    3.686601
     58          1           0       -7.154785    6.224012    2.611821
     59          1           0       -5.477136    5.866831    3.096828
     60          1           0       -6.126547    7.543378    1.122261
     61          1           0       -4.862365    8.119846   -0.101669
     62          1           0       -4.476297    6.983604    1.218495
     63          1           0       -5.794076    3.011051   -4.536340
     64          1           0       -7.392533    0.563393   -5.103693
     65          1           0       -7.674660    3.884780   -5.433776
     66          1           0       -8.545043    3.367748   -3.949241
     67          1           0       -8.519067    2.352845   -5.296932
     68          1           0       -5.370623    1.270500   -6.437932
     69          1           0       -5.402310   -0.430026   -5.985107
     70          1           0       -3.826081    1.830376   -5.009009
     71          1           0       -3.243012    0.182589   -5.423156
     72          1           0       -4.075184    0.539876   -3.843744
     73          1           0       -6.173682   -5.129278   -2.673861
     74          1           0       -6.613436   -3.840766   -3.850900
     75          1           0       -7.891909   -4.506917   -2.752121
     76          1           0       -7.804854   -3.957063    2.333107
     77          1           0       -5.798413   -6.394568    5.274580
     78          1           0       -5.441500   -4.669901    5.889288
     79          1           0       -4.450641   -5.558581    4.717036
     80         12           0        6.945332    0.178755    0.115827
     81          6           0        4.601356   -1.791128   -1.756182
     82          6           0        5.242926    2.938700   -0.942083
     83          6           0        9.247237    1.960385    1.378555
     84          6           0        9.079825   -2.575890    0.076599
     85          7           0        5.167397    0.414560   -1.178619
     86          6           0        4.323741   -0.408507   -1.782903
     87          6           0        3.071172    0.282657   -2.385350
     88          6           0        3.675339    1.759444   -2.566823
     89          6           0        4.740714    1.723800   -1.473026
     90          6           0        4.369284    1.965789   -3.902941
     91          6           0        1.852517    0.278055   -1.396992
     92          6           0        0.511071    0.657195   -2.028289
     93          1           0       -0.697237   -0.006342   -1.546453
     94          7           0        6.953732    2.098504    0.618900
     95          6           0        6.180366    3.077790    0.104905
     96          6           0        6.584982    4.313190    0.793549
     97          6           0        7.773326    4.012235    1.637317
     98          6           0        8.056361    2.653888    1.219124
     99          6           0        5.816327    5.597543    0.679348
    100          6           0        8.537326    4.818513    2.643510
    101          8           0        9.680554    4.439627    3.082029
    102          6           0        7.951129    6.110204    3.030047
    103          7           0        8.964531   -0.168929    0.468355
    104          6           0        9.728799    0.754066    1.078196
    105          6           0       11.068853    0.179443    1.471181
    106          6           0       10.953507   -1.394708    1.213684
    107          6           0        9.534758   -1.448385    0.605679
    108          6           0       12.277000    0.731415    0.714809
    109          6           0       11.280703   -2.329422    2.410318
    110          6           0       10.233448   -2.172457    3.489208
    111          7           0        6.813565   -1.882091   -0.519465
    112          6           0        7.833728   -2.857170   -0.468842
    113          6           0        7.305621   -4.073969   -1.119185
    114          6           0        6.012779   -3.712125   -1.526760
    115          6           0        5.760818   -2.358633   -1.174519
    116          6           0        8.018356   -5.291189   -1.310209
    117          6           0        4.807791   -4.164121   -2.184341
    118          8           0        4.406967   -5.243941   -2.616848
    119          6           0        3.886660   -2.901750   -2.474739
    120          6           0        2.488092   -3.235866   -2.033280
    121          8           0        2.233964   -3.429501   -0.831388
    122          8           0        1.645443   -3.058421   -3.067128
    123          6           0        0.244247   -3.366755   -2.675492
    124          1           0        4.921480    3.875933   -1.397201
    125          1           0       10.037425    2.496182    1.909590
    126          1           0        9.647992   -3.507908    0.111270
    127          1           0        2.753009   -0.109299   -3.343958
    128          1           0        2.930506    2.520449   -2.348963
    129          1           0        4.445016    1.046128   -4.463857
    130          1           0        5.354109    2.347313   -3.667111
    131          1           0        3.868048    2.755382   -4.470075
    132          1           0        1.965754    1.105752   -0.685072
    133          1           0        1.764826   -0.670925   -0.904670
    134          1           0        0.550450    0.635480   -3.124159
    135          1           0        0.297536    1.701650   -1.788418
    136          1           0        5.087502    5.558692   -0.139618
    137          1           0        6.529083    6.370535    0.372207
    138          1           0        5.354507    5.897324    1.622491
    139          1           0        7.832478    6.731983    2.145874
    140          1           0        8.594358    6.497566    3.822567
    141          1           0        6.945503    5.933094    3.427502
    142          1           0       11.269637    0.349892    2.521773
    143          1           0       11.645303   -1.730725    0.427333
    144          1           0       13.046920    1.166207    1.379832
    145          1           0       11.927323    1.469048    0.004770
    146          1           0       12.786104    0.015226    0.072083
    147          1           0       12.235394   -2.047461    2.861107
    148          1           0       11.351707   -3.376122    2.133966
    149          1           0       10.574871   -1.289633    4.037963
    150          1           0       10.209577   -3.051108    4.130641
    151          1           0        9.255126   -1.933514    3.056260
    152          1           0        7.336499   -6.093546   -1.061620
    153          1           0        8.916048   -5.326800   -0.696493
    154          1           0        8.252160   -5.215181   -2.375494
    155          1           0        3.940175   -2.696322   -3.544564
    156          1           0       -0.124443   -4.122277   -3.376170
    157          1           0       -0.282595   -2.394150   -2.660249
    158          1           0        0.087267   -3.864586   -1.725765
 ---------------------------------------------------------------------

 SCF Done:  E(RCAM-B3LYP) =  -4069.81159763     A.U. after   19 cycles

 Excitation energies and oscillator strengths:

 Excited State   1:      Singlet-A      1.6639 eV  745.15 nm  f=0.0070  <S**2>=0.000
     309 -> 315       -0.11287
     310 -> 316        0.12774
     311 -> 313       -0.45342
     312 -> 314        0.51579
 This state for optimization and/or second-order correction.
 Total Energy, E(TD-HF/TD-DFT) =  -4069.75045113
 Copying the excited state density for this state as the 1-particle RhoCI density.

 Excited State   2:      Singlet-A      1.6902 eV  733.55 nm  f=0.7309  <S**2>=0.000
     309 -> 315        0.13345
     310 -> 316        0.11683
     311 -> 313        0.51443
     312 -> 314        0.45235

 Excited State   3:      Singlet-A      2.1846 eV  567.55 nm  f=0.0909  <S**2>=0.000
     309 -> 313        0.14181
     310 -> 314        0.62710
     312 -> 316       -0.26522

 Excited State   4:      Singlet-A      2.1921 eV  565.59 nm  f=0.1091  <S**2>=0.000
     309 -> 313        0.62513
     310 -> 314       -0.14065
     311 -> 315       -0.27079

 Excited State   5:      Singlet-A      2.6202 eV  473.19 nm  f=0.0000  <S**2>=0.000
     312 -> 313        0.70685

 The electronic state is 1-A.
 Alpha  occ. eigenvalues --  -46.87928 -46.87524 -19.26238 -19.25998 -19.18984
 Alpha  occ. eigenvalues --  -19.18983 -19.18824 -19.18615 -19.18239 -19.17870
 Alpha  occ. eigenvalues --  -14.42566 -14.42358 -14.41582 -14.41227 -14.39534
 Alpha  occ. eigenvalues --  -14.39219 -14.38716 -14.38459 -10.39054 -10.38771
 Alpha  occ. eigenvalues --  -10.35617 -10.35295 -10.34455 -10.34042 -10.31590
 Alpha  occ. eigenvalues --  -10.31506 -10.31311 -10.31156 -10.31010 -10.30877
 Alpha  occ. eigenvalues --  -10.30687 -10.30642 -10.30354 -10.30262 -10.30215
 Alpha  occ. eigenvalues --  -10.30057 -10.30026 -10.29763 -10.29762 -10.29391
 Alpha  occ. eigenvalues --  -10.29314 -10.29267 -10.28800 -10.28542 -10.28519
 Alpha  occ. eigenvalues --  -10.28481 -10.28424 -10.28261 -10.28182 -10.27978
 Alpha  occ. eigenvalues --  -10.27912 -10.27864 -10.27843 -10.27718 -10.27667
 Alpha  occ. eigenvalues --  -10.27612 -10.27611 -10.27533 -10.27510 -10.27417
 Alpha  occ. eigenvalues --  -10.27368 -10.27337 -10.27333 -10.27273 -10.27205
 Alpha  occ. eigenvalues --  -10.26839 -10.26716 -10.26596 -10.26474 -10.26390
 Alpha  occ. eigenvalues --  -10.26348 -10.26295 -10.26158 -10.26046 -10.25957
 Alpha  occ. eigenvalues --  -10.25883 -10.25807 -10.25717 -10.25579 -10.25309
 Alpha  occ. eigenvalues --  -10.24953 -10.24948 -10.24921 -10.24729 -10.24639
 Alpha  occ. eigenvalues --  -10.24558  -3.16671  -3.16274  -1.91553  -1.91157
 Alpha  occ. eigenvalues --   -1.91139  -1.90982  -1.90745  -1.90582  -1.16590
 Alpha  occ. eigenvalues --   -1.16297  -1.08687  -1.08464  -1.07387  -1.06870
 Alpha  occ. eigenvalues --   -1.06614  -1.06609  -1.04693  -1.04352  -1.03889
 Alpha  occ. eigenvalues --   -1.03527  -1.03364  -1.02907  -1.02539  -1.01976
 Alpha  occ. eigenvalues --   -0.92069  -0.91824  -0.89672  -0.89368  -0.89253
 Alpha  occ. eigenvalues --   -0.88985  -0.88437  -0.88103  -0.87988  -0.87780
 Alpha  occ. eigenvalues --   -0.87654  -0.87539  -0.87415  -0.87008  -0.85060
 Alpha  occ. eigenvalues --   -0.84835  -0.84092  -0.83752  -0.83127  -0.82830
 Alpha  occ. eigenvalues --   -0.82735  -0.82492  -0.81634  -0.81364  -0.80683
 Alpha  occ. eigenvalues --   -0.80251  -0.78926  -0.78511  -0.77338  -0.77002
 Alpha  occ. eigenvalues --   -0.77000  -0.76711  -0.75988  -0.75646  -0.75024
 Alpha  occ. eigenvalues --   -0.74662  -0.72896  -0.72563  -0.71777  -0.71432
 Alpha  occ. eigenvalues --   -0.70085  -0.69648  -0.68962  -0.68666  -0.67756
 Alpha  occ. eigenvalues --   -0.67451  -0.67294  -0.67035  -0.65362  -0.65094
 Alpha  occ. eigenvalues --   -0.64954  -0.64710  -0.64617  -0.64458  -0.64410
 Alpha  occ. eigenvalues --   -0.64070  -0.62332  -0.62024  -0.60584  -0.60222
 Alpha  occ. eigenvalues --   -0.59889  -0.59639  -0.59100  -0.58843  -0.58611
 Alpha  occ. eigenvalues --   -0.58265  -0.57646  -0.57416  -0.57338  -0.57089
 Alpha  occ. eigenvalues --   -0.56423  -0.56061  -0.55994  -0.55641  -0.55638
 Alpha  occ. eigenvalues --   -0.55450  -0.55283  -0.55080  -0.54600  -0.54288
 Alpha  occ. eigenvalues --   -0.53960  -0.53740  -0.53425  -0.53314  -0.53087
 Alpha  occ. eigenvalues --   -0.52994  -0.52974  -0.52872  -0.52701  -0.52610
 Alpha  occ. eigenvalues --   -0.52544  -0.52285  -0.52027  -0.51737  -0.51691
 Alpha  occ. eigenvalues --   -0.51488  -0.51293  -0.51030  -0.50726  -0.50376
 Alpha  occ. eigenvalues --   -0.50189  -0.50046  -0.49848  -0.49753  -0.49608
 Alpha  occ. eigenvalues --   -0.49348  -0.49310  -0.49165  -0.49034  -0.48940
 Alpha  occ. eigenvalues --   -0.48669  -0.48601  -0.48544  -0.48368  -0.48253
 Alpha  occ. eigenvalues --   -0.48192  -0.47799  -0.47439  -0.47408  -0.46975
 Alpha  occ. eigenvalues --   -0.46917  -0.46622  -0.46564  -0.46482  -0.46387
 Alpha  occ. eigenvalues --   -0.46262  -0.46129  -0.45916  -0.45886  -0.45622
 Alpha  occ. eigenvalues --   -0.45341  -0.45082  -0.44658  -0.44638  -0.44341
 Alpha  occ. eigenvalues --   -0.44325  -0.44284  -0.44165  -0.44104  -0.43978
 Alpha  occ. eigenvalues --   -0.43938  -0.43778  -0.43554  -0.43491  -0.43329
 Alpha  occ. eigenvalues --   -0.43208  -0.43130  -0.42848  -0.42761  -0.42663
 Alpha  occ. eigenvalues --   -0.42612  -0.42437  -0.42137  -0.41821  -0.41803
 Alpha  occ. eigenvalues --   -0.41611  -0.41507  -0.41298  -0.41243  -0.40983
 Alpha  occ. eigenvalues --   -0.40961  -0.40844  -0.40698  -0.40598  -0.40552
 Alpha  occ. eigenvalues --   -0.40360  -0.40276  -0.40046  -0.39631  -0.39318
 Alpha  occ. eigenvalues --   -0.38607  -0.38227  -0.37809  -0.37470  -0.37457
 Alpha  occ. eigenvalues --   -0.37336  -0.37134  -0.37032  -0.36752  -0.36503
 Alpha  occ. eigenvalues --   -0.36252  -0.36021  -0.34407  -0.34110  -0.33768
 Alpha  occ. eigenvalues --   -0.33561  -0.33296  -0.33024  -0.31511  -0.31172
 Alpha  occ. eigenvalues --   -0.31151  -0.30828  -0.30094  -0.29769  -0.29583
 Alpha  occ. eigenvalues --   -0.29443  -0.29200  -0.29069  -0.24201  -0.23895
 Alpha  occ. eigenvalues --   -0.21254  -0.20983
 Alpha virt. eigenvalues --   -0.08900  -0.08656  -0.01883  -0.01553  -0.00188
 Alpha virt. eigenvalues --    0.00098   0.02090   0.02345   0.02594   0.03373
 Alpha virt. eigenvalues --    0.04624   0.04946   0.05109   0.05463   0.06113

 Mulliken charges:
               1
     1  Mg   0.837043
     2  C   -0.002291
     3  C   -0.093687
     4  C   -0.046490
     5  C   -0.064752
     6  N   -0.256783
     7  C   -0.052138
     8  C   -0.014014
     9  C   -0.087027
    10  C    0.046355
    11  C    0.104751
    12  C    0.053326
    13  C   -0.072257
    14  H    0.037668
    15  N   -0.433175
    16  C    0.168222
    17  C   -0.177069
    18  C   -0.004421
    19  C    0.148567
    20  C    0.110095
    21  C    0.011510
    22  O   -0.250233
    23  C    0.062741
    24  N   -0.341114
    25  C    0.041289
    26  C   -0.028147
    27  C   -0.023877
    28  C    0.074705
    29  C    0.076107
    30  C    0.035250
    31  C   -0.004724
    32  N   -0.310462
    33  C    0.079742
    34  C   -0.170862
    35  C    0.008699
    36  C    0.082552
    37  C    0.127283
    38  C    0.046425
    39  O   -0.187091
    40  C   -0.005395
    41  C    0.212946
    42  O   -0.255894
    43  O   -0.305134
    44  C    0.157110
    45  H   -0.017276
    46  H   -0.017261
    47  H   -0.041617
    48  H    0.001370
    49  H   -0.003740
    50  H    0.025691
    51  H    0.016245
    52  H    0.016948
    53  H    0.011034
    54  H    0.045073
    55  H    0.017804
    56  H    0.017782
    57  H    0.006315
    58  H    0.026952
    59  H    0.039181
    60  H    0.037913
    61  H    0.035064
    62  H    0.030839
    63  H    0.015701
    64  H    0.009960
    65  H    0.023061
    66  H    0.012897
    67  H    0.005089
    68  H    0.006552
    69  H    0.005096
    70  H    0.008070
    71  H    0.017430
    72  H    0.028330
    73  H    0.047689
    74  H    0.008774
    75  H    0.046676
    76  H    0.035453
    77  H    0.043262
    78  H    0.046296
    79  H    0.055336
    80  Mg   0.837789
    81  C   -0.016150
    82  C   -0.087829
    83  C   -0.045804
    84  C   -0.065243
    85  N   -0.254493
    86  C   -0.049721
    87  C   -0.014937
    88  C   -0.090497
    89  C    0.045665
    90  C    0.114386
    91  C    0.062542
    92  C   -0.079270
    93  H    0.037226
    94  N   -0.423400
    95  C    0.162685
    96  C   -0.174892
    97  C   -0.008161
    98  C    0.152032
    99  C    0.099429
   100  C    0.015276
   101  O   -0.253574
   102  C    0.061363
   103  N   -0.350138
   104  C    0.037422
   105  C   -0.019716
   106  C   -0.034800
   107  C    0.089063
   108  C    0.073784
   109  C    0.034793
   110  C   -0.007622
   111  N   -0.324229
   112  C    0.078744
   113  C   -0.163128
   114  C    0.002491
   115  C    0.096344
   116  C    0.131413
   117  C    0.042749
   118  O   -0.186975
   119  C    0.000886
   120  C    0.211315
   121  O   -0.249253
   122  O   -0.306927
   123  C    0.150624
   124  H   -0.019765
   125  H   -0.016000
   126  H   -0.040650
   127  H   -0.000752
   128  H   -0.004023
   129  H    0.022216
   130  H    0.014093
   131  H    0.016218
   132  H    0.013376
   133  H    0.039382
   134  H    0.020538
   135  H    0.019682
   136  H    0.008858
   137  H    0.025808
   138  H    0.039011
   139  H    0.038141
   140  H    0.035908
   141  H    0.033481
   142  H    0.014124
   143  H    0.012232
   144  H    0.024804
   145  H    0.011571
   146  H    0.005454
   147  H    0.005952
   148  H    0.003623
   149  H    0.010682
   150  H    0.017814
   151  H    0.030398
   152  H    0.046474
   153  H    0.008270
   154  H    0.046742
   155  H    0.034466
   156  H    0.043245
   157  H    0.049260
   158  H    0.058766
 Sum of Mulliken charges =  -0.00000

 Dipole moment (field-independent basis, Debye):
    X=             -2.7277    Y=              7.1587    Z=              1.3170  Tot=              7.7732
 Quadrupole moment (field-independent basis, Debye-Ang):
   XX=           -480.5988   YY=           -543.5555   ZZ=           -473.7760
   XY=            -24.2258   XZ=            -24.7407   YZ=              1.0790

 Normal termination of Gaussian 16 at Sat Sep 11 10:02:18 2021.
