 Gaussian 16, Revision A.03,
 Gaussian 16:  ES64L-G16RevA.03 25-Dec-2016

 -----------------------------------
 #p cam-b3lyp/Def2SVP td=(nstates=5)
 -----------------------------------

 --------------------------------
 TDDFT excited states in gaussian
 --------------------------------
 Symbolic Z-matrix:
 Charge =  0 Multiplicity = 1

                         Standard orientation:
 ---------------------------------------------------------------------
 Center     Atomic      Atomic             Coordinates (Angstroms)
 Number     Number       Type             X           Y           Z
 ---------------------------------------------------------------------
      1         12           0       -6.456540   -0.941595   -0.017152
      2          6           0       -6.757000    2.613912    0.266234
      3          6           0       -7.294019   -0.600835   -3.307376
      4          6           0       -6.642197   -4.102921   -0.185008
      5          6           0       -6.763407   -1.095919    3.450942
      6          7           0       -6.939140    0.833859   -1.248211
      7          6           0       -6.960491    2.145620   -1.033743
      8          6           0       -7.144693    2.981560   -2.335530
      9          6           0       -7.855880    1.880504   -3.243210
     10          6           0       -7.303563    0.628831   -2.584283
     11          6           0       -9.375693    1.873641   -3.114272
     12          6           0       -5.777434    3.434366   -2.949779
     13          6           0       -5.872228    4.518891   -4.026892
     14          1           0       -4.821455    5.522482   -4.104548
     15          7           0       -6.422229   -2.145659   -1.583008
     16          6           0       -6.781777   -1.834841   -2.851631
     17          6           0       -6.578256   -3.065364   -3.646033
     18          6           0       -6.252101   -4.168732   -2.700361
     19          6           0       -6.454135   -3.513954   -1.433149
     20          6           0       -6.650443   -3.100462   -5.141796
     21          6           0       -5.836124   -5.590972   -2.906104
     22          8           0       -5.827915   -6.442042   -1.952067
     23          6           0       -5.519113   -5.989132   -4.289583
     24          7           0       -6.891261   -2.415558    1.395678
     25          6           0       -6.847033   -3.713310    1.074949
     26          6           0       -6.913227   -4.580370    2.297146
     27          6           0       -6.766930   -3.596035    3.545919
     28          6           0       -6.721497   -2.250043    2.781384
     29          6           0       -8.189411   -5.418534    2.454772
     30          6           0       -5.636331   -3.907753    4.558340
     31          6           0       -4.289210   -3.694071    3.905114
     32          7           0       -6.537492    0.488614    1.613489
     33          6           0       -6.690189    0.203671    2.978101
     34          6           0       -6.798563    1.495956    3.679759
     35          6           0       -6.717487    2.448722    2.666098
     36          6           0       -6.594315    1.792560    1.408094
     37          6           0       -7.008570    1.671057    5.076065
     38          6           0       -6.731015    3.867938    2.350666
     39          8           0       -6.718498    4.904369    3.016358
     40          6           0       -6.879665    4.029277    0.773421
     41          6           0       -5.852081    5.030207    0.320079
     42          8           0       -4.633212    4.771096    0.387800
     43          8           0       -6.463106    6.028390   -0.336291
     44          6           0       -5.496799    7.041297   -0.838711
     45          1           0       -7.773921   -0.640714   -4.287195
     46          1           0       -6.601321   -5.194143   -0.185330
     47          1           0       -6.776146   -1.063563    4.541925
     48          1           0       -7.792901    3.851571   -2.229082
     49          1           0       -7.530383    1.937131   -4.281751
     50          1           0       -9.711247    2.541553   -2.321040
     51          1           0       -9.643478    0.842595   -2.882479
     52          1           0       -9.846686    2.097528   -4.071778
     53          1           0       -5.362459    2.619517   -3.542971
     54          1           0       -5.092637    3.762523   -2.167032
     55          1           0       -6.854154    4.992940   -4.029861
     56          1           0       -5.800463    4.038350   -5.002663
     57          1           0       -7.069972   -2.179275   -5.544233
     58          1           0       -7.376556   -3.868461   -5.407590
     59          1           0       -5.686327   -3.333893   -5.593817
     60          1           0       -6.391329   -5.820335   -4.921480
     61          1           0       -5.155870   -7.014582   -4.231631
     62          1           0       -4.732420   -5.338570   -4.672770
     63          1           0       -6.095145   -5.299374    2.311304
     64          1           0       -7.670490   -3.571658    4.155558
     65          1           0       -8.002106   -6.488953    2.543235
     66          1           0       -8.840214   -5.204110    1.607560
     67          1           0       -8.823722   -5.132114    3.293241
     68          1           0       -5.681082   -4.951575    4.867173
     69          1           0       -5.682565   -3.293526    5.457695
     70          1           0       -4.120019   -4.634956    3.382677
     71          1           0       -3.522323   -3.524152    4.661569
     72          1           0       -4.332185   -2.906585    3.152448
     73          1           0       -6.335306    2.469408    5.388030
     74          1           0       -6.812012    0.750149    5.624605
     75          1           0       -8.062699    1.947664    5.088598
     76          1           0       -7.896510    4.373917    0.588027
     77          1           0       -5.808290    8.007148   -0.440794
     78          1           0       -5.463831    6.927337   -1.922376
     79          1           0       -4.481368    6.974935   -0.446493
     80         12           0        6.774803   -0.588289    0.166656
     81          6           0        5.859266    2.877440    0.338653
     82          6           0        6.548406   -0.325593   -3.226627
     83          6           0        7.135962   -3.736089   -0.001692
     84          6           0        5.823226   -0.862223    3.508077
     85          7           0        6.262272    1.109546   -1.155056
     86          6           0        5.992638    2.394436   -0.979804
     87          6           0        5.937639    3.224653   -2.290253
     88          6           0        5.596797    2.035442   -3.314199
     89          6           0        6.202010    0.865837   -2.540631
     90          6           0        4.106166    1.784501   -3.470410
     91          6           0        7.313721    3.897975   -2.629453
     92          6           0        7.253902    4.969079   -3.720746
     93          1           0        8.132750    6.129646   -3.605828
     94          7           0        7.309769   -1.739854   -1.358568
     95          6           0        7.165588   -1.468649   -2.672698
     96          6           0        7.695585   -2.641057   -3.385961
     97          6           0        8.012891   -3.695336   -2.384708
     98          6           0        7.467134   -3.092507   -1.185196
     99          6           0        7.930776   -2.653805   -4.868510
    100          6           0        8.683630   -5.031328   -2.491686
    101          8           0        8.640499   -5.884836   -1.536439
    102          6           0        9.312683   -5.347608   -3.782323
    103          7           0        6.320825   -2.131995    1.483160
    104          6           0        6.629538   -3.406655    1.186723
    105          6           0        6.462142   -4.302609    2.390726
    106          6           0        6.207940   -3.319232    3.626016
    107          6           0        6.182522   -1.970192    2.874466
    108          6           0        5.325350   -5.321153    2.309086
    109          6           0        7.154212   -3.466323    4.848962
    110          6           0        8.555047   -3.041227    4.471696
    111          7           0        6.159080    0.775336    1.725330
    112          6           0        5.781418    0.446945    3.045792
    113          6           0        5.334416    1.696748    3.694347
    114          6           0        5.462294    2.669187    2.691111
    115          6           0        5.935108    2.064276    1.495277
    116          6           0        4.840873    1.813353    5.024361
    117          6           0        5.294716    4.067989    2.368658
    118          8           0        5.005961    5.078421    3.008494
    119          6           0        5.424092    4.242646    0.794126
    120          6           0        6.350397    5.397824    0.529488
    121          8           0        7.550453    5.331722    0.849002
    122          8           0        5.721439    6.297749   -0.248282
    123          6           0        6.603662    7.457041   -0.547502
    124          1           0        6.285462   -0.412199   -4.281258
    125          1           0        7.347237   -4.807534    0.027473
    126          1           0        5.604060   -0.846455    4.577842
    127          1           0        5.157424    3.975762   -2.319741
    128          1           0        6.109948    2.171607   -4.262620
    129          1           0        3.523886    2.370655   -2.775049
    130          1           0        3.964808    0.727686   -3.285492
    131          1           0        3.802321    1.952257   -4.507656
    132          1           0        7.960325    3.161749   -3.124050
    133          1           0        7.765930    4.306396   -1.746663
    134          1           0        6.225177    5.285445   -3.931852
    135          1           0        7.596495    4.527384   -4.659658
    136          1           0        7.448991   -1.799340   -5.359589
    137          1           0        7.405725   -3.528194   -5.268053
    138          1           0        8.989323   -2.728859   -5.126427
    139          1           0        8.564138   -5.301853   -4.569750
    140          1           0        9.815802   -6.305276   -3.635312
    141          1           0       10.055101   -4.574139   -4.008536
    142          1           0        7.363518   -4.873844    2.575998
    143          1           0        5.205641   -3.457571    4.057387
    144          1           0        5.664326   -6.365440    2.445590
    145          1           0        4.829887   -5.203892    1.354466
    146          1           0        4.510685   -5.161394    3.013364
    147          1           0        7.219192   -4.513732    5.153714
    148          1           0        6.831931   -2.898276    5.715254
    149          1           0        8.966307   -3.938248    3.999145
    150          1           0        9.123539   -2.765946    5.357738
    151          1           0        8.535388   -2.249127    3.714178
    152          1           0        5.298961    2.696165    5.450149
    153          1           0        5.066000    0.925300    5.611266
    154          1           0        3.770319    1.914415    4.826975
    155          1           0        4.422716    4.422515    0.401093
    156          1           0        6.067187    8.356864   -0.230958
    157          1           0        6.854818    7.371964   -1.621472
    158          1           0        7.522165    7.547627    0.020484
 ---------------------------------------------------------------------

 SCF Done:  E(RCAM-B3LYP) =  -4069.81147880     A.U. after   19 cycles

 Excitation energies and oscillator strengths:

 Excited State   1:      Singlet-A      1.6653 eV  744.51 nm  f=0.0194  <S**2>=0.000
     309 -> 315       -0.11099
     310 -> 316        0.13053
     311 -> 313       -0.44326
     312 -> 314        0.52438
 This state for optimization and/or second-order correction.
 Total Energy, E(TD-HF/TD-DFT) =  -4069.75027958
 Copying the excited state density for this state as the 1-particle RhoCI density.

 Excited State   2:      Singlet-A      1.6897 eV  733.78 nm  f=0.7254  <S**2>=0.000
     309 -> 315        0.13598
     310 -> 316        0.11427
     311 -> 313        0.52317
     312 -> 314        0.44234

 Excited State   3:      Singlet-A      2.1848 eV  567.49 nm  f=0.0363  <S**2>=0.000
     309 -> 313        0.21516
     310 -> 314        0.60610
     312 -> 316       -0.25644

 Excited State   4:      Singlet-A      2.1933 eV  565.28 nm  f=0.1520  <S**2>=0.000
     309 -> 313        0.60358
     310 -> 314       -0.21334
     311 -> 315       -0.26312

 Excited State   5:      Singlet-A      2.6551 eV  466.97 nm  f=0.0000  <S**2>=0.000
     312 -> 313        0.70709

 The electronic state is 1-A.
 Alpha  occ. eigenvalues --  -46.87814 -46.87541 -19.26260 -19.26211 -19.19025
 Alpha  occ. eigenvalues --  -19.18994 -19.18838 -19.18616 -19.18158 -19.17890
 Alpha  occ. eigenvalues --  -14.42469 -14.42380 -14.41467 -14.41240 -14.39421
 Alpha  occ. eigenvalues --  -14.39234 -14.38599 -14.38473 -10.39057 -10.38952
 Alpha  occ. eigenvalues --  -10.35473 -10.35296 -10.34379 -10.34067 -10.31648
 Alpha  occ. eigenvalues --  -10.31632 -10.31419 -10.31184 -10.30930 -10.30910
 Alpha  occ. eigenvalues --  -10.30582 -10.30520 -10.30272 -10.30232 -10.30229
 Alpha  occ. eigenvalues --  -10.30034 -10.29933 -10.29770 -10.29644 -10.29323
 Alpha  occ. eigenvalues --  -10.29278 -10.29273 -10.28775 -10.28608 -10.28587
 Alpha  occ. eigenvalues --  -10.28576 -10.28379 -10.28281 -10.28141 -10.28032
 Alpha  occ. eigenvalues --  -10.27872 -10.27803 -10.27746 -10.27601 -10.27556
 Alpha  occ. eigenvalues --  -10.27522 -10.27519 -10.27468 -10.27417 -10.27415
 Alpha  occ. eigenvalues --  -10.27386 -10.27360 -10.27349 -10.27270 -10.27152
 Alpha  occ. eigenvalues --  -10.26891 -10.26744 -10.26598 -10.26447 -10.26342
 Alpha  occ. eigenvalues --  -10.26255 -10.26211 -10.26047 -10.26036 -10.25911
 Alpha  occ. eigenvalues --  -10.25832 -10.25817 -10.25684 -10.25451 -10.25292
 Alpha  occ. eigenvalues --  -10.24840 -10.24803 -10.24738 -10.24722 -10.24644
 Alpha  occ. eigenvalues --  -10.24570  -3.16557  -3.16291  -1.91438  -1.91173
 Alpha  occ. eigenvalues --   -1.91025  -1.90867  -1.90762  -1.90598  -1.16609
 Alpha  occ. eigenvalues --   -1.16505  -1.08613  -1.08493  -1.07240  -1.06871
 Alpha  occ. eigenvalues --   -1.06808  -1.06617  -1.04599  -1.04376  -1.03778
 Alpha  occ. eigenvalues --   -1.03544  -1.03249  -1.02918  -1.02426  -1.01989
 Alpha  occ. eigenvalues --   -0.91980  -0.91854  -0.89538  -0.89381  -0.89213
 Alpha  occ. eigenvalues --   -0.89042  -0.88305  -0.88111  -0.87875  -0.87693
 Alpha  occ. eigenvalues --   -0.87654  -0.87569  -0.87297  -0.87018  -0.85006
 Alpha  occ. eigenvalues --   -0.84891  -0.83953  -0.83767  -0.82994  -0.82837
 Alpha  occ. eigenvalues --   -0.82668  -0.82545  -0.81584  -0.81469  -0.80606
 Alpha  occ. eigenvalues --   -0.80323  -0.78815  -0.78521  -0.77238  -0.77034
 Alpha  occ. eigenvalues --   -0.76950  -0.76785  -0.75933  -0.75719  -0.74912
 Alpha  occ. eigenvalues --   -0.74690  -0.72787  -0.72576  -0.71686  -0.71463
 Alpha  occ. eigenvalues --   -0.69930  -0.69656  -0.68894  -0.68717  -0.67654
 Alpha  occ. eigenvalues --   -0.67483  -0.67249  -0.67100  -0.65306  -0.65157
 Alpha  occ. eigenvalues --   -0.64863  -0.64651  -0.64634  -0.64536  -0.64287
 Alpha  occ. eigenvalues --   -0.64092  -0.62292  -0.62151  -0.60463  -0.60232
 Alpha  occ. eigenvalues --   -0.59825  -0.59681  -0.59000  -0.58872  -0.58514
 Alpha  occ. eigenvalues --   -0.58302  -0.57580  -0.57410  -0.57320  -0.57118
 Alpha  occ. eigenvalues --   -0.56322  -0.56083  -0.55974  -0.55764  -0.55536
 Alpha  occ. eigenvalues --   -0.55347  -0.55338  -0.55129  -0.54525  -0.54370
 Alpha  occ. eigenvalues --   -0.53919  -0.53804  -0.53315  -0.53241  -0.53113
 Alpha  occ. eigenvalues --   -0.53028  -0.52920  -0.52786  -0.52782  -0.52573
 Alpha  occ. eigenvalues --   -0.52459  -0.52300  -0.51912  -0.51732  -0.51638
 Alpha  occ. eigenvalues --   -0.51553  -0.51204  -0.51074  -0.50605  -0.50386
 Alpha  occ. eigenvalues --   -0.50054  -0.49942  -0.49875  -0.49761  -0.49534
 Alpha  occ. eigenvalues --   -0.49381  -0.49224  -0.49112  -0.49082  -0.48980
 Alpha  occ. eigenvalues --   -0.48597  -0.48480  -0.48453  -0.48434  -0.48261
 Alpha  occ. eigenvalues --   -0.48228  -0.47713  -0.47485  -0.47313  -0.47011
 Alpha  occ. eigenvalues --   -0.46814  -0.46596  -0.46578  -0.46448  -0.46372
 Alpha  occ. eigenvalues --   -0.46168  -0.46155  -0.45959  -0.45819  -0.45687
 Alpha  occ. eigenvalues --   -0.45218  -0.45097  -0.44580  -0.44532  -0.44393
 Alpha  occ. eigenvalues --   -0.44362  -0.44163  -0.44110  -0.44027  -0.44010
 Alpha  occ. eigenvalues --   -0.43969  -0.43823  -0.43493  -0.43431  -0.43406
 Alpha  occ. eigenvalues --   -0.43268  -0.43038  -0.42806  -0.42768  -0.42705
 Alpha  occ. eigenvalues --   -0.42653  -0.42448  -0.42028  -0.41857  -0.41713
 Alpha  occ. eigenvalues --   -0.41558  -0.41537  -0.41352  -0.41157  -0.40894
 Alpha  occ. eigenvalues --   -0.40873  -0.40851  -0.40625  -0.40597  -0.40590
 Alpha  occ. eigenvalues --   -0.40384  -0.40269  -0.40131  -0.39467  -0.39326
 Alpha  occ. eigenvalues --   -0.38491  -0.38244  -0.37777  -0.37553  -0.37339
 Alpha  occ. eigenvalues --   -0.37285  -0.37155  -0.37086  -0.36704  -0.36643
 Alpha  occ. eigenvalues --   -0.36197  -0.36101  -0.34300  -0.34132  -0.33752
 Alpha  occ. eigenvalues --   -0.33729  -0.33198  -0.33055  -0.31368  -0.31175
 Alpha  occ. eigenvalues --   -0.31050  -0.30853  -0.30017  -0.29793  -0.29465
 Alpha  occ. eigenvalues --   -0.29329  -0.29210  -0.29075  -0.24095  -0.23913
 Alpha  occ. eigenvalues --   -0.21143  -0.20997
 Alpha virt. eigenvalues --   -0.08789  -0.08669  -0.01767  -0.01567  -0.00076
 Alpha virt. eigenvalues --    0.00084   0.02198   0.02348   0.03098   0.03336
 Alpha virt. eigenvalues --    0.04695   0.04842   0.05117   0.05304   0.06146

 Mulliken charges:
               1
     1  Mg   0.838608
     2  C   -0.002911
     3  C   -0.094387
     4  C   -0.045887
     5  C   -0.063961
     6  N   -0.256737
     7  C   -0.052518
     8  C   -0.013946
     9  C   -0.086943
    10  C    0.046189
    11  C    0.104818
    12  C    0.053570
    13  C   -0.071600
    14  H    0.035801
    15  N   -0.433111
    16  C    0.168264
    17  C   -0.177398
    18  C   -0.004106
    19  C    0.148621
    20  C    0.110248
    21  C    0.012195
    22  O   -0.249600
    23  C    0.062561
    24  N   -0.341147
    25  C    0.041184
    26  C   -0.028185
    27  C   -0.023972
    28  C    0.074861
    29  C    0.076153
    30  C    0.035114
    31  C   -0.004457
    32  N   -0.310568
    33  C    0.080528
    34  C   -0.169431
    35  C    0.008622
    36  C    0.083084
    37  C    0.127203
    38  C    0.046500
    39  O   -0.187670
    40  C   -0.005489
    41  C    0.213035
    42  O   -0.256746
    43  O   -0.304935
    44  C    0.157441
    45  H   -0.017754
    46  H   -0.016869
    47  H   -0.041362
    48  H    0.001107
    49  H   -0.004348
    50  H    0.025591
    51  H    0.016490
    52  H    0.016563
    53  H    0.010687
    54  H    0.044281
    55  H    0.018112
    56  H    0.017517
    57  H    0.005691
    58  H    0.026821
    59  H    0.038998
    60  H    0.037325
    61  H    0.035668
    62  H    0.031101
    63  H    0.016464
    64  H    0.009570
    65  H    0.023203
    66  H    0.012576
    67  H    0.004801
    68  H    0.006337
    69  H    0.004846
    70  H    0.008689
    71  H    0.017797
    72  H    0.029095
    73  H    0.048201
    74  H    0.009093
    75  H    0.046092
    76  H    0.035171
    77  H    0.043275
    78  H    0.045911
    79  H    0.054364
    80  Mg   0.837897
    81  C   -0.016612
    82  C   -0.087934
    83  C   -0.045598
    84  C   -0.064774
    85  N   -0.254507
    86  C   -0.049554
    87  C   -0.015120
    88  C   -0.090585
    89  C    0.045770
    90  C    0.114321
    91  C    0.062596
    92  C   -0.077644
    93  H    0.034616
    94  N   -0.423414
    95  C    0.162747
    96  C   -0.174995
    97  C   -0.008034
    98  C    0.151981
    99  C    0.099552
   100  C    0.015357
   101  O   -0.253416
   102  C    0.061301
   103  N   -0.350001
   104  C    0.037438
   105  C   -0.019787
   106  C   -0.034832
   107  C    0.089086
   108  C    0.073711
   109  C    0.034753
   110  C   -0.007614
   111  N   -0.324299
   112  C    0.078701
   113  C   -0.162735
   114  C    0.002922
   115  C    0.096132
   116  C    0.131311
   117  C    0.043242
   118  O   -0.186781
   119  C    0.000567
   120  C    0.211179
   121  O   -0.251375
   122  O   -0.305289
   123  C    0.152140
   124  H   -0.020295
   125  H   -0.015810
   126  H   -0.040407
   127  H   -0.000219
   128  H   -0.004873
   129  H    0.023760
   130  H    0.014303
   131  H    0.015273
   132  H    0.013719
   133  H    0.037726
   134  H    0.020724
   135  H    0.019197
   136  H    0.008346
   137  H    0.025602
   138  H    0.039426
   139  H    0.037978
   140  H    0.036102
   141  H    0.033748
   142  H    0.014153
   143  H    0.012459
   144  H    0.024868
   145  H    0.011837
   146  H    0.005637
   147  H    0.006028
   148  H    0.003628
   149  H    0.010802
   150  H    0.017766
   151  H    0.030202
   152  H    0.046029
   153  H    0.008065
   154  H    0.048643
   155  H    0.036662
   156  H    0.044085
   157  H    0.049047
   158  H    0.053369
 Sum of Mulliken charges =  -0.00000

 Dipole moment (field-independent basis, Debye):
    X=             -2.9438    Y=             -2.3864    Z=             -7.9077  Tot=              8.7688
 Quadrupole moment (field-independent basis, Debye-Ang):
   XX=           -505.2213   YY=           -549.3950   ZZ=           -450.2113
   XY=              3.3543   XZ=             -3.5204   YZ=            -50.6201

 Normal termination of Gaussian 16 at Sat Sep 11 14:39:36 2021.
