 Gaussian 16, Revision A.03,
 Gaussian 16:  ES64L-G16RevA.03 25-Dec-2016

 -----------------------------------
 #p cam-b3lyp/Def2SVP td=(nstates=5)
 -----------------------------------

 --------------------------------
 TDDFT excited states in gaussian
 --------------------------------
 Symbolic Z-matrix:
 Charge =  0 Multiplicity = 1

                         Standard orientation:
 ---------------------------------------------------------------------
 Center     Atomic      Atomic             Coordinates (Angstroms)
 Number     Number       Type             X           Y           Z
 ---------------------------------------------------------------------
      1         12           0       -7.923082    0.812349    0.433153
      2          6           0       -8.380895   -1.717862   -2.056958
      3          6           0       -9.039582   -1.453276    2.727370
      4          6           0       -7.959977    3.156278    2.568863
      5          6           0       -7.940872    3.150689   -2.150935
      6          7           0       -8.593471   -1.288375    0.237744
      7          6           0       -8.664416   -2.160521   -0.763005
      8          6           0       -8.995493   -3.609896   -0.297094
      9          6           0       -9.720427   -3.271565    1.082037
     10          6           0       -9.053547   -1.941871    1.387179
     11          6           0      -11.222542   -3.046939    0.941703
     12          6           0       -7.707163   -4.470614   -0.071038
     13          6           0       -7.943811   -5.977441    0.066166
     14          1           0       -6.955359   -6.894261   -0.481331
     15          7           0       -7.953762    0.746392    2.407377
     16          6           0       -8.429889   -0.261950    3.176685
     17          6           0       -8.228542    0.164644    4.578169
     18          6           0       -7.771232    1.581921    4.561169
     19          6           0       -7.903550    1.897125    3.161699
     20          6           0       -8.419279   -0.747070    5.751262
     21          6           0       -7.301118    2.508817    5.637268
     22          8           0       -7.172512    3.766034    5.443778
     23          6           0       -7.076834    1.912197    6.966473
     24          7           0       -8.166557    2.879106    0.269234
     25          6           0       -8.082127    3.671241    1.343654
     26          6           0       -8.005134    5.116983    0.951428
     27          6           0       -7.809030    5.135289   -0.633174
     28          6           0       -7.894228    3.612040   -0.899117
     29          6           0       -9.219963    5.977466    1.325286
     30          6           0       -6.585998    5.912472   -1.181441
     31          6           0       -5.308645    5.212995   -0.773765
     32          7           0       -7.945154    0.749421   -1.736317
     33          6           0       -7.972509    1.844975   -2.611352
     34          6           0       -8.089780    1.303603   -3.977819
     35          6           0       -8.139513   -0.077666   -3.800428
     36          6           0       -8.084883   -0.378832   -2.409526
     37          6           0       -8.195121    2.070305   -5.171764
     38          6           0       -8.250910   -1.368107   -4.460890
     39          8           0       -8.237677   -1.746252   -5.633206
     40          6           0       -8.534367   -2.475569   -3.352284
     41          6           0       -7.599172   -3.625660   -3.609207
     42          8           0       -6.367175   -3.493994   -3.460163
     43          8           0       -8.311337   -4.753309   -3.756751
     44          6           0       -7.441711   -5.938076   -3.985294
     45          1           0       -9.594303   -1.998267    3.493667
     46          1           0       -7.863583    3.992245    3.264784
     47          1           0       -7.867189    3.816410   -3.012817
     48          1           0       -9.676586   -4.153445   -0.952145
     49          1           0       -9.483095   -4.000999    1.856195
     50          1           0      -11.526680   -3.029273   -0.104772
     51          1           0      -11.417747   -2.082600    1.411213
     52          1           0      -11.780066   -3.781648    1.523206
     53          1           0       -7.300325   -4.255972    0.917128
     54          1           0       -6.979106   -4.290630   -0.862785
     55          1           0       -8.945700   -6.255107   -0.262510
     56          1           0       -7.926553   -6.230750    1.126230
     57          1           0       -8.916406   -1.672350    5.462701
     58          1           0       -9.124295   -0.258075    6.423234
     59          1           0       -7.484114   -0.940522    6.276975
     60          1           0       -8.004666    1.462057    7.320098
     61          1           0       -6.658204    2.705126    7.585231
     62          1           0       -6.357876    1.097958    6.871267
     63          1           0       -7.152926    5.605118    1.422482
     64          1           0       -8.660523    5.583759   -1.145528
     65          1           0       -8.971708    6.840248    1.943900
     66          1           0       -9.947094    5.336053    1.822438
     67          1           0       -9.798359    6.344441    0.477817
     68          1           0       -6.552319    6.915100   -0.756531
     69          1           0       -6.590835    6.012279   -2.266921
     70          1           0       -5.134322    5.591652    0.232745
     71          1           0       -4.492913    5.490707   -1.442097
     72          1           0       -5.452365    4.135130   -0.696059
     73          1           0       -7.540539    1.591922   -5.900216
     74          1           0       -7.908174    3.107928   -5.002643
     75          1           0       -9.257550    1.960948   -5.388889
     76          1           0       -9.579125   -2.765755   -3.459035
     77          1           0       -7.769004   -6.401734   -4.915957
     78          1           0       -7.490499   -6.538198   -3.076516
     79          1           0       -6.395887   -5.731238   -4.215098
     80         12           0        7.863724   -0.797534    0.468364
     81          6           0        8.575543    1.687622   -2.020882
     82          6           0        9.182234    1.345976    2.770857
     83          6           0        7.665404   -3.131719    2.608384
     84          6           0        7.674965   -3.130251   -2.113996
     85          7           0        8.733650    1.227064    0.277365
     86          6           0        8.895091    2.095975   -0.709177
     87          6           0        9.353388    3.507608   -0.254396
     88          6           0       10.043914    3.099628    1.136860
     89          6           0        9.251405    1.829693    1.439946
     90          6           0       11.509788    2.725205    0.994156
     91          6           0        8.146290    4.485010   -0.031663
     92          6           0        8.530595    5.959247    0.112178
     93          1           0        7.630700    6.969878   -0.436704
     94          7           0        7.890386   -0.727334    2.451523
     95          6           0        8.449659    0.227103    3.224526
     96          6           0        8.215508   -0.192835    4.614840
     97          6           0        7.617065   -1.555298    4.598859
     98          6           0        7.722594   -1.873037    3.188892
     99          6           0        8.479606    0.702229    5.790658
    100          6           0        7.055870   -2.432836    5.676444
    101          8           0        6.807301   -3.673668    5.473022
    102          6           0        6.893568   -1.819880    7.002883
    103          7           0        7.903971   -2.869556    0.302584
    104          6           0        7.745033   -3.652814    1.383867
    105          6           0        7.533472   -5.094350    0.986865
    106          6           0        7.341366   -5.078983   -0.600727
    107          6           0        7.574118   -3.575956   -0.869266
    108          6           0        8.662126   -6.057793    1.353359
    109          6           0        6.051056   -5.738597   -1.159908
    110          6           0        4.839950   -4.931491   -0.751002
    111          7           0        7.896460   -0.733457   -1.691013
    112          6           0        7.829521   -1.830176   -2.578023
    113          6           0        8.004340   -1.296347   -3.944358
    114          6           0        8.185297    0.081899   -3.754189
    115          6           0        8.147499    0.382806   -2.365836
    116          6           0        8.031324   -2.066388   -5.141203
    117          6           0        8.410303    1.349175   -4.411521
    118          8           0        8.445205    1.726491   -5.582063
    119          6           0        8.799259    2.427532   -3.310499
    120          6           0        7.979073    3.663357   -3.560594
    121          8           0        6.742905    3.639301   -3.426750
    122          8           0        8.802892    4.717588   -3.703047
    123          6           0        8.035543    5.968930   -3.942084
    124          1           0        9.778566    1.844327    3.535656
    125          1           0        7.486131   -3.960782    3.296861
    126          1           0        7.530928   -3.779728   -2.980079
    127          1           0       10.078964    3.981128   -0.904845
    128          1           0        9.866330    3.851492    1.901406
    129          1           0       11.815486    2.681245   -0.040615
    130          1           0       11.612096    1.754055    1.460475
    131          1           0       12.131976    3.407865    1.579981
    132          1           0        7.718221    4.304547    0.962790
    133          1           0        7.418569    4.375777   -0.812120
    134          1           0        9.562484    6.149278   -0.207269
    135          1           0        8.527051    6.216770    1.174111
    136          1           0        9.071753    1.579797    5.503179
    137          1           0        9.130710    0.147508    6.474916
    138          1           0        7.566560    0.981989    6.320519
    139          1           0        7.857242   -1.458880    7.354252
    140          1           0        6.396907   -2.575169    7.615041
    141          1           0        6.245061   -0.942042    6.905644
    142          1           0        6.637427   -5.494246    1.445414
    143          1           0        8.150391   -5.618940   -1.114299
    144          1           0        8.326328   -6.904996    1.980711
    145          1           0        9.439591   -5.497518    1.855519
    146          1           0        9.196225   -6.486666    0.507189
    147          1           0        5.918960   -6.735177   -0.731508
    148          1           0        6.055708   -5.849989   -2.239062
    149          1           0        4.631391   -5.294370    0.259889
    150          1           0        4.005062   -5.127436   -1.420780
    151          1           0        5.084728   -3.865697   -0.674686
    152          1           0        7.434627   -1.532227   -5.868615
    153          1           0        7.651098   -3.072235   -4.975471
    154          1           0        9.104198   -2.062585   -5.351423
    155          1           0        9.868726    2.620106   -3.403998
    156          1           0        8.413406    6.402495   -4.873174
    157          1           0        8.152681    6.571600   -3.021859
    158          1           0        6.979485    5.874196   -4.166188
 ---------------------------------------------------------------------

 SCF Done:  E(RCAM-B3LYP) =  -4069.81169765     A.U. after   19 cycles

 Excitation energies and oscillator strengths:

 Excited State   1:      Singlet-A      1.6699 eV  742.49 nm  f=0.0182  <S**2>=0.000
     309 -> 315       -0.10398
     310 -> 316        0.13750
     311 -> 313        0.54850
     312 -> 314       -0.41259
 This state for optimization and/or second-order correction.
 Total Energy, E(TD-HF/TD-DFT) =  -4069.75033167
 Copying the excited state density for this state as the 1-particle RhoCI density.

 Excited State   2:      Singlet-A      1.6850 eV  735.81 nm  f=0.7397  <S**2>=0.000
     309 -> 315        0.14129
     310 -> 316        0.10573
     311 -> 313        0.41209
     312 -> 314        0.54768

 Excited State   3:      Singlet-A      2.1854 eV  567.33 nm  f=0.0617  <S**2>=0.000
     309 -> 314        0.12977
     310 -> 313        0.62946
     311 -> 316       -0.26706

 Excited State   4:      Singlet-A      2.1925 eV  565.50 nm  f=0.1325  <S**2>=0.000
     309 -> 314        0.62757
     310 -> 313       -0.12887
     312 -> 315       -0.27257

 Excited State   5:      Singlet-A      2.8015 eV  442.56 nm  f=0.0000  <S**2>=0.000
     312 -> 313        0.70710

 The electronic state is 1-A.
 Alpha  occ. eigenvalues --  -46.87691 -46.87594 -19.26282 -19.26182 -19.19087
 Alpha  occ. eigenvalues --  -19.18911 -19.18728 -19.18669 -19.18062 -19.17982
 Alpha  occ. eigenvalues --  -14.42434 -14.42347 -14.41345 -14.41294 -14.39299
 Alpha  occ. eigenvalues --  -14.39289 -14.38532 -14.38479 -10.39019 -10.38972
 Alpha  occ. eigenvalues --  -10.35363 -10.35348 -10.34282 -10.34159 -10.31692
 Alpha  occ. eigenvalues --  -10.31582 -10.31300 -10.31243 -10.30964 -10.30810
 Alpha  occ. eigenvalues --  -10.30463 -10.30402 -10.30332 -10.30292 -10.30105
 Alpha  occ. eigenvalues --  -10.30079 -10.29827 -10.29815 -10.29527 -10.29375
 Alpha  occ. eigenvalues --  -10.29336 -10.29152 -10.28661 -10.28652 -10.28599
 Alpha  occ. eigenvalues --  -10.28445 -10.28341 -10.28262 -10.28083 -10.28020
 Alpha  occ. eigenvalues --  -10.27936 -10.27688 -10.27625 -10.27607 -10.27483
 Alpha  occ. eigenvalues --  -10.27449 -10.27420 -10.27418 -10.27405 -10.27395
 Alpha  occ. eigenvalues --  -10.27391 -10.27349 -10.27314 -10.27300 -10.27054
 Alpha  occ. eigenvalues --  -10.26984 -10.26632 -10.26605 -10.26386 -10.26337
 Alpha  occ. eigenvalues --  -10.26145 -10.26063 -10.26052 -10.25975 -10.25912
 Alpha  occ. eigenvalues --  -10.25866 -10.25768 -10.25724 -10.25350 -10.25347
 Alpha  occ. eigenvalues --  -10.24806 -10.24727 -10.24686 -10.24627 -10.24624
 Alpha  occ. eigenvalues --  -10.24549  -3.16433  -3.16344  -1.91315  -1.91226
 Alpha  occ. eigenvalues --   -1.90902  -1.90815  -1.90744  -1.90652  -1.16575
 Alpha  occ. eigenvalues --   -1.16529  -1.08588  -1.08519  -1.07130  -1.06923
 Alpha  occ. eigenvalues --   -1.06873  -1.06534  -1.04478  -1.04432  -1.03657
 Alpha  occ. eigenvalues --   -1.03599  -1.03129  -1.02973  -1.02306  -1.02046
 Alpha  occ. eigenvalues --   -0.91922  -0.91868  -0.89425  -0.89411  -0.89092
 Alpha  occ. eigenvalues --   -0.89089  -0.88181  -0.88153  -0.87761  -0.87723
 Alpha  occ. eigenvalues --   -0.87621  -0.87571  -0.87179  -0.87067  -0.84940
 Alpha  occ. eigenvalues --   -0.84883  -0.83828  -0.83805  -0.82881  -0.82876
 Alpha  occ. eigenvalues --   -0.82595  -0.82551  -0.81530  -0.81483  -0.80495
 Alpha  occ. eigenvalues --   -0.80380  -0.78697  -0.78575  -0.77115  -0.77081
 Alpha  occ. eigenvalues --   -0.76834  -0.76833  -0.75823  -0.75777  -0.74797
 Alpha  occ. eigenvalues --   -0.74740  -0.72669  -0.72633  -0.71572  -0.71520
 Alpha  occ. eigenvalues --   -0.69794  -0.69681  -0.68774  -0.68767  -0.67540
 Alpha  occ. eigenvalues --   -0.67540  -0.67144  -0.67123  -0.65210  -0.65185
 Alpha  occ. eigenvalues --   -0.64749  -0.64704  -0.64590  -0.64518  -0.64163
 Alpha  occ. eigenvalues --   -0.64135  -0.62211  -0.62194  -0.60344  -0.60282
 Alpha  occ. eigenvalues --   -0.59736  -0.59704  -0.58928  -0.58884  -0.58400
 Alpha  occ. eigenvalues --   -0.58361  -0.57486  -0.57479  -0.57206  -0.57173
 Alpha  occ. eigenvalues --   -0.56207  -0.56140  -0.55878  -0.55823  -0.55423
 Alpha  occ. eigenvalues --   -0.55395  -0.55233  -0.55179  -0.54418  -0.54417
 Alpha  occ. eigenvalues --   -0.53853  -0.53796  -0.53199  -0.53166  -0.53124
 Alpha  occ. eigenvalues --   -0.53082  -0.52838  -0.52811  -0.52664  -0.52620
 Alpha  occ. eigenvalues --   -0.52322  -0.52319  -0.51809  -0.51802  -0.51602
 Alpha  occ. eigenvalues --   -0.51519  -0.51133  -0.51090  -0.50483  -0.50427
 Alpha  occ. eigenvalues --   -0.49927  -0.49922  -0.49824  -0.49803  -0.49433
 Alpha  occ. eigenvalues --   -0.49419  -0.49142  -0.49113  -0.49043  -0.48997
 Alpha  occ. eigenvalues --   -0.48495  -0.48491  -0.48365  -0.48347  -0.48313
 Alpha  occ. eigenvalues --   -0.48287  -0.47596  -0.47535  -0.47199  -0.47061
 Alpha  occ. eigenvalues --   -0.46692  -0.46643  -0.46495  -0.46457  -0.46255
 Alpha  occ. eigenvalues --   -0.46205  -0.46057  -0.46019  -0.45754  -0.45716
 Alpha  occ. eigenvalues --   -0.45145  -0.45100  -0.44474  -0.44452  -0.44413
 Alpha  occ. eigenvalues --   -0.44409  -0.44067  -0.44040  -0.44010  -0.43991
 Alpha  occ. eigenvalues --   -0.43920  -0.43883  -0.43485  -0.43390  -0.43324
 Alpha  occ. eigenvalues --   -0.43285  -0.42924  -0.42865  -0.42834  -0.42595
 Alpha  occ. eigenvalues --   -0.42545  -0.42485  -0.41900  -0.41892  -0.41604
 Alpha  occ. eigenvalues --   -0.41601  -0.41434  -0.41396  -0.41041  -0.40929
 Alpha  occ. eigenvalues --   -0.40769  -0.40732  -0.40671  -0.40638  -0.40466
 Alpha  occ. eigenvalues --   -0.40425  -0.40171  -0.40137  -0.39346  -0.39325
 Alpha  occ. eigenvalues --   -0.38365  -0.38286  -0.37649  -0.37594  -0.37215
 Alpha  occ. eigenvalues --   -0.37199  -0.37162  -0.37137  -0.36702  -0.36608
 Alpha  occ. eigenvalues --   -0.36150  -0.36088  -0.34188  -0.34181  -0.33790
 Alpha  occ. eigenvalues --   -0.33662  -0.33110  -0.33081  -0.31258  -0.31228
 Alpha  occ. eigenvalues --   -0.30933  -0.30910  -0.29921  -0.29886  -0.29348
 Alpha  occ. eigenvalues --   -0.29266  -0.29215  -0.29144  -0.23976  -0.23971
 Alpha  occ. eigenvalues --   -0.21052  -0.21023
 Alpha virt. eigenvalues --   -0.08728  -0.08671  -0.01647  -0.01621   0.00027
 Alpha virt. eigenvalues --    0.00038   0.02274   0.02306   0.03246   0.03310
 Alpha virt. eigenvalues --    0.04791   0.04819   0.05205   0.05236   0.06240

 Mulliken charges:
               1
     1  Mg   0.839105
     2  C   -0.002929
     3  C   -0.094135
     4  C   -0.045893
     5  C   -0.063853
     6  N   -0.256762
     7  C   -0.052410
     8  C   -0.014049
     9  C   -0.086991
    10  C    0.046314
    11  C    0.104860
    12  C    0.053451
    13  C   -0.071725
    14  H    0.036050
    15  N   -0.433094
    16  C    0.168393
    17  C   -0.177249
    18  C   -0.004120
    19  C    0.148727
    20  C    0.110220
    21  C    0.012223
    22  O   -0.249878
    23  C    0.062503
    24  N   -0.341205
    25  C    0.041255
    26  C   -0.028095
    27  C   -0.024026
    28  C    0.074983
    29  C    0.076258
    30  C    0.035095
    31  C   -0.004535
    32  N   -0.310549
    33  C    0.080606
    34  C   -0.169379
    35  C    0.008405
    36  C    0.083208
    37  C    0.127225
    38  C    0.046315
    39  O   -0.188312
    40  C   -0.005417
    41  C    0.212855
    42  O   -0.256799
    43  O   -0.304885
    44  C    0.157709
    45  H   -0.017792
    46  H   -0.017046
    47  H   -0.041327
    48  H    0.000841
    49  H   -0.004098
    50  H    0.025406
    51  H    0.016380
    52  H    0.016489
    53  H    0.011327
    54  H    0.044278
    55  H    0.017734
    56  H    0.017917
    57  H    0.005816
    58  H    0.026570
    59  H    0.039487
    60  H    0.037255
    61  H    0.035267
    62  H    0.031558
    63  H    0.016483
    64  H    0.009331
    65  H    0.022968
    66  H    0.012413
    67  H    0.004648
    68  H    0.006105
    69  H    0.004931
    70  H    0.008480
    71  H    0.018911
    72  H    0.029173
    73  H    0.047987
    74  H    0.009322
    75  H    0.045822
    76  H    0.035004
    77  H    0.042832
    78  H    0.046279
    79  H    0.053779
    80  Mg   0.838127
    81  C   -0.016774
    82  C   -0.087837
    83  C   -0.045530
    84  C   -0.064741
    85  N   -0.254542
    86  C   -0.049805
    87  C   -0.015083
    88  C   -0.090502
    89  C    0.045746
    90  C    0.114418
    91  C    0.062521
    92  C   -0.077848
    93  H    0.034888
    94  N   -0.423420
    95  C    0.162893
    96  C   -0.174742
    97  C   -0.007939
    98  C    0.152130
    99  C    0.099416
   100  C    0.015470
   101  O   -0.253461
   102  C    0.061249
   103  N   -0.350095
   104  C    0.037528
   105  C   -0.019755
   106  C   -0.034879
   107  C    0.089059
   108  C    0.073761
   109  C    0.034720
   110  C   -0.007742
   111  N   -0.324194
   112  C    0.078671
   113  C   -0.162739
   114  C    0.002293
   115  C    0.096430
   116  C    0.131398
   117  C    0.042607
   118  O   -0.187691
   119  C    0.000828
   120  C    0.211256
   121  O   -0.250688
   122  O   -0.305730
   123  C    0.152025
   124  H   -0.019849
   125  H   -0.015799
   126  H   -0.040225
   127  H   -0.000725
   128  H   -0.004395
   129  H    0.022399
   130  H    0.014358
   131  H    0.016126
   132  H    0.013995
   133  H    0.037849
   134  H    0.020668
   135  H    0.019530
   136  H    0.008706
   137  H    0.025892
   138  H    0.039674
   139  H    0.038182
   140  H    0.035972
   141  H    0.033908
   142  H    0.014314
   143  H    0.012291
   144  H    0.024869
   145  H    0.011497
   146  H    0.005579
   147  H    0.005967
   148  H    0.003912
   149  H    0.010554
   150  H    0.018923
   151  H    0.030291
   152  H    0.046496
   153  H    0.008784
   154  H    0.046751
   155  H    0.034886
   156  H    0.043834
   157  H    0.049364
   158  H    0.053724
 Sum of Mulliken charges =  -0.00000

 Dipole moment (field-independent basis, Debye):
    X=              0.0485    Y=             -0.1570    Z=              7.3193  Tot=              7.3212
 Quadrupole moment (field-independent basis, Debye-Ang):
   XX=           -445.0596   YY=           -463.1719   ZZ=           -539.8614
   XY=             32.6922   XZ=              1.6243   YZ=              0.1258

 Normal termination of Gaussian 16 at Sat Sep 11 22:01:44 2021.
