 Gaussian 16, Revision A.03,
 Gaussian 16:  ES64L-G16RevA.03 25-Dec-2016

 -----------------------------------
 #p cam-b3lyp/Def2SVP td=(nstates=5)
 -----------------------------------

 --------------------------------
 TDDFT excited states in gaussian
 --------------------------------
 Symbolic Z-matrix:
 Charge =  0 Multiplicity = 1

                         Standard orientation:
 ---------------------------------------------------------------------
 Center     Atomic      Atomic             Coordinates (Angstroms)
 Number     Number       Type             X           Y           Z
 ---------------------------------------------------------------------
      1         12           0        4.259827   -0.024424    0.186564
      2          6           0        3.960012   -3.274954   -1.281898
      3          6           0        5.247089    1.105650   -2.877961
      4          6           0        4.966629    2.746794    1.556749
      5          6           0        4.357167   -1.599154    3.294041
      6          7           0        4.528485   -1.050769   -1.756394
      7          6           0        4.322473   -2.286863   -2.200017
      8          6           0        4.454464   -2.418141   -3.746859
      9          6           0        5.393429   -1.160424   -4.027021
     10          6           0        5.009068   -0.300275   -2.836083
     11          6           0        6.882290   -1.480571   -3.941570
     12          6           0        3.075606   -2.277237   -4.475300
     13          6           0        3.064355   -2.714274   -5.943028
     14          1           0        1.872167   -3.358912   -6.472630
     15          7           0        4.525158    1.765749   -0.605731
     16          6           0        4.912780    2.040520   -1.874406
     17          6           0        4.964691    3.514963   -1.974429
     18          6           0        4.759929    4.071205   -0.608134
     19          6           0        4.768633    2.867494    0.183310
     20          6           0        5.140573    4.246105   -3.269901
     21          6           0        4.594769    5.467006   -0.095697
     22          8           0        4.661545    5.746558    1.150082
     23          6           0        4.438938    6.525115   -1.110175
     24          7           0        4.833335    0.495804    2.125143
     25          6           0        5.021593    1.774497    2.469363
     26          6           0        5.146445    1.926962    3.956341
     27          6           0        4.759962    0.508769    4.580132
     28          6           0        4.547521   -0.278210    3.263392
     29          6           0        6.528417    2.351702    4.471860
     30          6           0        3.630345    0.491199    5.640356
     31          6           0        2.312691    0.853194    4.992400
     32          7           0        3.999433   -2.048442    0.925880
     33          6           0        4.105570   -2.480458    2.255832
     34          6           0        3.956110   -3.947307    2.246790
     35          6           0        3.788882   -4.270487    0.901637
     36          6           0        3.857435   -3.083705    0.117328
     37          6           0        4.041931   -4.800743    3.382006
     38          6           0        3.592849   -5.345032   -0.057936
     39          8           0        3.368262   -6.553266    0.027058
     40          6           0        3.817540   -4.757563   -1.520886
     41          6           0        2.673509   -5.224745   -2.378932
     42          8           0        1.511054   -4.821654   -2.170166
     43          8           0        3.156626   -5.877953   -3.446855
     44          6           0        2.074233   -6.342710   -4.354919
     45          1           0        5.790963    1.523836   -3.727233
     46          1           0        5.103447    3.694146    2.082336
     47          1           0        4.292166   -2.149639    4.234357
     48          1           0        4.944436   -3.331262   -4.085330
     49          1           0        5.132602   -0.657170   -4.957841
     50          1           0        7.051725   -2.492753   -3.574554
     51          1           0        7.297849   -0.749507   -3.247776
     52          1           0        7.373120   -1.298711   -4.898016
     53          1           0        2.838563   -1.220063   -4.594690
     54          1           0        2.296298   -2.814104   -3.933287
     55          1           0        3.954371   -3.292175   -6.193650
     56          1           0        3.136323   -1.822360   -6.565530
     57          1           0        5.430823    3.571439   -4.074342
     58          1           0        5.997662    4.908120   -3.148064
     59          1           0        4.259203    4.830642   -3.534168
     60          1           0        5.312144    6.529279   -1.762895
     61          1           0        4.243846    7.444123   -0.558619
     62          1           0        3.584265    6.284377   -1.743048
     63          1           0        4.456737    2.682032    4.331304
     64          1           0        5.605186    0.039690    5.084350
     65          1           0        6.511814    3.264272    5.068220
     66          1           0        7.190501    2.457806    3.612978
     67          1           0        7.050881    1.594592    5.056010
     68          1           0        3.823289    1.235346    6.412343
     69          1           0        3.516616   -0.474990    6.132082
     70          1           0        2.333388    1.942414    4.990673
     71          1           0        1.479979    0.479477    5.589172
     72          1           0        2.277116    0.526315    3.952991
     73          1           0        3.228890   -5.520128    3.284956
     74          1           0        3.961474   -4.234820    4.309831
     75          1           0        5.034039   -5.228511    3.238502
     76          1           0        4.775019   -5.143042   -1.869832
     77          1           0        2.197835   -7.418813   -4.477223
     78          1           0        2.132074   -5.721893   -5.249148
     79          1           0        1.059293   -6.295867   -3.958634
     80         12           0       -3.601063    1.128328    0.349334
     81          6           0       -6.302923   -1.232789    0.285423
     82          6           0       -5.303163    2.913659   -2.006524
     83          6           0       -1.044212    2.983315    0.051007
     84          6           0       -1.641419   -1.363603    1.797004
     85          7           0       -5.542886    0.782905   -0.651789
     86          6           0       -6.510466   -0.115928   -0.550635
     87          6           0       -7.804006    0.240924   -1.330988
     88          6           0       -7.160505    1.222221   -2.427270
     89          6           0       -5.942507    1.702258   -1.640692
     90          6           0       -6.671173    0.497627   -3.670198
     91          6           0       -8.854410    0.988689   -0.436823
     92          6           0      -10.256018    1.093051   -1.042107
     93          1           0      -11.407885    1.015840   -0.147836
     94          7           0       -3.417318    2.947794   -0.421633
     95          6           0       -4.209695    3.521434   -1.351331
     96          6           0       -3.641308    4.856012   -1.596313
     97          6           0       -2.354032    4.960549   -0.856924
     98          6           0       -2.208483    3.597431   -0.387015
     99          6           0       -4.351860    5.908691   -2.396568
    100          6           0       -1.403965    6.095947   -0.623567
    101          8           0       -0.227645    5.903599   -0.152303
    102          6           0       -1.856932    7.428013   -1.050100
    103          7           0       -1.572043    0.792228    0.653423
    104          6           0       -0.676847    1.784198    0.503207
    105          6           0        0.676690    1.383300    1.039484
    106          6           0        0.442894   -0.001848    1.803877
    107          6           0       -1.053475   -0.216231    1.487163
    108          6           0        1.780385    1.208741   -0.003482
    109          6           0        0.902507   -0.074166    3.285836
    110          6           0        0.043428    0.832541    4.137446
    111          7           0       -3.934101   -0.865095    1.113114
    112          6           0       -2.969406   -1.744238    1.652153
    113          6           0       -3.652797   -3.024724    1.927354
    114          6           0       -4.972855   -2.807443    1.504585
    115          6           0       -5.098145   -1.491580    0.982762
    116          6           0       -3.041047   -4.198374    2.451205
    117          6           0       -6.286261   -3.395573    1.371280
    118          8           0       -6.803493   -4.454941    1.723347
    119          6           0       -7.175539   -2.444766    0.459411
    120          6           0       -8.504559   -2.259494    1.139049
    121          8           0       -8.579954   -1.663611    2.228019
    122          8           0       -9.486308   -2.621328    0.293108
    123          6           0      -10.824293   -2.444928    0.918006
    124          1           0       -5.642688    3.428508   -2.905711
    125          1           0       -0.155328    3.618090    0.071620
    126          1           0       -1.122991   -2.157584    2.338766
    127          1           0       -8.285694   -0.597538   -1.819589
    128          1           0       -7.823074    2.054629   -2.649688
    129          1           0       -6.729800   -0.575067   -3.560506
    130          1           0       -5.643611    0.808405   -3.806479
    131          1           0       -7.212897    0.852889   -4.551474
    132          1           0       -8.590735    2.053073   -0.388861
    133          1           0       -8.913459    0.541463    0.536384
    134          1           0      -10.387167    0.418380   -1.896838
    135          1           0      -10.376490    2.092011   -1.468215
    136          1           0       -5.199218    5.488103   -2.951994
    137          1           0       -3.656467    6.242959   -3.174103
    138          1           0       -4.646903    6.769374   -1.792556
    139          1           0       -2.078563    7.410389   -2.114537
    140          1           0       -1.080329    8.120473   -0.719534
    141          1           0       -2.796995    7.658878   -0.536672
    142          1           0        1.045422    2.116714    1.746058
    143          1           0        0.987185   -0.828729    1.324433
    144          1           0        2.664770    1.845938    0.186074
    145          1           0        1.363534    1.417487   -0.979788
    146          1           0        2.147148    0.190555   -0.121765
    147          1           0        1.928393    0.289701    3.382359
    148          1           0        0.876590   -1.077534    3.697620
    149          1           0        0.509927    1.812951    4.002281
    150          1           0        0.073922    0.521243    5.179663
    151          1           0       -0.976455    0.895238    3.740509
    152          1           0       -3.716466   -4.594890    3.197579
    153          1           0       -2.062487   -3.981557    2.874513
    154          1           0       -2.970643   -4.803439    1.543347
    155          1           0       -7.277136   -2.925836   -0.514154
    156          1           0      -11.334613   -3.411219    0.858482
    157          1           0      -11.292190   -1.594626    0.387153
    158          1           0      -10.858203   -2.253167    1.984093
 ---------------------------------------------------------------------

 SCF Done:  E(RCAM-B3LYP) =  -4069.61612161     A.U. after   19 cycles

 Excitation energies and oscillator strengths:

 Excited State   1:      Singlet-A      1.6274 eV  761.86 nm  f=0.0019  <S**2>=0.000
     309 -> 315       -0.11093
     310 -> 316        0.11678
     311 -> 313       -0.47303
     312 -> 314        0.50013
 This state for optimization and/or second-order correction.
 Total Energy, E(TD-HF/TD-DFT) =  -4069.55631586
 Copying the excited state density for this state as the 1-particle RhoCI density.

 Excited State   2:      Singlet-A      1.7127 eV  723.91 nm  f=0.6611  <S**2>=0.000
     309 -> 315        0.13278
     310 -> 316        0.12355
     311 -> 313        0.49488
     312 -> 314        0.46846

 Excited State   3:      Singlet-A      2.1574 eV  574.68 nm  f=0.0700  <S**2>=0.000
     309 -> 313        0.59070
     310 -> 314       -0.11080
     311 -> 315       -0.25192
     312 -> 313        0.24206

 Excited State   4:      Singlet-A      2.1828 eV  568.00 nm  f=0.1197  <S**2>=0.000
     310 -> 314        0.62982
     312 -> 316       -0.26685

 Excited State   5:      Singlet-A      2.2452 eV  552.21 nm  f=0.0104  <S**2>=0.000
     309 -> 313       -0.22731
     312 -> 313        0.65736

 The electronic state is 1-A.
 Alpha  occ. eigenvalues --  -46.87554 -46.87479 -19.26311 -19.26226 -19.19063
 Alpha  occ. eigenvalues --  -19.19034 -19.18620 -19.18567 -19.18188 -19.17899
 Alpha  occ. eigenvalues --  -14.42392 -14.42326 -14.41517 -14.41175 -14.39180
 Alpha  occ. eigenvalues --  -14.39057 -14.38551 -14.38413 -10.39114 -10.38958
 Alpha  occ. eigenvalues --  -10.35303 -10.35193 -10.34412 -10.34070 -10.31696
 Alpha  occ. eigenvalues --  -10.31648 -10.31484 -10.31087 -10.30920 -10.30906
 Alpha  occ. eigenvalues --  -10.30649 -10.30510 -10.30179 -10.30166 -10.30103
 Alpha  occ. eigenvalues --  -10.30080 -10.29903 -10.29773 -10.29665 -10.29317
 Alpha  occ. eigenvalues --  -10.29254 -10.29153 -10.28772 -10.28595 -10.28577
 Alpha  occ. eigenvalues --  -10.28565 -10.28376 -10.28283 -10.28147 -10.27994
 Alpha  occ. eigenvalues --  -10.27857 -10.27826 -10.27728 -10.27670 -10.27612
 Alpha  occ. eigenvalues --  -10.27487 -10.27399 -10.27394 -10.27383 -10.27350
 Alpha  occ. eigenvalues --  -10.27323 -10.27262 -10.27256 -10.27212 -10.27170
 Alpha  occ. eigenvalues --  -10.26896 -10.26743 -10.26588 -10.26575 -10.26386
 Alpha  occ. eigenvalues --  -10.26260 -10.26134 -10.25936 -10.25934 -10.25886
 Alpha  occ. eigenvalues --  -10.25670 -10.25442 -10.25361 -10.25348 -10.24968
 Alpha  occ. eigenvalues --  -10.24947 -10.24856 -10.24715 -10.24581 -10.24527
 Alpha  occ. eigenvalues --  -10.21899  -3.16319  -3.16229  -1.91203  -1.91111
 Alpha  occ. eigenvalues --   -1.90794  -1.90700  -1.90636  -1.90537  -1.16662
 Alpha  occ. eigenvalues --   -1.16519  -1.08652  -1.08499  -1.06946  -1.06881
 Alpha  occ. eigenvalues --   -1.06817  -1.06681  -1.04608  -1.04327  -1.03841
 Alpha  occ. eigenvalues --   -1.03489  -1.03291  -1.02873  -1.02453  -1.01960
 Alpha  occ. eigenvalues --   -0.92093  -0.91880  -0.91673  -0.89334  -0.89187
 Alpha  occ. eigenvalues --   -0.89035  -0.88742  -0.88074  -0.87924  -0.87725
 Alpha  occ. eigenvalues --   -0.87602  -0.87511  -0.87189  -0.86989  -0.86183
 Alpha  occ. eigenvalues --   -0.84995  -0.84809  -0.83531  -0.83036  -0.82640
 Alpha  occ. eigenvalues --   -0.82553  -0.82404  -0.81634  -0.81444  -0.80579
 Alpha  occ. eigenvalues --   -0.80324  -0.78876  -0.78503  -0.77942  -0.77144
 Alpha  occ. eigenvalues --   -0.76904  -0.76639  -0.75957  -0.75728  -0.75437
 Alpha  occ. eigenvalues --   -0.74785  -0.73362  -0.72753  -0.72284  -0.71705
 Alpha  occ. eigenvalues --   -0.71666  -0.69893  -0.68966  -0.68703  -0.67634
 Alpha  occ. eigenvalues --   -0.67521  -0.67225  -0.67093  -0.66548  -0.65242
 Alpha  occ. eigenvalues --   -0.65080  -0.64858  -0.64593  -0.64543  -0.64418
 Alpha  occ. eigenvalues --   -0.63852  -0.62394  -0.62177  -0.60521  -0.60284
 Alpha  occ. eigenvalues --   -0.59848  -0.59659  -0.59047  -0.58924  -0.58645
 Alpha  occ. eigenvalues --   -0.58371  -0.58130  -0.57579  -0.57392  -0.57329
 Alpha  occ. eigenvalues --   -0.56971  -0.56478  -0.56141  -0.56023  -0.55828
 Alpha  occ. eigenvalues --   -0.55697  -0.55455  -0.55308  -0.55105  -0.54766
 Alpha  occ. eigenvalues --   -0.54188  -0.53941  -0.53787  -0.53733  -0.53177
 Alpha  occ. eigenvalues --   -0.53087  -0.53036  -0.52954  -0.52789  -0.52722
 Alpha  occ. eigenvalues --   -0.52572  -0.52357  -0.51969  -0.51624  -0.51571
 Alpha  occ. eigenvalues --   -0.51515  -0.51381  -0.51123  -0.50370  -0.50319
 Alpha  occ. eigenvalues --   -0.50241  -0.49894  -0.49843  -0.49727  -0.49700
 Alpha  occ. eigenvalues --   -0.49380  -0.49250  -0.49076  -0.49048  -0.49028
 Alpha  occ. eigenvalues --   -0.48878  -0.48582  -0.48446  -0.48383  -0.48275
 Alpha  occ. eigenvalues --   -0.48085  -0.47546  -0.47474  -0.47411  -0.47237
 Alpha  occ. eigenvalues --   -0.47003  -0.46774  -0.46692  -0.46501  -0.46436
 Alpha  occ. eigenvalues --   -0.46385  -0.46303  -0.46115  -0.45811  -0.45728
 Alpha  occ. eigenvalues --   -0.45663  -0.45419  -0.44672  -0.44561  -0.44465
 Alpha  occ. eigenvalues --   -0.44410  -0.44287  -0.44134  -0.44089  -0.43971
 Alpha  occ. eigenvalues --   -0.43892  -0.43804  -0.43590  -0.43526  -0.43435
 Alpha  occ. eigenvalues --   -0.43251  -0.42993  -0.42830  -0.42730  -0.42687
 Alpha  occ. eigenvalues --   -0.42453  -0.42315  -0.42159  -0.41737  -0.41616
 Alpha  occ. eigenvalues --   -0.41539  -0.41452  -0.41170  -0.41047  -0.40840
 Alpha  occ. eigenvalues --   -0.40699  -0.40634  -0.40595  -0.40496  -0.40399
 Alpha  occ. eigenvalues --   -0.40191  -0.40115  -0.40025  -0.38998  -0.38331
 Alpha  occ. eigenvalues --   -0.38278  -0.37899  -0.37608  -0.37537  -0.37208
 Alpha  occ. eigenvalues --   -0.37049  -0.37007  -0.36734  -0.36609  -0.36230
 Alpha  occ. eigenvalues --   -0.35837  -0.34321  -0.34210  -0.33816  -0.33730
 Alpha  occ. eigenvalues --   -0.33208  -0.33005  -0.31219  -0.31181  -0.30997
 Alpha  occ. eigenvalues --   -0.30931  -0.30162  -0.30038  -0.29795  -0.29389
 Alpha  occ. eigenvalues --   -0.29203  -0.29137  -0.29003  -0.24069  -0.23852
 Alpha  occ. eigenvalues --   -0.21209  -0.20925
 Alpha virt. eigenvalues --   -0.08805  -0.08616  -0.01880  -0.01541   0.00036
 Alpha virt. eigenvalues --    0.00102   0.02101   0.02422   0.03346   0.04564
 Alpha virt. eigenvalues --    0.04893   0.05044   0.05298   0.05459   0.06300

 Mulliken charges:
               1
     1  Mg   0.619595
     2  C    0.003297
     3  C   -0.092416
     4  C   -0.045724
     5  C   -0.064639
     6  N   -0.244527
     7  C   -0.052162
     8  C   -0.013337
     9  C   -0.086394
    10  C    0.048940
    11  C    0.105083
    12  C    0.052587
    13  C   -0.071666
    14  H    0.035935
    15  N   -0.445238
    16  C    0.179199
    17  C   -0.177146
    18  C   -0.000388
    19  C    0.137385
    20  C    0.111261
    21  C    0.022530
    22  O   -0.247811
    23  C    0.061115
    24  N   -0.322230
    25  C    0.040443
    26  C   -0.025759
    27  C   -0.026349
    28  C    0.048835
    29  C    0.078991
    30  C    0.126570
    31  C   -0.063329
    32  N   -0.303726
    33  C    0.078984
    34  C   -0.173882
    35  C    0.008679
    36  C    0.077308
    37  C    0.127630
    38  C    0.045782
    39  O   -0.188347
    40  C   -0.009665
    41  C    0.212897
    42  O   -0.257898
    43  O   -0.304675
    44  C    0.157526
    45  H   -0.018640
    46  H   -0.016680
    47  H   -0.043041
    48  H    0.000510
    49  H   -0.004411
    50  H    0.025659
    51  H    0.016936
    52  H    0.016702
    53  H    0.012178
    54  H    0.044514
    55  H    0.018079
    56  H    0.017814
    57  H    0.005093
    58  H    0.027119
    59  H    0.041718
    60  H    0.033317
    61  H    0.037574
    62  H    0.038761
    63  H    0.017261
    64  H    0.007515
    65  H    0.023371
    66  H    0.012444
    67  H    0.005161
    68  H   -0.009047
    69  H   -0.009911
    70  H   -0.000863
    71  H    0.024824
    72  H    0.035155
    73  H    0.046125
    74  H    0.008209
    75  H    0.046835
    76  H    0.035436
    77  H    0.043280
    78  H    0.046327
    79  H    0.053792
    80  Mg   0.838749
    81  C   -0.017395
    82  C   -0.087847
    83  C   -0.048671
    84  C   -0.062796
    85  N   -0.254506
    86  C   -0.048831
    87  C   -0.015238
    88  C   -0.090405
    89  C    0.045211
    90  C    0.114619
    91  C    0.062535
    92  C   -0.077635
    93  H    0.034542
    94  N   -0.422586
    95  C    0.161634
    96  C   -0.176184
    97  C   -0.009483
    98  C    0.150120
    99  C    0.100078
   100  C    0.013809
   101  O   -0.254656
   102  C    0.061112
   103  N   -0.350113
   104  C    0.040455
   105  C   -0.009381
   106  C   -0.035352
   107  C    0.101505
   108  C    0.064719
   109  C    0.019644
   110  C    0.041330
   111  N   -0.325018
   112  C    0.079433
   113  C   -0.159975
   114  C    0.002183
   115  C    0.097571
   116  C    0.132787
   117  C    0.043324
   118  O   -0.186962
   119  C    0.000733
   120  C    0.211184
   121  O   -0.251327
   122  O   -0.305528
   123  C    0.152117
   124  H   -0.020845
   125  H   -0.016568
   126  H   -0.036676
   127  H   -0.000662
   128  H   -0.004937
   129  H    0.022709
   130  H    0.014256
   131  H    0.015291
   132  H    0.013946
   133  H    0.037604
   134  H    0.020697
   135  H    0.019341
   136  H    0.008162
   137  H    0.023771
   138  H    0.038939
   139  H    0.036673
   140  H    0.035580
   141  H    0.034641
   142  H    0.013698
   143  H    0.038664
   144  H    0.129171
   145  H    0.029118
   146  H    0.030159
   147  H   -0.003432
   148  H    0.004933
   149  H    0.013945
   150  H    0.010511
   151  H    0.019724
   152  H    0.044456
   153  H    0.009586
   154  H    0.053700
   155  H    0.035472
   156  H    0.043842
   157  H    0.049236
   158  H    0.053413
 Sum of Mulliken charges =  -0.00000

 Dipole moment (field-independent basis, Debye):
    X=              1.3133    Y=              5.3773    Z=             -6.7400  Tot=              8.7217
 Quadrupole moment (field-independent basis, Debye-Ang):
   XX=           -480.2738   YY=           -548.2794   ZZ=           -468.6255
   XY=            -30.9063   XZ=             16.4844   YZ=            -11.2967

 Normal termination of Gaussian 16 at Thu Sep  9 10:19:34 2021.
