 Gaussian 16, Revision A.03,
 Gaussian 16:  ES64L-G16RevA.03 25-Dec-2016

 -----------------------------------
 #p cam-b3lyp/Def2SVP td=(nstates=5)
 -----------------------------------

 --------------------------------
 TDDFT excited states in gaussian
 --------------------------------
 Symbolic Z-matrix:
 Charge =  0 Multiplicity = 1

                         Standard orientation:
 ---------------------------------------------------------------------
 Center     Atomic      Atomic             Coordinates (Angstroms)
 Number     Number       Type             X           Y           Z
 ---------------------------------------------------------------------
      1         12           0        3.396410   -1.550817    0.528537
      2          6           0        4.548988    1.458573   -1.029458
      3          6           0        4.257741   -0.155206    3.520768
      4          6           0        2.811868   -4.358162    1.882696
      5          6           0        3.692348   -3.098559   -2.579931
      6          7           0        4.280657    0.410475    1.050156
      7          6           0        4.620159    1.497783    0.364831
      8          6           0        4.987371    2.710159    1.271845
      9          6           0        5.402489    1.919694    2.592768
     10          6           0        4.571164    0.664274    2.395935
     11          6           0        6.876951    1.531238    2.632328
     12          6           0        3.763619    3.652547    1.528882
     13          6           0        4.106360    5.020180    2.126764
     14          1           0        3.328130    6.179006    1.715877
     15          7           0        3.056529   -2.015740    2.418293
     16          6           0        3.467494   -1.324922    3.508782
     17          6           0        2.964903   -2.075143    4.679787
     18          6           0        2.391763   -3.358176    4.186400
     19          6           0        2.758782   -3.306355    2.794283
     20          6           0        3.011212   -1.543405    6.079380
     21          6           0        1.642748   -4.461511    4.864456
     22          8           0        1.439115   -5.591328    4.301764
     23          6           0        1.224905   -4.213321    6.256164
     24          7           0        3.476939   -3.513040   -0.179158
     25          6           0        3.117534   -4.541665    0.596562
     26          6           0        2.984979   -5.805874   -0.199770
     27          6           0        3.093332   -5.375535   -1.733661
     28          6           0        3.366295   -3.864018   -1.535982
     29          6           0        4.022685   -6.896777    0.098738
     30          6           0        1.931318   -5.799354   -2.666678
     31          6           0        0.668997   -5.060476   -2.282356
     32          7           0        3.836793   -0.918604   -1.500604
     33          6           0        3.930128   -1.735434   -2.636716
     34          6           0        4.354348   -0.873182   -3.755030
     35          6           0        4.495275    0.390334   -3.184494
     36          6           0        4.204544    0.316461   -1.792262
     37          6           0        4.614651   -1.302736   -5.086256
     38          6           0        4.847711    1.780712   -3.422178
     39          8           0        5.092504    2.454149   -4.424202
     40          6           0        5.014797    2.503221   -2.012961
     41          6           0        4.254592    3.800009   -2.074096
     42          8           0        3.009976    3.808282   -2.164801
     43          8           0        5.081732    4.814540   -1.778953
     44          6           0        4.383379    6.127651   -1.793025
     45          1           0        4.703803    0.083370    4.488265
     46          1           0        2.508832   -5.326544    2.286234
     47          1           0        3.723656   -3.494650   -3.596585
     48          1           0        5.827446    3.306485    0.915344
     49          1           0        5.089697    2.443595    3.495770
     50          1           0        7.371867    1.749085    1.686007
     51          1           0        6.890329    0.459405    2.831046
     52          1           0        7.378256    1.999391    3.479855
     53          1           0        3.158214    3.243024    2.337484
     54          1           0        3.186294    3.793284    0.614434
     55          1           0        5.173586    5.231192    2.053213
     56          1           0        3.910779    4.983129    3.198480
     57          1           0        3.636537   -0.654251    6.149506
     58          1           0        3.527750   -2.287258    6.685663
     59          1           0        2.014696   -1.366671    6.484414
     60          1           0        2.105579   -4.008299    6.865202
     61          1           0        0.625519   -5.074838    6.548353
     62          1           0        0.614613   -3.310210    6.285872
     63          1           0        2.017737   -6.276467   -0.028272
     64          1           0        3.982239   -5.787292   -2.212173
     65          1           0        3.583484   -7.848864    0.397632
     66          1           0        4.697317   -6.519118    0.866551
     67          1           0        4.715898   -7.103497   -0.716210
     68          1           0        1.725970   -6.863670   -2.557095
     69          1           0        2.133609   -5.607394   -3.720471
     70          1           0        0.272400   -5.664037   -1.466724
     71          1           0       -0.026445   -5.033347   -3.121901
     72          1           0        0.893076   -4.073163   -1.878021
     73          1           0        4.157193   -0.561126   -5.741020
     74          1           0        4.207252   -2.296960   -5.268323
     75          1           0        5.704448   -1.290371   -5.092973
     76          1           0        6.082814    2.661292   -1.866417
     77          1           0        4.922817    6.770650   -2.488578
     78          1           0        4.312821    6.452238   -0.754724
     79          1           0        3.386008    6.138480   -2.234016
     80         12           0       -4.254434    0.337218   -0.472025
     81          6           0       -1.329464    2.376752   -0.067223
     82          6           0       -5.892436    2.548041    1.543865
     83          6           0       -6.714129   -1.666855   -0.440158
     84          6           0       -2.143281   -2.247965   -1.474801
     85          7           0       -3.589458    2.185363    0.545033
     86          6           0       -2.472203    2.896075    0.576125
     87          6           0       -2.607651    4.277241    1.271536
     88          6           0       -3.873590    3.953362    2.205000
     89          6           0       -4.518415    2.850291    1.368266
     90          6           0       -3.492149    3.368018    3.554525
     91          6           0       -2.923553    5.429909    0.254886
     92          6           0       -2.763925    6.844426    0.816517
     93          1           0       -2.265625    7.892931   -0.069383
     94          7           0       -6.157123    0.646692   -0.000242
     95          6           0       -6.648129    1.603855    0.814649
     96          6           0       -8.103771    1.394084    0.850238
     97          6           0       -8.414116    0.134351    0.121219
     98          6           0       -7.075975   -0.365909   -0.122103
     99          6           0       -9.053628    2.382667    1.461694
    100          6           0       -9.702376   -0.519172   -0.278177
    101          8           0       -9.741753   -1.730081   -0.696487
    102          6           0      -10.927181    0.268746   -0.076860
    103          7           0       -4.395484   -1.725456   -0.690715
    104          6           0       -5.591080   -2.340656   -0.689289
    105          6           0       -5.465619   -3.777723   -1.135925
    106          6           0       -3.966633   -3.931856   -1.671525
    107          6           0       -3.434693   -2.519143   -1.344912
    108          6           0       -5.733697   -4.833455   -0.063570
    109          6           0       -3.787702   -4.473280   -3.116348
    110          6           0       -4.309991   -3.464556   -4.113883
    111          7           0       -2.149078    0.129966   -0.910868
    112          6           0       -1.468505   -1.048178   -1.288880
    113          6           0       -0.031150   -0.715415   -1.364526
    114          6           0        0.027786    0.638155   -1.000035
    115          6           0       -1.278141    1.109985   -0.697622
    116          6           0        1.017173   -1.623355   -1.685129
    117          6           0        0.899059    1.772322   -0.792046
    118          8           0        2.095009    1.994393   -0.976761
    119          6           0        0.074437    2.914867   -0.056528
    120          6           0        0.333596    4.210650   -0.775072
    121          8           0       -0.051905    4.371912   -1.946397
    122          8           0        0.797180    5.117179    0.104501
    123          6           0        1.058760    6.422377   -0.558711
    124          1           0       -6.436097    3.050803    2.344198
    125          1           0       -7.540704   -2.372654   -0.550179
    126          1           0       -1.431854   -2.973382   -1.875200
    127          1           0       -1.759439    4.563793    1.881619
    128          1           0       -4.537152    4.810737    2.282090
    129          1           0       -2.435197    3.155774    3.617406
    130          1           0       -4.067530    2.456838    3.653193
    131          1           0       -3.829838    4.026402    4.360025
    132          1           0       -4.000020    5.433241    0.040533
    133          1           0       -2.333412    5.325625   -0.634769
    134          1           0       -2.215761    6.851315    1.766469
    135          1           0       -3.753534    7.228763    1.075324
    136          1           0       -8.523454    3.129252    2.065791
    137          1           0       -9.665563    1.832887    2.184983
    138          1           0       -9.710883    2.847292    0.723582
    139          1           0      -11.016378    0.535548    0.973528
    140          1           0      -11.733700   -0.330687   -0.503556
    141          1           0      -10.834345    1.208049   -0.633373
    142          1           0       -6.151995   -3.992294   -1.945839
    143          1           0       -3.385272   -4.636077   -1.058397
    144          1           0       -6.535818   -5.543284   -0.340772
    145          1           0       -5.977032   -4.326828    0.860909
    146          1           0       -4.870099   -5.431963    0.221354
    147          1           0       -4.378066   -5.382187   -3.256001
    148          1           0       -2.759372   -4.716240   -3.362303
    149          1           0       -5.384801   -3.668416   -4.131277
    150          1           0       -3.861774   -3.625849   -5.092207
    151          1           0       -4.174570   -2.440837   -3.746023
    152          1           0        1.678891   -1.106509   -2.367409
    153          1           0        0.628866   -2.539898   -2.124386
    154          1           0        1.440199   -1.791667   -0.691157
    155          1           0        0.412051    2.946946    0.980078
    156          1           0        2.101497    6.682475   -0.352016
    157          1           0        0.282465    7.112105   -0.177419
    158          1           0        1.045764    6.445560   -1.642106
 ---------------------------------------------------------------------

 SCF Done:  E(RCAM-B3LYP) =  -4069.77866339     A.U. after   18 cycles

 Excitation energies and oscillator strengths:

 Excited State   1:      Singlet-A      1.6108 eV  769.73 nm  f=0.3322  <S**2>=0.000
     309 -> 315        0.11945
     310 -> 316       -0.10001
     311 -> 313        0.43874
     311 -> 314        0.15938
     312 -> 313        0.31033
     312 -> 314       -0.39970
 This state for optimization and/or second-order correction.
 Total Energy, E(TD-HF/TD-DFT) =  -4069.71946938
 Copying the excited state density for this state as the 1-particle RhoCI density.

 Excited State   2:      Singlet-A      1.6936 eV  732.08 nm  f=0.4780  <S**2>=0.000
     309 -> 315        0.11568
     310 -> 316        0.13073
     311 -> 313        0.43426
     312 -> 314        0.51529

 Excited State   3:      Singlet-A      2.0274 eV  611.53 nm  f=0.0004  <S**2>=0.000
     311 -> 313       -0.29232
     312 -> 313        0.62093
     312 -> 314        0.13511

 Excited State   4:      Singlet-A      2.0915 eV  592.81 nm  f=0.0504  <S**2>=0.000
     309 -> 313       -0.14549
     310 -> 313       -0.11778
     310 -> 314        0.61357
     311 -> 314        0.14394
     312 -> 316       -0.21973

 Excited State   5:      Singlet-A      2.1804 eV  568.62 nm  f=0.1159  <S**2>=0.000
     309 -> 313        0.62182
     310 -> 314        0.12496
     311 -> 315       -0.24643

 The electronic state is 1-A.
 Alpha  occ. eigenvalues --  -46.87571 -46.87007 -19.26179 -19.25564 -19.18640
 Alpha  occ. eigenvalues --  -19.18526 -19.18292 -19.18071 -19.17881 -19.17374
 Alpha  occ. eigenvalues --  -14.42425 -14.41684 -14.41253 -14.40614 -14.39269
 Alpha  occ. eigenvalues --  -14.38675 -14.38521 -14.37408 -10.38644 -10.37964
 Alpha  occ. eigenvalues --  -10.35319 -10.34940 -10.34034 -10.33567 -10.31671
 Alpha  occ. eigenvalues --  -10.31560 -10.31242 -10.30950 -10.30578 -10.30315
 Alpha  occ. eigenvalues --  -10.30283 -10.30031 -10.29837 -10.29819 -10.29795
 Alpha  occ. eigenvalues --  -10.29717 -10.29547 -10.29355 -10.29324 -10.29287
 Alpha  occ. eigenvalues --  -10.28991 -10.28677 -10.28630 -10.28375 -10.28332
 Alpha  occ. eigenvalues --  -10.28114 -10.27993 -10.27882 -10.27799 -10.27604
 Alpha  occ. eigenvalues --  -10.27412 -10.27392 -10.27388 -10.27369 -10.27367
 Alpha  occ. eigenvalues --  -10.27243 -10.27226 -10.27184 -10.27083 -10.27063
 Alpha  occ. eigenvalues --  -10.27016 -10.26953 -10.26951 -10.26921 -10.26681
 Alpha  occ. eigenvalues --  -10.26613 -10.26355 -10.26307 -10.26208 -10.26057
 Alpha  occ. eigenvalues --  -10.26044 -10.26022 -10.25774 -10.25691 -10.25631
 Alpha  occ. eigenvalues --  -10.25597 -10.25321 -10.25248 -10.25232 -10.25089
 Alpha  occ. eigenvalues --  -10.24962 -10.24905 -10.24641 -10.24595 -10.24038
 Alpha  occ. eigenvalues --  -10.23993  -3.16321  -3.15759  -1.91203  -1.90792
 Alpha  occ. eigenvalues --   -1.90656  -1.90629  -1.90222  -1.90063  -1.16317
 Alpha  occ. eigenvalues --   -1.15883  -1.08977  -1.07807  -1.06893  -1.06707
 Alpha  occ. eigenvalues --   -1.06378  -1.05625  -1.04421  -1.03733  -1.03578
 Alpha  occ. eigenvalues --   -1.03021  -1.02946  -1.02484  -1.02030  -1.01603
 Alpha  occ. eigenvalues --   -0.91902  -0.91134  -0.89385  -0.89127  -0.89110
 Alpha  occ. eigenvalues --   -0.88397  -0.88109  -0.87880  -0.87800  -0.87606
 Alpha  occ. eigenvalues --   -0.87112  -0.87051  -0.86943  -0.86693  -0.84941
 Alpha  occ. eigenvalues --   -0.84291  -0.83760  -0.83655  -0.82853  -0.82588
 Alpha  occ. eigenvalues --   -0.82519  -0.82067  -0.81531  -0.81005  -0.80409
 Alpha  occ. eigenvalues --   -0.79907  -0.78621  -0.78152  -0.77169  -0.76864
 Alpha  occ. eigenvalues --   -0.76704  -0.76297  -0.75788  -0.75301  -0.74715
 Alpha  occ. eigenvalues --   -0.74430  -0.72726  -0.72072  -0.71512  -0.71012
 Alpha  occ. eigenvalues --   -0.69843  -0.69612  -0.68778  -0.68226  -0.67575
 Alpha  occ. eigenvalues --   -0.67149  -0.66974  -0.66510  -0.65239  -0.64727
 Alpha  occ. eigenvalues --   -0.64598  -0.64587  -0.64232  -0.64122  -0.64081
 Alpha  occ. eigenvalues --   -0.63667  -0.62194  -0.61692  -0.60279  -0.59928
 Alpha  occ. eigenvalues --   -0.59789  -0.59063  -0.58920  -0.58489  -0.58316
 Alpha  occ. eigenvalues --   -0.57855  -0.57788  -0.57149  -0.56854  -0.56685
 Alpha  occ. eigenvalues --   -0.56397  -0.56159  -0.55649  -0.55613  -0.55267
 Alpha  occ. eigenvalues --   -0.55114  -0.54928  -0.54795  -0.54369  -0.54055
 Alpha  occ. eigenvalues --   -0.53809  -0.53576  -0.53221  -0.53099  -0.52906
 Alpha  occ. eigenvalues --   -0.52814  -0.52712  -0.52628  -0.52543  -0.52409
 Alpha  occ. eigenvalues --   -0.52273  -0.52235  -0.52143  -0.51550  -0.51442
 Alpha  occ. eigenvalues --   -0.51075  -0.50999  -0.50598  -0.50409  -0.50135
 Alpha  occ. eigenvalues --   -0.50090  -0.49950  -0.49746  -0.49573  -0.49434
 Alpha  occ. eigenvalues --   -0.49327  -0.49199  -0.48879  -0.48797  -0.48503
 Alpha  occ. eigenvalues --   -0.48448  -0.48334  -0.48306  -0.48014  -0.47856
 Alpha  occ. eigenvalues --   -0.47669  -0.47552  -0.47297  -0.47015  -0.46820
 Alpha  occ. eigenvalues --   -0.46749  -0.46648  -0.46477  -0.46210  -0.45992
 Alpha  occ. eigenvalues --   -0.45982  -0.45772  -0.45621  -0.45477  -0.45150
 Alpha  occ. eigenvalues --   -0.45104  -0.44783  -0.44518  -0.44431  -0.44143
 Alpha  occ. eigenvalues --   -0.44044  -0.43972  -0.43881  -0.43758  -0.43540
 Alpha  occ. eigenvalues --   -0.43490  -0.43409  -0.43345  -0.42965  -0.42879
 Alpha  occ. eigenvalues --   -0.42769  -0.42675  -0.42503  -0.42423  -0.42233
 Alpha  occ. eigenvalues --   -0.42104  -0.41897  -0.41816  -0.41556  -0.41418
 Alpha  occ. eigenvalues --   -0.41238  -0.40922  -0.40785  -0.40752  -0.40653
 Alpha  occ. eigenvalues --   -0.40613  -0.40445  -0.40353  -0.40220  -0.40171
 Alpha  occ. eigenvalues --   -0.40141  -0.39883  -0.39532  -0.39350  -0.39184
 Alpha  occ. eigenvalues --   -0.38242  -0.37984  -0.37584  -0.37186  -0.37132
 Alpha  occ. eigenvalues --   -0.37125  -0.36711  -0.36503  -0.36289  -0.35957
 Alpha  occ. eigenvalues --   -0.35822  -0.35516  -0.34183  -0.33542  -0.33402
 Alpha  occ. eigenvalues --   -0.33004  -0.32811  -0.32157  -0.31196  -0.30865
 Alpha  occ. eigenvalues --   -0.30815  -0.30141  -0.29663  -0.29225  -0.29177
 Alpha  occ. eigenvalues --   -0.28812  -0.28694  -0.28404  -0.23940  -0.22920
 Alpha  occ. eigenvalues --   -0.21089  -0.20364
 Alpha virt. eigenvalues --   -0.08746  -0.08032  -0.01622  -0.01037   0.00003
 Alpha virt. eigenvalues --    0.00672   0.02073   0.02899   0.03312   0.04681
 Alpha virt. eigenvalues --    0.04811   0.05372   0.05410   0.06102   0.06580

 Mulliken charges:
               1
     1  Mg   0.709546
     2  C    0.081325
     3  C   -0.094687
     4  C   -0.051112
     5  C   -0.053320
     6  N   -0.248858
     7  C   -0.060221
     8  C   -0.015722
     9  C   -0.085504
    10  C    0.045219
    11  C    0.106254
    12  C    0.045102
    13  C   -0.066858
    14  H    0.026465
    15  N   -0.421414
    16  C    0.169662
    17  C   -0.179807
    18  C   -0.006659
    19  C    0.153109
    20  C    0.110749
    21  C    0.010942
    22  O   -0.252147
    23  C    0.063221
    24  N   -0.331671
    25  C    0.042684
    26  C   -0.026316
    27  C   -0.024386
    28  C    0.064524
    29  C    0.077994
    30  C    0.061733
    31  C   -0.020014
    32  N   -0.311418
    33  C    0.048111
    34  C   -0.170953
    35  C    0.010474
    36  C    0.081147
    37  C    0.128318
    38  C    0.049751
    39  O   -0.188856
    40  C   -0.019152
    41  C    0.211799
    42  O   -0.230768
    43  O   -0.307355
    44  C    0.153363
    45  H   -0.020560
    46  H   -0.020553
    47  H   -0.048655
    48  H   -0.003466
    49  H   -0.007663
    50  H    0.024905
    51  H    0.015351
    52  H    0.013542
    53  H    0.006282
    54  H    0.054291
    55  H    0.015072
    56  H    0.013802
    57  H    0.004652
    58  H    0.025230
    59  H    0.036670
    60  H    0.036621
    61  H    0.033566
    62  H    0.030072
    63  H    0.012689
    64  H    0.009006
    65  H    0.021145
    66  H    0.013368
    67  H    0.003566
    68  H    0.004077
    69  H    0.001561
    70  H    0.006207
    71  H    0.024794
    72  H    0.011714
    73  H    0.045378
    74  H    0.005444
    75  H    0.044171
    76  H    0.031285
    77  H    0.041036
    78  H    0.053441
    79  H    0.044775
    80  Mg   0.839018
    81  C   -0.018129
    82  C   -0.088068
    83  C   -0.045781
    84  C   -0.060471
    85  N   -0.254380
    86  C   -0.052272
    87  C   -0.014301
    88  C   -0.090411
    89  C    0.045870
    90  C    0.114682
    91  C    0.062777
    92  C   -0.077254
    93  H    0.034690
    94  N   -0.423443
    95  C    0.163047
    96  C   -0.174838
    97  C   -0.007819
    98  C    0.152231
    99  C    0.099474
   100  C    0.015531
   101  O   -0.253133
   102  C    0.061217
   103  N   -0.349919
   104  C    0.038640
   105  C   -0.020561
   106  C   -0.033327
   107  C    0.085919
   108  C    0.073254
   109  C    0.033570
   110  C   -0.007356
   111  N   -0.323913
   112  C    0.081432
   113  C   -0.182359
   114  C    0.008784
   115  C    0.099380
   116  C    0.194373
   117  C    0.065538
   118  O   -0.157906
   119  C   -0.002094
   120  C    0.234539
   121  O   -0.242320
   122  O   -0.314655
   123  C    0.161484
   124  H   -0.020266
   125  H   -0.015539
   126  H   -0.051083
   127  H   -0.002223
   128  H   -0.004561
   129  H    0.021023
   130  H    0.014536
   131  H    0.015433
   132  H    0.013836
   133  H    0.039538
   134  H    0.019361
   135  H    0.019237
   136  H    0.008411
   137  H    0.025881
   138  H    0.039698
   139  H    0.038061
   140  H    0.036280
   141  H    0.033858
   142  H    0.014011
   143  H    0.015240
   144  H    0.024618
   145  H    0.011698
   146  H    0.007527
   147  H    0.005613
   148  H    0.002719
   149  H    0.010889
   150  H    0.016645
   151  H    0.030486
   152  H    0.066690
   153  H    0.013344
   154  H    0.061927
   155  H    0.028916
   156  H    0.011445
   157  H    0.044250
   158  H    0.064648
 Sum of Mulliken charges =  -0.00000

 Dipole moment (field-independent basis, Debye):
    X=             -1.5866    Y=              2.7667    Z=              6.1309  Tot=              6.9108
 Quadrupole moment (field-independent basis, Debye-Ang):
   XX=           -507.8481   YY=           -483.9611   ZZ=           -506.0169
   XY=            -25.6431   XZ=              8.6450   YZ=             47.8381

 Normal termination of Gaussian 16 at Thu Sep  9 02:48:02 2021.
