 Gaussian 16, Revision A.03,
 Gaussian 16:  ES64L-G16RevA.03 25-Dec-2016

 -----------------------------------
 #p cam-b3lyp/Def2SVP td=(nstates=5)
 -----------------------------------

 --------------------------------
 TDDFT excited states in gaussian
 --------------------------------
 Symbolic Z-matrix:
 Charge =  0 Multiplicity = 1

                         Standard orientation:
 ---------------------------------------------------------------------
 Center     Atomic      Atomic             Coordinates (Angstroms)
 Number     Number       Type             X           Y           Z
 ---------------------------------------------------------------------
      1         12           0      -15.792573   -0.707094    0.312095
      2          6           0      -15.997569    2.777395   -0.480702
      3          6           0      -16.718165   -1.342342   -2.910141
      4          6           0      -16.060297   -3.765474    1.106612
      5          6           0      -16.000685    0.196079    3.671653
      6          7           0      -16.267746    0.631824   -1.385596
      7          6           0      -16.250700    1.947480   -1.575147
      8          6           0      -16.452739    2.359851   -3.063940
      9          6           0      -17.217085    1.060681   -3.583490
     10          6           0      -16.676323    0.047252   -2.590283
     11          6           0      -18.732146    1.141714   -3.426886
     12          6           0      -15.093537    2.563293   -3.814216
     13          6           0      -15.193532    3.277189   -5.165404
     14          1           0      -14.121296    4.176908   -5.563104
     15          7           0      -15.833900   -2.325906   -0.819537
     16          6           0      -16.223010   -2.398595   -2.115144
     17          6           0      -16.073141   -3.816639   -2.506769
     18          6           0      -15.746293   -4.595377   -1.280053
     19          6           0      -15.894799   -3.584450   -0.264499
     20          6           0      -16.190254   -4.296510   -3.920898
     21          6           0      -15.371445   -6.026440   -1.057164
     22          8           0      -15.355898   -6.551899    0.108265
     23          6           0      -15.105205   -6.831289   -2.263140
     24          7           0      -16.221319   -1.674528    2.111507
     25          6           0      -16.218297   -3.009442    2.195051
     26          6           0      -16.269578   -3.467304    3.622521
     27          6           0      -16.062498   -2.158916    4.514144
     28          6           0      -16.006759   -1.106476    3.379449
     29          6           0      -17.560657   -4.178063    4.051411
     30          6           0      -14.910482   -2.188751    5.549705
     31          6           0      -13.578397   -2.224334    4.834596
     32          7           0      -15.790416    1.148261    1.438459
     33          6           0      -15.909711    1.290895    2.828459
     34          6           0      -15.965729    2.736939    3.111103
     35          6           0      -15.891330    3.338594    1.856383
     36          6           0      -15.821391    2.331648    0.851665
     37          6           0      -16.130115    3.329529    4.394164
     38          6           0      -15.879472    4.597475    1.129104
     39          8           0      -15.822001    5.784911    1.451885
     40          6           0      -16.070596    4.282902   -0.420200
     41          6           0      -15.032679    5.068123   -1.174828
     42          8           0      -13.819039    4.802192   -1.057678
     43          8           0      -15.638224    5.842533   -2.088145
     44          6           0      -14.662695    6.626421   -2.891896
     45          1           0      -17.227591   -1.658871   -3.822410
     46          1           0      -16.046126   -4.807253    1.433619
     47          1           0      -15.980443    0.554632    4.702421
     48          1           0      -17.076071    3.242103   -3.210605
     49          1           0      -16.921078    0.792634   -4.597518
     50          1           0      -19.027734    2.027264   -2.864438
     51          1           0      -19.018093    0.236871   -2.890242
     52          1           0      -19.225567    1.083067   -4.397388
     53          1           0      -14.716277    1.595110   -4.143394
     54          1           0      -14.378135    3.088950   -3.180806
     55          1           0      -16.163240    3.759844   -5.290378
     56          1           0      -15.162345    2.524001   -5.952763
     57          1           0      -16.598835   -3.525489   -4.572920
     58          1           0      -16.942442   -5.085096   -3.928270
     59          1           0      -15.245884   -4.685685   -4.301738
     60          1           0      -15.991297   -6.831868   -2.898270
     61          1           0      -14.765579   -7.803248   -1.907053
     62          1           0      -14.314496   -6.351310   -2.840503
     63          1           0      -15.469248   -4.174871    3.835237
     64          1           0      -16.946816   -1.923715    5.106880
     65          1           0      -17.397037   -5.178083    4.453771
     66          1           0      -18.230734   -4.206860    3.192657
     67          1           0      -18.162771   -3.633043    4.777930
     68          1           0      -14.971598   -3.089838    6.159012
     69          1           0      -14.915144   -1.331855    6.223469
     70          1           0      -13.447733   -3.283546    4.615896
     71          1           0      -12.785607   -1.860068    5.488818
     72          1           0      -13.624299   -1.697967    3.881016
     73          1           0      -15.428634    4.162604    4.437531
     74          1           0      -15.940024    2.609778    5.190045
     75          1           0      -17.176341    3.630917    4.344848
     76          1           0      -17.083741    4.588575   -0.679471
     77          1           0      -14.938618    7.676657   -2.796474
     78          1           0      -14.664502    6.191611   -3.891567
     79          1           0      -13.638061    6.648150   -2.519080
     80         12           0       15.961442   -0.788743   -0.172547
     81          6           0       15.782805    2.582063    1.046012
     82          6           0       15.041531    0.424372   -3.224877
     83          6           0       15.671149   -3.787943   -1.166495
     84          6           0       15.741167   -1.850432    3.139546
     85          7           0       15.500569    1.257750   -0.873778
     86          6           0       15.525852    2.467989   -0.336160
     87          6           0       15.340120    3.627006   -1.351901
     88          6           0       14.560790    2.818272   -2.499711
     89          6           0       15.089011    1.414538   -2.211263
     90          6           0       13.052875    2.809205   -2.311477
     91          6           0       16.708792    4.189446   -1.873833
     92          6           0       16.612908    5.518316   -2.626594
     93          1           0       17.699478    6.482522   -2.477807
     94          7           0       15.915564   -1.533497   -2.011514
     95          6           0       15.537473   -0.895079   -3.138788
     96          6           0       15.663139   -1.882643   -4.221879
     97          6           0       15.988490   -3.203023   -3.617330
     98          6           0       15.847444   -2.890229   -2.209371
     99          6           0       15.556497   -1.516117   -5.673676
    100          6           0       16.352249   -4.531106   -4.208995
    101          8           0       16.360847   -5.602211   -3.505081
    102          6           0       16.607195   -4.556141   -5.656709
    103          7           0       15.526133   -2.565587    0.815214
    104          6           0       15.513284   -3.737612    0.156325
    105          6           0       15.450199   -4.902065    1.115730
    106          6           0       15.668259   -4.273011    2.569800
    107          6           0       15.733515   -2.777089    2.191174
    108          6           0       14.151314   -5.707688    1.099585
    109          6           0       16.816757   -4.868712    3.429318
    110          6           0       18.153474   -4.535488    2.806798
    111          7           0       15.977828    0.159065    1.768963
    112          6           0       15.847396   -0.470103    3.026427
    113          6           0       15.801442    0.598629    4.045314
    114          6           0       15.885850    1.785666    3.302143
    115          6           0       15.957560    1.479033    1.916380
    116          6           0       15.646886    0.405512    5.447072
    117          6           0       15.919878    3.228708    3.374115
    118          8           0       15.977834    4.051831    4.286720
    119          6           0       15.727242    3.812472    1.908334
    120          6           0       16.773921    4.870098    1.688319
    121          8           0       17.979955    4.568479    1.654879
    122          8           0       16.170799    6.020927    1.338721
    123          6           0       17.168438    7.097517    1.098960
    124          1           0       14.539471    0.665223   -4.162327
    125          1           0       15.676019   -4.843699   -1.447253
    126          1           0       15.772063   -2.102443    4.201721
    127          1           0       14.730188    4.448949   -0.996698
    128          1           0       14.866862    3.144777   -3.490200
    129          1           0       12.761802    3.249498   -1.369368
    130          1           0       12.757864    1.768753   -2.350037
    131          1           0       12.563899    3.292825   -3.161977
    132          1           0       17.077424    3.542759   -2.680470
    133          1           0       17.414874    4.278880   -1.071292
    134          1           0       15.642354    6.007095   -2.478051
    135          1           0       16.648133    5.312857   -3.699239
    136          1           0       15.149129   -0.506022   -5.804657
    137          1           0       14.799468   -2.173600   -6.114689
    138          1           0       16.497302   -1.649499   -6.211978
    139          1           0       15.725210   -4.201768   -6.184889
    140          1           0       16.938947   -5.572545   -5.877477
    141          1           0       17.413992   -3.849837   -5.882125
    142          1           0       16.244771   -5.610668    0.916622
    143          1           0       14.779184   -4.397838    3.205265
    144          1           0       14.307306   -6.783145    0.891909
    145          1           0       13.487848   -5.270886    0.365049
    146          1           0       13.558941   -5.647080    2.010973
    147          1           0       16.747473   -5.959074    3.450600
    148          1           0       16.808839   -4.525370    4.458417
    149          1           0       18.271364   -5.311963    2.045033
    150          1           0       18.946179   -4.588428    3.550330
    151          1           0       18.117058   -3.569476    2.289934
    152          1           0       16.347306    1.072194    5.932303
    153          1           0       15.823690   -0.630766    5.727528
    154          1           0       14.598469    0.690550    5.568795
    155          1           0       14.716520    4.217817    1.847362
    156          1           0       16.896692    7.935338    1.748508
    157          1           0       17.154026    7.280618    0.008084
    158          1           0       18.190143    6.912185    1.409125
 ---------------------------------------------------------------------

 SCF Done:  E(RCAM-B3LYP) =  -4069.81176999     A.U. after   19 cycles

 Excitation energies and oscillator strengths:

 Excited State   1:      Singlet-A      1.6754 eV  740.04 nm  f=0.2565  <S**2>=0.000
     310 -> 316        0.16981
     311 -> 314       -0.14138
     312 -> 313        0.67133
     310 <- 316        0.10236
 This state for optimization and/or second-order correction.
 Total Energy, E(TD-HF/TD-DFT) =  -4069.75020098
 Copying the excited state density for this state as the 1-particle RhoCI density.

 Excited State   2:      Singlet-A      1.6800 eV  737.99 nm  f=0.5206  <S**2>=0.000
     309 -> 315        0.17184
     311 -> 314        0.67096
     312 -> 313        0.14133
     309 <- 315        0.10289

 Excited State   3:      Singlet-A      2.1861 eV  567.16 nm  f=0.0969  <S**2>=0.000
     310 -> 313        0.64218
     312 -> 316       -0.27295

 Excited State   4:      Singlet-A      2.1925 eV  565.48 nm  f=0.1035  <S**2>=0.000
     309 -> 314        0.64040
     311 -> 315       -0.27819

 Excited State   5:      Singlet-A      3.0659 eV  404.39 nm  f=0.0000  <S**2>=0.000
     311 -> 313        0.70711

 The electronic state is 1-A.
 Alpha  occ. eigenvalues --  -46.87796 -46.87660 -19.26345 -19.26287 -19.19158
 Alpha  occ. eigenvalues --  -19.19022 -19.18814 -19.18716 -19.18170 -19.18049
 Alpha  occ. eigenvalues --  -14.42497 -14.42450 -14.41449 -14.41359 -14.39403
 Alpha  occ. eigenvalues --  -14.39352 -14.38600 -14.38586 -10.39087 -10.39081
 Alpha  occ. eigenvalues --  -10.35448 -10.35393 -10.34390 -10.34226 -10.31751
 Alpha  occ. eigenvalues --  -10.31683 -10.31405 -10.31307 -10.31022 -10.30909
 Alpha  occ. eigenvalues --  -10.30570 -10.30507 -10.30397 -10.30360 -10.30206
 Alpha  occ. eigenvalues --  -10.30141 -10.29920 -10.29894 -10.29630 -10.29437
 Alpha  occ. eigenvalues --  -10.29401 -10.29254 -10.28751 -10.28716 -10.28651
 Alpha  occ. eigenvalues --  -10.28543 -10.28404 -10.28365 -10.28137 -10.28118
 Alpha  occ. eigenvalues --  -10.28001 -10.27793 -10.27727 -10.27668 -10.27584
 Alpha  occ. eigenvalues --  -10.27519 -10.27499 -10.27483 -10.27482 -10.27468
 Alpha  occ. eigenvalues --  -10.27465 -10.27448 -10.27404 -10.27377 -10.27159
 Alpha  occ. eigenvalues --  -10.27048 -10.26708 -10.26690 -10.26418 -10.26410
 Alpha  occ. eigenvalues --  -10.26235 -10.26181 -10.26139 -10.26020 -10.26019
 Alpha  occ. eigenvalues --  -10.25934 -10.25849 -10.25842 -10.25433 -10.25399
 Alpha  occ. eigenvalues --  -10.24872 -10.24832 -10.24787 -10.24733 -10.24690
 Alpha  occ. eigenvalues --  -10.24684  -3.16539  -3.16410  -1.91421  -1.91292
 Alpha  occ. eigenvalues --   -1.91007  -1.90881  -1.90849  -1.90718  -1.16639
 Alpha  occ. eigenvalues --   -1.16635  -1.08656  -1.08627  -1.07216  -1.06968
 Alpha  occ. eigenvalues --   -1.06942  -1.06644  -1.04581  -1.04494  -1.03760
 Alpha  occ. eigenvalues --   -1.03663  -1.03233  -1.03039  -1.02411  -1.02111
 Alpha  occ. eigenvalues --   -0.91986  -0.91972  -0.89518  -0.89495  -0.89189
 Alpha  occ. eigenvalues --   -0.89149  -0.88286  -0.88221  -0.87870  -0.87793
 Alpha  occ. eigenvalues --   -0.87683  -0.87673  -0.87274  -0.87121  -0.84998
 Alpha  occ. eigenvalues --   -0.84983  -0.83935  -0.83877  -0.82967  -0.82933
 Alpha  occ. eigenvalues --   -0.82651  -0.82649  -0.81594  -0.81587  -0.80597
 Alpha  occ. eigenvalues --   -0.80441  -0.78797  -0.78636  -0.77218  -0.77144
 Alpha  occ. eigenvalues --   -0.76935  -0.76897  -0.75924  -0.75836  -0.74897
 Alpha  occ. eigenvalues --   -0.74803  -0.72774  -0.72699  -0.71672  -0.71580
 Alpha  occ. eigenvalues --   -0.69905  -0.69759  -0.68874  -0.68826  -0.67641
 Alpha  occ. eigenvalues --   -0.67601  -0.67221  -0.67199  -0.65287  -0.65270
 Alpha  occ. eigenvalues --   -0.64854  -0.64769  -0.64652  -0.64621  -0.64268
 Alpha  occ. eigenvalues --   -0.64204  -0.62299  -0.62276  -0.60442  -0.60340
 Alpha  occ. eigenvalues --   -0.59805  -0.59795  -0.58992  -0.58987  -0.58504
 Alpha  occ. eigenvalues --   -0.58425  -0.57585  -0.57552  -0.57308  -0.57236
 Alpha  occ. eigenvalues --   -0.56310  -0.56204  -0.55980  -0.55884  -0.55520
 Alpha  occ. eigenvalues --   -0.55451  -0.55339  -0.55247  -0.54523  -0.54487
 Alpha  occ. eigenvalues --   -0.53910  -0.53896  -0.53299  -0.53227  -0.53223
 Alpha  occ. eigenvalues --   -0.53141  -0.52915  -0.52901  -0.52756  -0.52668
 Alpha  occ. eigenvalues --   -0.52436  -0.52402  -0.51914  -0.51884  -0.51657
 Alpha  occ. eigenvalues --   -0.51618  -0.51200  -0.51196  -0.50572  -0.50476
 Alpha  occ. eigenvalues --   -0.50030  -0.49979  -0.49918  -0.49868  -0.49515
 Alpha  occ. eigenvalues --   -0.49487  -0.49215  -0.49201  -0.49102  -0.49097
 Alpha  occ. eigenvalues --   -0.48593  -0.48557  -0.48460  -0.48445  -0.48376
 Alpha  occ. eigenvalues --   -0.48339  -0.47695  -0.47594  -0.47297  -0.47118
 Alpha  occ. eigenvalues --   -0.46797  -0.46708  -0.46556  -0.46552  -0.46359
 Alpha  occ. eigenvalues --   -0.46270  -0.46162  -0.46085  -0.45822  -0.45820
 Alpha  occ. eigenvalues --   -0.45209  -0.45200  -0.44578  -0.44513  -0.44507
 Alpha  occ. eigenvalues --   -0.44475  -0.44144  -0.44126  -0.44089  -0.44078
 Alpha  occ. eigenvalues --   -0.44020  -0.43939  -0.43551  -0.43495  -0.43386
 Alpha  occ. eigenvalues --   -0.43384  -0.43027  -0.42928  -0.42900  -0.42700
 Alpha  occ. eigenvalues --   -0.42654  -0.42554  -0.42009  -0.41964  -0.41704
 Alpha  occ. eigenvalues --   -0.41668  -0.41535  -0.41457  -0.41141  -0.40988
 Alpha  occ. eigenvalues --   -0.40870  -0.40823  -0.40722  -0.40698  -0.40570
 Alpha  occ. eigenvalues --   -0.40493  -0.40236  -0.40225  -0.39439  -0.39427
 Alpha  occ. eigenvalues --   -0.38468  -0.38351  -0.37750  -0.37652  -0.37319
 Alpha  occ. eigenvalues --   -0.37266  -0.37264  -0.37198  -0.36768  -0.36714
 Alpha  occ. eigenvalues --   -0.36216  -0.36193  -0.34286  -0.34253  -0.33859
 Alpha  occ. eigenvalues --   -0.33772  -0.33186  -0.33175  -0.31344  -0.31275
 Alpha  occ. eigenvalues --   -0.31035  -0.30972  -0.30029  -0.29953  -0.29449
 Alpha  occ. eigenvalues --   -0.29327  -0.29321  -0.29211  -0.24080  -0.24036
 Alpha  occ. eigenvalues --   -0.21127  -0.21117
 Alpha virt. eigenvalues --   -0.08792  -0.08774  -0.01749  -0.01684  -0.00058
 Alpha virt. eigenvalues --   -0.00029   0.02201   0.02208   0.03122   0.03227
 Alpha virt. eigenvalues --    0.04717   0.04731   0.05096   0.05168   0.06175

 Mulliken charges:
               1
     1  Mg   0.838724
     2  C   -0.002969
     3  C   -0.094126
     4  C   -0.045846
     5  C   -0.063938
     6  N   -0.256779
     7  C   -0.052467
     8  C   -0.014028
     9  C   -0.086999
    10  C    0.046318
    11  C    0.104815
    12  C    0.053484
    13  C   -0.071793
    14  H    0.036078
    15  N   -0.433133
    16  C    0.168409
    17  C   -0.177154
    18  C   -0.004004
    19  C    0.148702
    20  C    0.110179
    21  C    0.012287
    22  O   -0.249610
    23  C    0.062477
    24  N   -0.341110
    25  C    0.041226
    26  C   -0.028190
    27  C   -0.023970
    28  C    0.074838
    29  C    0.076169
    30  C    0.035120
    31  C   -0.004509
    32  N   -0.310484
    33  C    0.080403
    34  C   -0.169697
    35  C    0.008348
    36  C    0.082997
    37  C    0.127308
    38  C    0.046119
    39  O   -0.188439
    40  C   -0.005339
    41  C    0.212878
    42  O   -0.257115
    43  O   -0.304795
    44  C    0.157705
    45  H   -0.017612
    46  H   -0.016825
    47  H   -0.041470
    48  H    0.000936
    49  H   -0.004050
    50  H    0.025475
    51  H    0.016457
    52  H    0.016649
    53  H    0.011199
    54  H    0.044117
    55  H    0.017877
    56  H    0.017940
    57  H    0.005862
    58  H    0.026829
    59  H    0.039540
    60  H    0.037345
    61  H    0.035661
    62  H    0.031491
    63  H    0.016566
    64  H    0.009472
    65  H    0.023225
    66  H    0.012540
    67  H    0.004763
    68  H    0.006384
    69  H    0.004747
    70  H    0.008782
    71  H    0.018170
    72  H    0.028968
    73  H    0.047581
    74  H    0.009133
    75  H    0.046013
    76  H    0.035149
    77  H    0.042942
    78  H    0.046382
    79  H    0.053671
    80  Mg   0.837835
    81  C   -0.016814
    82  C   -0.087793
    83  C   -0.045496
    84  C   -0.064869
    85  N   -0.254575
    86  C   -0.049825
    87  C   -0.015090
    88  C   -0.090495
    89  C    0.045769
    90  C    0.114360
    91  C    0.062511
    92  C   -0.077907
    93  H    0.034910
    94  N   -0.423494
    95  C    0.162923
    96  C   -0.174617
    97  C   -0.007823
    98  C    0.152124
    99  C    0.099358
   100  C    0.015558
   101  O   -0.253199
   102  C    0.061205
   103  N   -0.350060
   104  C    0.037502
   105  C   -0.019831
   106  C   -0.034834
   107  C    0.088934
   108  C    0.073652
   109  C    0.034739
   110  C   -0.007676
   111  N   -0.324113
   112  C    0.078454
   113  C   -0.163115
   114  C    0.002263
   115  C    0.096198
   116  C    0.131486
   117  C    0.042395
   118  O   -0.187818
   119  C    0.000914
   120  C    0.211257
   121  O   -0.251030
   122  O   -0.305607
   123  C    0.152023
   124  H   -0.019643
   125  H   -0.015587
   126  H   -0.040443
   127  H   -0.000596
   128  H   -0.004325
   129  H    0.022515
   130  H    0.014430
   131  H    0.016322
   132  H    0.013903
   133  H    0.037673
   134  H    0.020829
   135  H    0.019587
   136  H    0.008774
   137  H    0.026136
   138  H    0.039785
   139  H    0.038245
   140  H    0.036376
   141  H    0.033895
   142  H    0.014386
   143  H    0.012449
   144  H    0.025124
   145  H    0.011652
   146  H    0.005701
   147  H    0.006259
   148  H    0.003661
   149  H    0.010922
   150  H    0.017929
   151  H    0.030106
   152  H    0.046017
   153  H    0.008510
   154  H    0.047000
   155  H    0.035096
   156  H    0.043957
   157  H    0.049499
   158  H    0.053567
 Sum of Mulliken charges =  -0.00000

 Dipole moment (field-independent basis, Debye):
    X=             -4.1188    Y=             -2.3611    Z=             -7.3478  Tot=              8.7481
 Quadrupole moment (field-independent basis, Debye-Ang):
   XX=           -516.3087   YY=           -543.4869   ZZ=           -455.4614
   XY=             30.8290   XZ=             -8.8645   YZ=            -41.0414

 Normal termination of Gaussian 16 at Sat Sep  4 19:45:19 2021.
