 Gaussian 16, Revision A.03,
 Gaussian 16:  ES64L-G16RevA.03 25-Dec-2016

 -----------------------------------
 #p cam-b3lyp/Def2SVP td=(nstates=5)
 -----------------------------------

 --------------------------------
 TDDFT excited states in gaussian
 --------------------------------
 Symbolic Z-matrix:
 Charge =  0 Multiplicity = 1

                         Standard orientation:
 ---------------------------------------------------------------------
 Center     Atomic      Atomic             Coordinates (Angstroms)
 Number     Number       Type             X           Y           Z
 ---------------------------------------------------------------------
      1         12           0      -15.794455   -0.759145    0.091327
      2          6           0      -15.992034    2.808330    0.306495
      3          6           0      -16.671995   -0.460890   -3.192579
      4          6           0      -16.070087   -3.916759   -0.009287
      5          6           0      -16.052833   -0.835493    3.565960
      6          7           0      -16.246337    1.004167   -1.168507
      7          6           0      -16.228107    2.320036   -0.980549
      8          6           0      -16.408822    3.134626   -2.296284
      9          6           0      -17.163907    2.035986   -3.170834
     10          6           0      -16.636522    0.782763   -2.494653
     11          6           0      -18.681196    2.074237   -3.019596
     12          6           0      -15.039027    3.536627   -2.939547
     13          6           0      -15.120088    4.601642   -4.037057
     14          1           0      -14.043233    5.573680   -4.150506
     15          7           0      -15.817249   -1.994744   -1.449980
     16          6           0      -16.187257   -1.699396   -2.719291
     17          6           0      -16.029955   -2.950760   -3.491319
     18          6           0      -15.720164   -4.043708   -2.528205
     19          6           0      -15.884747   -3.358343   -1.271795
     20          6           0      -16.125768   -3.013704   -4.984841
     21          6           0      -15.346890   -5.480858   -2.710952
     22          8           0      -15.347775   -6.312592   -1.739977
     23          6           0      -15.062046   -5.915299   -4.090505
     24          7           0      -16.248335   -2.191839    1.540124
     25          6           0      -16.244922   -3.496471    1.245319
     26          6           0      -16.316547   -4.336744    2.485782
     27          6           0      -16.124129   -3.332134    3.711949
     28          6           0      -16.053053   -2.003486    2.919539
     29          6           0      -17.612908   -5.135549    2.679096
     30          6           0      -14.987365   -3.655078    4.713894
     31          6           0      -13.644909   -3.492275    4.036838
     32          7           0      -15.811036    0.705067    1.693467
     33          6           0      -15.950846    0.451832    3.065692
     34          6           0      -16.012745    1.760405    3.742355
     35          6           0      -15.920709    2.690084    2.708396
     36          6           0      -15.834847    2.005728    1.462372
     37          6           0      -16.196618    1.969180    5.137718
     38          6           0      -15.899725    4.102538    2.364315
     39          8           0      -15.848422    5.151307    3.008477
     40          6           0      -16.067760    4.236425    0.786448
     41          6           0      -15.019855    5.198948    0.297824
     42          8           0      -13.807739    4.907232    0.353004
     43          8           0      -15.612897    6.200526   -0.369773
     44          6           0      -14.626651    7.175752   -0.906809
     45          1           0      -17.167625   -0.506893   -4.164265
     46          1           0      -16.059446   -5.008486    0.012050
     47          1           0      -16.048121   -0.781001    4.656125
     48          1           0      -17.031007    4.024389   -2.198146
     49          1           0      -16.852759    2.062720   -4.214958
     50          1           0      -18.986059    2.766995   -2.235335
     51          1           0      -18.973876    1.055926   -2.762936
     52          1           0      -19.160281    2.292041   -3.974487
     53          1           0      -14.655817    2.698794   -3.521995
     54          1           0      -14.333613    3.861065   -2.173743
     55          1           0      -16.088446    5.102830   -4.035349
     56          1           0      -15.076464    4.099879   -5.003768
     57          1           0      -16.525689   -2.089362   -5.399811
     58          1           0      -16.876813   -3.766239   -5.224281
     59          1           0      -15.175452   -3.283010   -5.446041
     60          1           0      -15.938741   -5.734818   -4.712905
     61          1           0      -14.726495   -6.949149   -4.016963
     62          1           0      -14.263548   -5.294794   -4.498332
     63          1           0      -15.518563   -5.077935    2.502651
     64          1           0      -17.017316   -3.270304    4.334097
     65          1           0      -17.453989   -6.208809    2.786626
     66          1           0      -18.270303   -4.919967    1.837284
     67          1           0      -18.226255   -4.814793    3.520724
     68          1           0      -15.056307   -4.690860    5.044574
     69          1           0      -15.002929   -3.021951    5.601114
     70          1           0      -13.509775   -4.447778    3.531284
     71          1           0      -12.862225   -3.328803    4.778387
     72          1           0      -13.677479   -2.719092    3.268976
     73          1           0      -15.496856    2.754450    5.423467
     74          1           0      -16.017332    1.054276    5.701996
     75          1           0      -17.242374    2.275373    5.160003
     76          1           0      -17.077369    4.605615    0.608936
     77          1           0      -14.905212    8.157700   -0.524167
     78          1           0      -14.613293    7.039284   -1.988291
     79          1           0      -13.607613    7.088849   -0.528194
     80         12           0       15.963323   -0.798564    0.057683
     81          6           0       15.762114    2.778126    0.271840
     82          6           0       15.083868   -0.502201   -3.224592
     83          6           0       15.691901   -3.957950   -0.052048
     84          6           0       15.698838   -0.882614    3.531685
     85          7           0       15.508804    0.963908   -1.199042
     86          6           0       15.524574    2.276842   -1.024974
     87          6           0       15.351034    3.100686   -2.329093
     88          6           0       14.589085    1.996349   -3.211559
     89          6           0       15.115603    0.734215   -2.531506
     90          6           0       13.078712    2.032473   -3.047832
     91          6           0       16.725880    3.500344   -2.971032
     92          6           0       16.638229    4.561906   -4.069739
     93          1           0       17.721011    5.534870   -4.185477
     94          7           0       15.944246   -2.032711   -1.496372
     95          6           0       15.580782   -1.740834   -2.762856
     96          6           0       15.723143   -2.993420   -3.521094
     97          6           0       16.042280   -4.087422   -2.564001
     98          6           0       15.881160   -3.390433   -1.303709
     99          6           0       15.636072   -3.052517   -5.018541
    100          6           0       16.416457   -5.526518   -2.751606
    101          8           0       16.417071   -6.355086   -1.773698
    102          6           0       16.691531   -5.958074   -4.129859
    103          7           0       15.517321   -2.226405    1.501532
    104          6           0       15.515592   -3.536867    1.200518
    105          6           0       15.441141   -4.383217    2.448932
    106          6           0       15.637915   -3.367837    3.668713
    107          6           0       15.705917   -2.039458    2.883744
    108          6           0       14.143961   -5.167767    2.644369
    109          6           0       16.775361   -3.690107    4.676200
    110          6           0       18.120039   -3.538915    4.002130
    111          7           0       15.951142    0.659152    1.652352
    112          6           0       15.804305    0.410108    3.034560
    113          6           0       15.742411    1.722860    3.709305
    114          6           0       15.835137    2.652071    2.662186
    115          6           0       15.926608    1.966874    1.420560
    116          6           0       15.568719    1.932723    5.106412
    117          6           0       15.865742    4.056835    2.323955
    118          8           0       15.909633    5.104535    2.967488
    119          6           0       15.692508    4.201694    0.750616
    120          6           0       16.740367    5.159867    0.254216
    121          8           0       17.947255    4.867777    0.322860
    122          8           0       16.140231    6.161714   -0.414000
    123          6           0       17.139288    7.132243   -0.935324
    124          1           0       14.594481   -0.538760   -4.198270
    125          1           0       15.702446   -5.049977   -0.023002
    126          1           0       15.715394   -0.824146    4.622089
    127          1           0       14.734845    3.986100   -2.228456
    128          1           0       14.908340    2.031453   -4.249926
    129          1           0       12.773846    2.719344   -2.272328
    130          1           0       12.786012    1.021893   -2.794650
    131          1           0       12.600795    2.253433   -4.006531
    132          1           0       17.106768    2.654188   -3.557281
    133          1           0       17.420592    3.816753   -2.217449
    134          1           0       15.664884    5.067358   -4.077826
    135          1           0       16.688703    4.062007   -5.040085
    136          1           0       15.228868   -2.122831   -5.434798
    137          1           0       14.886350   -3.811979   -5.265522
    138          1           0       16.584484   -3.327318   -5.485091
    139          1           0       15.816376   -5.772221   -4.747940
    140          1           0       17.028029   -6.993593   -4.050186
    141          1           0       17.500200   -5.339755   -4.535261
    142          1           0       16.239594   -5.114789    2.468369
    143          1           0       14.740313   -3.312992    4.302068
    144          1           0       14.304627   -6.257209    2.751028
    145          1           0       13.490025   -4.959931    1.807882
    146          1           0       13.538880   -4.855460    3.493805
    147          1           0       16.707617   -4.730421    5.003785
    148          1           0       16.752572   -3.070097    5.566177
    149          1           0       18.249804   -4.498282    3.492362
    150          1           0       18.902425   -3.375270    4.740461
    151          1           0       18.089182   -2.758462    3.232979
    152          1           0       16.261205    2.713193    5.392471
    153          1           0       15.743344    1.018871    5.670461
    154          1           0       14.518225    2.234737    5.129156
    155          1           0       14.682054    4.567701    0.564617
    156          1           0       16.857139    8.117903   -0.552501
    157          1           0       17.139727    6.999647   -2.033581
    158          1           0       18.156901    7.047729   -0.572322
 ---------------------------------------------------------------------

 SCF Done:  E(RCAM-B3LYP) =  -4069.81176496     A.U. after   19 cycles

 Excitation energies and oscillator strengths:

 Excited State   1:      Singlet-A      1.6753 eV  740.07 nm  f=0.2110  <S**2>=0.000
     310 -> 316        0.16853
     311 -> 314       -0.16349
     312 -> 313        0.66629
     310 <- 316        0.10160
 This state for optimization and/or second-order correction.
 Total Energy, E(TD-HF/TD-DFT) =  -4069.75019858
 Copying the excited state density for this state as the 1-particle RhoCI density.

 Excited State   2:      Singlet-A      1.6801 eV  737.95 nm  f=0.5663  <S**2>=0.000
     309 -> 315        0.17055
     311 -> 314        0.66592
     312 -> 313        0.16344
     309 <- 315        0.10211

 Excited State   3:      Singlet-A      2.1861 eV  567.15 nm  f=0.0950  <S**2>=0.000
     310 -> 313        0.64209
     312 -> 316       -0.27294

 Excited State   4:      Singlet-A      2.1925 eV  565.49 nm  f=0.1051  <S**2>=0.000
     309 -> 314        0.64032
     311 -> 315       -0.27813

 Excited State   5:      Singlet-A      3.0658 eV  404.41 nm  f=0.0000  <S**2>=0.000
     311 -> 313        0.70711

 The electronic state is 1-A.
 Alpha  occ. eigenvalues --  -46.87796 -46.87660 -19.26348 -19.26283 -19.19160
 Alpha  occ. eigenvalues --  -19.19019 -19.18816 -19.18715 -19.18168 -19.18050
 Alpha  occ. eigenvalues --  -14.42497 -14.42450 -14.41449 -14.41359 -14.39402
 Alpha  occ. eigenvalues --  -14.39352 -14.38599 -14.38586 -10.39089 -10.39078
 Alpha  occ. eigenvalues --  -10.35449 -10.35393 -10.34388 -10.34227 -10.31754
 Alpha  occ. eigenvalues --  -10.31678 -10.31404 -10.31308 -10.31023 -10.30909
 Alpha  occ. eigenvalues --  -10.30569 -10.30507 -10.30397 -10.30360 -10.30206
 Alpha  occ. eigenvalues --  -10.30141 -10.29920 -10.29894 -10.29630 -10.29437
 Alpha  occ. eigenvalues --  -10.29401 -10.29254 -10.28749 -10.28718 -10.28654
 Alpha  occ. eigenvalues --  -10.28540 -10.28405 -10.28364 -10.28140 -10.28117
 Alpha  occ. eigenvalues --  -10.28001 -10.27792 -10.27727 -10.27669 -10.27584
 Alpha  occ. eigenvalues --  -10.27517 -10.27500 -10.27483 -10.27483 -10.27469
 Alpha  occ. eigenvalues --  -10.27465 -10.27448 -10.27403 -10.27375 -10.27157
 Alpha  occ. eigenvalues --  -10.27049 -10.26705 -10.26693 -10.26417 -10.26412
 Alpha  occ. eigenvalues --  -10.26234 -10.26182 -10.26137 -10.26023 -10.26019
 Alpha  occ. eigenvalues --  -10.25934 -10.25848 -10.25841 -10.25434 -10.25396
 Alpha  occ. eigenvalues --  -10.24872 -10.24832 -10.24787 -10.24731 -10.24690
 Alpha  occ. eigenvalues --  -10.24685  -3.16539  -3.16410  -1.91421  -1.91292
 Alpha  occ. eigenvalues --   -1.91007  -1.90881  -1.90849  -1.90718  -1.16642
 Alpha  occ. eigenvalues --   -1.16631  -1.08657  -1.08626  -1.07217  -1.06968
 Alpha  occ. eigenvalues --   -1.06944  -1.06641  -1.04581  -1.04495  -1.03760
 Alpha  occ. eigenvalues --   -1.03663  -1.03233  -1.03039  -1.02410  -1.02111
 Alpha  occ. eigenvalues --   -0.91986  -0.91971  -0.89519  -0.89494  -0.89188
 Alpha  occ. eigenvalues --   -0.89151  -0.88286  -0.88220  -0.87869  -0.87793
 Alpha  occ. eigenvalues --   -0.87684  -0.87673  -0.87274  -0.87121  -0.84999
 Alpha  occ. eigenvalues --   -0.84982  -0.83935  -0.83876  -0.82968  -0.82933
 Alpha  occ. eigenvalues --   -0.82653  -0.82648  -0.81595  -0.81585  -0.80596
 Alpha  occ. eigenvalues --   -0.80442  -0.78797  -0.78636  -0.77218  -0.77144
 Alpha  occ. eigenvalues --   -0.76934  -0.76898  -0.75923  -0.75838  -0.74897
 Alpha  occ. eigenvalues --   -0.74802  -0.72773  -0.72699  -0.71672  -0.71580
 Alpha  occ. eigenvalues --   -0.69906  -0.69757  -0.68873  -0.68827  -0.67641
 Alpha  occ. eigenvalues --   -0.67601  -0.67220  -0.67200  -0.65286  -0.65271
 Alpha  occ. eigenvalues --   -0.64853  -0.64770  -0.64653  -0.64620  -0.64268
 Alpha  occ. eigenvalues --   -0.64203  -0.62296  -0.62277  -0.60442  -0.60340
 Alpha  occ. eigenvalues --   -0.59804  -0.59796  -0.58992  -0.58987  -0.58503
 Alpha  occ. eigenvalues --   -0.58425  -0.57583  -0.57553  -0.57308  -0.57236
 Alpha  occ. eigenvalues --   -0.56309  -0.56204  -0.55978  -0.55886  -0.55520
 Alpha  occ. eigenvalues --   -0.55452  -0.55338  -0.55247  -0.54522  -0.54487
 Alpha  occ. eigenvalues --   -0.53912  -0.53895  -0.53298  -0.53228  -0.53222
 Alpha  occ. eigenvalues --   -0.53141  -0.52914  -0.52902  -0.52757  -0.52669
 Alpha  occ. eigenvalues --   -0.52437  -0.52401  -0.51913  -0.51883  -0.51659
 Alpha  occ. eigenvalues --   -0.51617  -0.51201  -0.51195  -0.50573  -0.50476
 Alpha  occ. eigenvalues --   -0.50031  -0.49980  -0.49919  -0.49867  -0.49515
 Alpha  occ. eigenvalues --   -0.49488  -0.49214  -0.49202  -0.49104  -0.49096
 Alpha  occ. eigenvalues --   -0.48592  -0.48558  -0.48461  -0.48445  -0.48375
 Alpha  occ. eigenvalues --   -0.48339  -0.47694  -0.47594  -0.47296  -0.47118
 Alpha  occ. eigenvalues --   -0.46796  -0.46709  -0.46555  -0.46554  -0.46358
 Alpha  occ. eigenvalues --   -0.46270  -0.46161  -0.46085  -0.45821  -0.45821
 Alpha  occ. eigenvalues --   -0.45208  -0.45200  -0.44577  -0.44513  -0.44507
 Alpha  occ. eigenvalues --   -0.44476  -0.44144  -0.44127  -0.44088  -0.44078
 Alpha  occ. eigenvalues --   -0.44019  -0.43939  -0.43552  -0.43494  -0.43385
 Alpha  occ. eigenvalues --   -0.43385  -0.43026  -0.42929  -0.42900  -0.42698
 Alpha  occ. eigenvalues --   -0.42654  -0.42554  -0.42009  -0.41964  -0.41703
 Alpha  occ. eigenvalues --   -0.41669  -0.41533  -0.41459  -0.41140  -0.40989
 Alpha  occ. eigenvalues --   -0.40869  -0.40824  -0.40723  -0.40699  -0.40570
 Alpha  occ. eigenvalues --   -0.40493  -0.40234  -0.40227  -0.39440  -0.39426
 Alpha  occ. eigenvalues --   -0.38468  -0.38350  -0.37748  -0.37654  -0.37319
 Alpha  occ. eigenvalues --   -0.37266  -0.37263  -0.37199  -0.36770  -0.36712
 Alpha  occ. eigenvalues --   -0.36217  -0.36191  -0.34285  -0.34253  -0.33861
 Alpha  occ. eigenvalues --   -0.33769  -0.33186  -0.33175  -0.31345  -0.31274
 Alpha  occ. eigenvalues --   -0.31035  -0.30973  -0.30027  -0.29954  -0.29449
 Alpha  occ. eigenvalues --   -0.29327  -0.29321  -0.29211  -0.24080  -0.24036
 Alpha  occ. eigenvalues --   -0.21127  -0.21117
 Alpha virt. eigenvalues --   -0.08792  -0.08774  -0.01749  -0.01684  -0.00058
 Alpha virt. eigenvalues --   -0.00029   0.02201   0.02208   0.03123   0.03228
 Alpha virt. eigenvalues --    0.04718   0.04730   0.05099   0.05166   0.06177

 Mulliken charges:
               1
     1  Mg   0.838772
     2  C   -0.002975
     3  C   -0.094128
     4  C   -0.045873
     5  C   -0.063959
     6  N   -0.256778
     7  C   -0.052460
     8  C   -0.014021
     9  C   -0.087002
    10  C    0.046324
    11  C    0.104812
    12  C    0.053473
    13  C   -0.071791
    14  H    0.036117
    15  N   -0.433143
    16  C    0.168421
    17  C   -0.177173
    18  C   -0.004009
    19  C    0.148711
    20  C    0.110182
    21  C    0.012273
    22  O   -0.249626
    23  C    0.062483
    24  N   -0.341175
    25  C    0.041257
    26  C   -0.028177
    27  C   -0.023985
    28  C    0.074869
    29  C    0.076164
    30  C    0.035119
    31  C   -0.004504
    32  N   -0.310471
    33  C    0.080416
    34  C   -0.169690
    35  C    0.008359
    36  C    0.082969
    37  C    0.127307
    38  C    0.046136
    39  O   -0.188409
    40  C   -0.005316
    41  C    0.212865
    42  O   -0.257102
    43  O   -0.304796
    44  C    0.157694
    45  H   -0.017616
    46  H   -0.016840
    47  H   -0.041473
    48  H    0.000946
    49  H   -0.004048
    50  H    0.025482
    51  H    0.016449
    52  H    0.016651
    53  H    0.011189
    54  H    0.044127
    55  H    0.017878
    56  H    0.017930
    57  H    0.005865
    58  H    0.026818
    59  H    0.039522
    60  H    0.037343
    61  H    0.035637
    62  H    0.031481
    63  H    0.016552
    64  H    0.009470
    65  H    0.023212
    66  H    0.012544
    67  H    0.004762
    68  H    0.006372
    69  H    0.004749
    70  H    0.008772
    71  H    0.018162
    72  H    0.028973
    73  H    0.047596
    74  H    0.009124
    75  H    0.046018
    76  H    0.035154
    77  H    0.042963
    78  H    0.046383
    79  H    0.053696
    80  Mg   0.837892
    81  C   -0.016833
    82  C   -0.087787
    83  C   -0.045506
    84  C   -0.064868
    85  N   -0.254567
    86  C   -0.049825
    87  C   -0.015105
    88  C   -0.090505
    89  C    0.045763
    90  C    0.114369
    91  C    0.062529
    92  C   -0.077891
    93  H    0.034897
    94  N   -0.423498
    95  C    0.162923
    96  C   -0.174633
    97  C   -0.007806
    98  C    0.152116
    99  C    0.099367
   100  C    0.015563
   101  O   -0.253181
   102  C    0.061200
   103  N   -0.350095
   104  C    0.037537
   105  C   -0.019843
   106  C   -0.034831
   107  C    0.088947
   108  C    0.073635
   109  C    0.034722
   110  C   -0.007676
   111  N   -0.324113
   112  C    0.078451
   113  C   -0.163103
   114  C    0.002257
   115  C    0.096174
   116  C    0.131485
   117  C    0.042410
   118  O   -0.187824
   119  C    0.000934
   120  C    0.211246
   121  O   -0.251030
   122  O   -0.305616
   123  C    0.152032
   124  H   -0.019664
   125  H   -0.015568
   126  H   -0.040426
   127  H   -0.000616
   128  H   -0.004340
   129  H    0.022507
   130  H    0.014441
   131  H    0.016285
   132  H    0.013905
   133  H    0.037676
   134  H    0.020806
   135  H    0.019576
   136  H    0.008756
   137  H    0.026138
   138  H    0.039781
   139  H    0.038247
   140  H    0.036390
   141  H    0.033890
   142  H    0.014394
   143  H    0.012464
   144  H    0.025142
   145  H    0.011657
   146  H    0.005721
   147  H    0.006277
   148  H    0.003672
   149  H    0.010927
   150  H    0.017936
   151  H    0.030090
   152  H    0.046019
   153  H    0.008522
   154  H    0.047014
   155  H    0.035076
   156  H    0.043941
   157  H    0.049481
   158  H    0.053573
 Sum of Mulliken charges =  -0.00000

 Dipole moment (field-independent basis, Debye):
    X=             -4.0102    Y=             -2.4413    Z=             -7.7589  Tot=              9.0687
 Quadrupole moment (field-independent basis, Debye-Ang):
   XX=           -516.2053   YY=           -551.7831   ZZ=           -447.1221
   XY=             -3.6811   XZ=              1.2809   YZ=            -48.6332

 Normal termination of Gaussian 16 at Sun Sep 12 20:06:55 2021.
