 Gaussian 16, Revision A.03,
 Gaussian 16:  ES64L-G16RevA.03 25-Dec-2016

 -----------------------------------
 #p cam-b3lyp/Def2SVP td=(nstates=5)
 -----------------------------------

 --------------------------------
 TDDFT excited states in gaussian
 --------------------------------
 Symbolic Z-matrix:
 Charge =  0 Multiplicity = 1

                         Standard orientation:
 ---------------------------------------------------------------------
 Center     Atomic      Atomic             Coordinates (Angstroms)
 Number     Number       Type             X           Y           Z
 ---------------------------------------------------------------------
      1         12           0       -4.200409    0.758404    0.249303
      2          6           0       -4.585641   -2.442974    1.803328
      3          6           0       -4.863432    2.150075    3.293431
      4          6           0       -4.314524    3.582818   -1.188154
      5          6           0       -4.693179   -0.832703   -2.811941
      6          7           0       -4.649800   -0.137553    2.223121
      7          6           0       -4.708582   -1.377725    2.698189
      8          6           0       -4.837771   -1.439553    4.249595
      9          6           0       -5.476561   -0.001520    4.506509
     10          6           0       -4.936599    0.725419    3.287524
     11          6           0       -7.000720    0.007297    4.448501
     12          6           0       -3.448153   -1.583759    4.956629
     13          6           0       -3.505238   -1.976987    6.435637
     14          1           0       -2.471696   -2.852052    6.967991
     15          7           0       -4.056982    2.582201    0.994986
     16          6           0       -4.352724    2.965355    2.260298
     17          6           0       -4.081995    4.417874    2.320110
     18          6           0       -3.786389    4.882985    0.936498
     19          6           0       -4.070160    3.691006    0.178845
     20          6           0       -4.071663    5.201043    3.596938
     21          6           0       -3.331955    6.196731    0.383604
     22          8           0       -3.359168    6.453734   -0.868507
     23          6           0       -2.932087    7.220102    1.366386
     24          7           0       -4.682640    1.343455   -1.695640
     25          6           0       -4.595491    2.623759   -2.072750
     26          6           0       -4.711316    2.763491   -3.561709
     27          6           0       -4.652805    1.280475   -4.150770
     28          6           0       -4.592108    0.498402   -2.815499
     29          6           0       -5.977505    3.465527   -4.071536
     30          6           0       -3.573298    0.992251   -5.224087
     31          6           0       -2.196960    1.075127   -4.602860
     32          7           0       -4.398377   -1.291228   -0.436891
     33          6           0       -4.619767   -1.722098   -1.752950
     34          6           0       -4.791656   -3.185737   -1.705171
     35          6           0       -4.674047   -3.504710   -0.353776
     36          6           0       -4.469482   -2.312648    0.398176
     37          6           0       -5.081022   -4.027520   -2.815173
     38          6           0       -4.698183   -4.572523    0.632657
     39          8           0       -4.742397   -5.802396    0.578349
     40          6           0       -4.763590   -3.914882    2.081470
     41          6           0       -3.732623   -4.598336    2.937804
     42          8           0       -2.514422   -4.462488    2.703501
     43          8           0       -4.326357   -5.104881    4.029332
     44          6           0       -3.354118   -5.771366    4.936363
     45          1           0       -5.288218    2.696910    4.137510
     46          1           0       -4.252277    4.524207   -1.738017
     47          1           0       -4.766129   -1.406867   -3.737397
     48          1           0       -5.507781   -2.215981    4.619287
     49          1           0       -5.095993    0.455570    5.419722
     50          1           0       -7.392152   -0.952558    4.111781
     51          1           0       -7.260476    0.794062    3.739967
     52          1           0       -7.423009    0.314605    5.405585
     53          1           0       -2.985477   -0.600701    5.043749
     54          1           0       -2.813711   -2.290060    4.420020
     55          1           0       -4.494652   -2.341562    6.713224
     56          1           0       -3.370857   -1.075859    7.034061
     57          1           0       -4.486584    4.625270    4.423297
     58          1           0       -4.766955    6.030214    3.467506
     59          1           0       -3.079898    5.586492    3.833926
     60          1           0       -3.771628    7.429655    2.029565
     61          1           0       -2.552492    8.061126    0.787217
     62          1           0       -2.138559    6.814980    1.994987
     63          1           0       -3.881272    3.341427   -3.965989
     64          1           0       -5.588623    0.994010   -4.631246
     65          1           0       -5.774334    4.337937   -4.693088
     66          1           0       -6.585140    3.733723   -3.207741
     67          1           0       -6.662172    2.825959   -4.627954
     68          1           0       -3.614353    1.741541   -6.013914
     69          1           0       -3.680641    0.012755   -5.690260
     70          1           0       -1.981045    2.142563   -4.631026
     71          1           0       -1.476025    0.515106   -5.199384
     72          1           0       -2.214206    0.773698   -3.555326
     73          1           0       -4.441607   -4.903713   -2.708381
     74          1           0       -4.896682   -3.515305   -3.759237
     75          1           0       -6.139488   -4.226025   -2.647539
     76          1           0       -5.775358   -4.074644    2.452849
     77          1           0       -3.705782   -6.791651    5.089936
     78          1           0       -3.259772   -5.131245    5.813716
     79          1           0       -2.360522   -5.955686    4.526324
     80         12           0        4.755055    0.093439   -0.076691
     81          6           0        2.849491   -1.432709   -2.707054
     82          6           0        3.860138    3.114132   -1.384021
     83          6           0        6.781938    1.458190    1.947319
     84          6           0        6.394389   -2.956732    0.316638
     85          7           0        3.511266    0.640406   -1.821994
     86          6           0        2.788239   -0.023570   -2.711213
     87          6           0        1.889847    0.871078   -3.606795
     88          6           0        2.719388    2.240914   -3.487325
     89          6           0        3.381671    2.008097   -2.130921
     90          6           0        3.811633    2.376369   -4.535190
     91          6           0        0.438350    1.026513   -3.031464
     92          6           0       -0.578178    1.627713   -4.004591
     93          1           0       -1.955883    1.145827   -3.957685
     94          7           0        4.874976    1.972929    0.549160
     95          6           0        4.440598    3.075102   -0.097212
     96          6           0        4.781591    4.211899    0.772038
     97          6           0        5.599602    3.705390    1.907400
     98          6           0        5.805921    2.332511    1.491793
     99          6           0        4.271238    5.602778    0.530380
    100          6           0        6.121893    4.353301    3.153844
    101          8           0        7.011035    3.788799    3.884319
    102          6           0        5.630597    5.708339    3.443632
    103          7           0        6.499661   -0.573660    0.836343
    104          6           0        7.160114    0.201140    1.714657
    105          6           0        8.221372   -0.585832    2.445935
    106          6           0        7.973323   -2.114727    2.047761
    107          6           0        6.816776   -1.929601    1.041030
    108          6           0        9.667727   -0.205995    2.129413
    109          6           0        7.784226   -3.123776    3.213415
    110          6           0        6.488732   -2.838071    3.938310
    111          7           0        4.539987   -1.902343   -0.875854
    112          6           0        5.349592   -3.025005   -0.596117
    113          6           0        4.883136   -4.125375   -1.464473
    114          6           0        3.841272   -3.555404   -2.211564
    115          6           0        3.683776   -2.190196   -1.849765
    116          6           0        5.443882   -5.432293   -1.524824
    117          6           0        2.845912   -3.795303   -3.231568
    118          8           0        2.451442   -4.786613   -3.844304
    119          6           0        2.243047   -2.397267   -3.688100
    120          6           0        0.744339   -2.523152   -3.711652
    121          8           0        0.109176   -2.710363   -2.658979
    122          8           0        0.293050   -2.186663   -4.933741
    123          6           0       -1.189259   -2.285203   -5.003540
    124          1           0        3.827328    4.102918   -1.842402
    125          1           0        7.437237    1.848956    2.729213
    126          1           0        6.789306   -3.966255    0.449250
    127          1           0        1.830201    0.561700   -4.643373
    128          1           0        2.056856    3.101530   -3.445471
    129          1           0        3.927509    1.473050   -5.115463
    130          1           0        4.719415    2.593295   -3.987523
    131          1           0        3.623444    3.250566   -5.165022
    132          1           0        0.441268    1.805250   -2.257962
    133          1           0        0.072890    0.088541   -2.660945
    134          1           0       -0.207645    1.632482   -5.036885
    135          1           0       -0.707904    2.685112   -3.761512
    136          1           0        3.831095    5.701680   -0.469565
    137          1           0        5.143912    6.264501    0.509701
    138          1           0        3.588460    5.942653    1.312026
    139          1           0        5.876673    6.366803    2.613974
    140          1           0        6.046645    5.967636    4.419100
    141          1           0        4.537167    5.677808    3.507574
    142          1           0        8.111499   -0.479672    3.518205
    143          1           0        8.819466   -2.530691    1.481316
    144          1           0       10.248785    0.084227    3.025085
    145          1           0        9.658888    0.597590    1.405048
    146          1           0       10.244980   -0.973245    1.616286
    147          1           0        8.583814   -3.006820    3.949027
    148          1           0        7.790637   -4.160201    2.892825
    149          1           0        6.764246   -2.035506    4.629011
    150          1           0        6.147360   -3.720901    4.475061
    151          1           0        5.733724   -2.437512    3.251887
    152          1           0        4.614199   -6.126078   -1.552804
    153          1           0        6.095690   -5.624875   -0.675221
    154          1           0        6.001654   -5.362106   -2.462496
    155          1           0        2.650428   -2.171174   -4.674253
    156          1           0       -1.426133   -2.953349   -5.837300
    157          1           0       -1.554968   -1.243503   -5.073261
    158          1           0       -1.697761   -2.780435   -4.184625
 ---------------------------------------------------------------------

 SCF Done:  E(RCAM-B3LYP) =  -4069.09020780     A.U. after   23 cycles

 Excitation energies and oscillator strengths:

 Excited State   1:      Singlet-A      0.5972 eV 2076.13 nm  f=0.0439  <S**2>=0.000
     312 -> 313        0.70675
 This state for optimization and/or second-order correction.
 Total Energy, E(TD-HF/TD-DFT) =  -4069.06826150
 Copying the excited state density for this state as the 1-particle RhoCI density.

 Excited State   2:      Singlet-A      1.0772 eV 1150.99 nm  f=0.0222  <S**2>=0.000
     312 -> 314        0.70320

 Excited State   3:      Singlet-A      1.5564 eV  796.61 nm  f=0.0387  <S**2>=0.000
     312 -> 315       -0.33579
     312 -> 318        0.45359
     312 -> 319        0.23452
     312 -> 320        0.16869
     312 -> 322       -0.11687
     312 -> 325       -0.14938

 Excited State   4:      Singlet-A      1.6578 eV  747.87 nm  f=0.0763  <S**2>=0.000
     309 -> 316        0.14402
     310 -> 313       -0.30666
     311 -> 314        0.61140

 Excited State   5:      Singlet-A      1.7257 eV  718.44 nm  f=0.5898  <S**2>=0.000
     308 -> 315        0.15768
     310 -> 313        0.60432
     311 -> 314        0.30764

 The electronic state is 1-A.
 Alpha  occ. eigenvalues --  -46.88346 -46.86807 -19.26471 -19.26290 -19.19188
 Alpha  occ. eigenvalues --  -19.19000 -19.18966 -19.18406 -19.18126 -19.17465
 Alpha  occ. eigenvalues --  -14.42870 -14.42194 -14.41337 -14.40585 -14.39884
 Alpha  occ. eigenvalues --  -14.39101 -14.38552 -14.37815 -10.39099 -10.38874
 Alpha  occ. eigenvalues --  -10.35819 -10.34818 -10.34624 -10.34420 -10.33643
 Alpha  occ. eigenvalues --  -10.32306 -10.31819 -10.31645 -10.31340 -10.31256
 Alpha  occ. eigenvalues --  -10.31026 -10.30983 -10.30687 -10.30258 -10.30009
 Alpha  occ. eigenvalues --  -10.29839 -10.29828 -10.29611 -10.29513 -10.29449
 Alpha  occ. eigenvalues --  -10.29139 -10.29062 -10.29012 -10.28823 -10.28730
 Alpha  occ. eigenvalues --  -10.28621 -10.28620 -10.28614 -10.28409 -10.28315
 Alpha  occ. eigenvalues --  -10.28166 -10.27965 -10.27797 -10.27794 -10.27653
 Alpha  occ. eigenvalues --  -10.27375 -10.27322 -10.27207 -10.26943 -10.26939
 Alpha  occ. eigenvalues --  -10.26851 -10.26841 -10.26815 -10.26792 -10.26756
 Alpha  occ. eigenvalues --  -10.26732 -10.26720 -10.26633 -10.26626 -10.26511
 Alpha  occ. eigenvalues --  -10.26502 -10.26305 -10.26302 -10.25990 -10.25643
 Alpha  occ. eigenvalues --  -10.25334 -10.25258 -10.25219 -10.25201 -10.24886
 Alpha  occ. eigenvalues --  -10.24880 -10.24253 -10.24189 -10.23929 -10.23911
 Alpha  occ. eigenvalues --  -10.17289  -3.17089  -3.15559  -1.91970  -1.91560
 Alpha  occ. eigenvalues --   -1.91397  -1.90443  -1.90026  -1.89869  -1.16690
 Alpha  occ. eigenvalues --   -1.16640  -1.12692  -1.08830  -1.08115  -1.07595
 Alpha  occ. eigenvalues --   -1.06767  -1.06633  -1.06392  -1.05063  -1.04453
 Alpha  occ. eigenvalues --   -1.03771  -1.03499  -1.02976  -1.02754  -1.02281
 Alpha  occ. eigenvalues --   -1.01320  -0.92428  -0.91258  -0.90107  -0.89486
 Alpha  occ. eigenvalues --   -0.88981  -0.88840  -0.88336  -0.88177  -0.87741
 Alpha  occ. eigenvalues --   -0.87650  -0.87501  -0.87058  -0.86482  -0.86414
 Alpha  occ. eigenvalues --   -0.85335  -0.84085  -0.83534  -0.83357  -0.83166
 Alpha  occ. eigenvalues --   -0.82792  -0.82388  -0.81852  -0.81723  -0.80902
 Alpha  occ. eigenvalues --   -0.80855  -0.79613  -0.79191  -0.77921  -0.77432
 Alpha  occ. eigenvalues --   -0.77056  -0.76538  -0.76179  -0.75787  -0.75172
 Alpha  occ. eigenvalues --   -0.74812  -0.74158  -0.73155  -0.72220  -0.71931
 Alpha  occ. eigenvalues --   -0.70834  -0.69755  -0.69208  -0.69166  -0.68163
 Alpha  occ. eigenvalues --   -0.67836  -0.67481  -0.67165  -0.66831  -0.65507
 Alpha  occ. eigenvalues --   -0.65249  -0.64974  -0.64626  -0.64314  -0.63951
 Alpha  occ. eigenvalues --   -0.63498  -0.62995  -0.62106  -0.61903  -0.60716
 Alpha  occ. eigenvalues --   -0.60147  -0.59667  -0.59497  -0.59327  -0.58908
 Alpha  occ. eigenvalues --   -0.58583  -0.58201  -0.57935  -0.57717  -0.57567
 Alpha  occ. eigenvalues --   -0.57019  -0.56834  -0.56575  -0.56323  -0.56006
 Alpha  occ. eigenvalues --   -0.55834  -0.55526  -0.55265  -0.54974  -0.54848
 Alpha  occ. eigenvalues --   -0.54637  -0.54214  -0.54057  -0.53789  -0.53532
 Alpha  occ. eigenvalues --   -0.53167  -0.53028  -0.52652  -0.52598  -0.52460
 Alpha  occ. eigenvalues --   -0.52358  -0.52164  -0.52016  -0.51891  -0.51854
 Alpha  occ. eigenvalues --   -0.51631  -0.51425  -0.51271  -0.50879  -0.50722
 Alpha  occ. eigenvalues --   -0.50287  -0.50089  -0.49944  -0.49859  -0.49784
 Alpha  occ. eigenvalues --   -0.49468  -0.49354  -0.49301  -0.49077  -0.48861
 Alpha  occ. eigenvalues --   -0.48813  -0.48760  -0.48537  -0.48350  -0.48066
 Alpha  occ. eigenvalues --   -0.47970  -0.47844  -0.47790  -0.47602  -0.47498
 Alpha  occ. eigenvalues --   -0.47202  -0.47069  -0.46832  -0.46528  -0.46516
 Alpha  occ. eigenvalues --   -0.46262  -0.46135  -0.46063  -0.45760  -0.45544
 Alpha  occ. eigenvalues --   -0.45498  -0.45176  -0.44885  -0.44757  -0.44708
 Alpha  occ. eigenvalues --   -0.44455  -0.44338  -0.44335  -0.43999  -0.43925
 Alpha  occ. eigenvalues --   -0.43786  -0.43725  -0.43534  -0.43487  -0.43295
 Alpha  occ. eigenvalues --   -0.43218  -0.43065  -0.43042  -0.42790  -0.42572
 Alpha  occ. eigenvalues --   -0.42556  -0.42340  -0.42029  -0.41945  -0.41905
 Alpha  occ. eigenvalues --   -0.41769  -0.41557  -0.41465  -0.41192  -0.41133
 Alpha  occ. eigenvalues --   -0.41066  -0.40739  -0.40421  -0.40185  -0.39982
 Alpha  occ. eigenvalues --   -0.39937  -0.39677  -0.38918  -0.38611  -0.38360
 Alpha  occ. eigenvalues --   -0.38263  -0.38064  -0.37649  -0.37489  -0.37319
 Alpha  occ. eigenvalues --   -0.36915  -0.36615  -0.36486  -0.36425  -0.36155
 Alpha  occ. eigenvalues --   -0.35464  -0.34833  -0.33955  -0.33678  -0.33604
 Alpha  occ. eigenvalues --   -0.33348  -0.32408  -0.31777  -0.31606  -0.30688
 Alpha  occ. eigenvalues --   -0.30260  -0.30162  -0.29852  -0.29728  -0.29369
 Alpha  occ. eigenvalues --   -0.28615  -0.28501  -0.24719  -0.23240  -0.21910
 Alpha  occ. eigenvalues --   -0.20307  -0.16700
 Alpha virt. eigenvalues --   -0.09353  -0.08037  -0.02551  -0.00902  -0.00449
 Alpha virt. eigenvalues --    0.00565   0.00807   0.01880   0.02870   0.03775
 Alpha virt. eigenvalues --    0.04082   0.04972   0.05218   0.05434   0.05878

 Mulliken charges:
               1
     1  Mg   0.839264
     2  C   -0.001021
     3  C   -0.091758
     4  C   -0.047530
     5  C   -0.062967
     6  N   -0.257158
     7  C   -0.050187
     8  C   -0.014481
     9  C   -0.087428
    10  C    0.047063
    11  C    0.104569
    12  C    0.053101
    13  C   -0.072629
    14  H    0.038633
    15  N   -0.433547
    16  C    0.168312
    17  C   -0.176418
    18  C   -0.004141
    19  C    0.150359
    20  C    0.109964
    21  C    0.012332
    22  O   -0.250759
    23  C    0.062346
    24  N   -0.329858
    25  C    0.030838
    26  C   -0.031083
    27  C   -0.060034
    28  C    0.005489
    29  C    0.078161
    30  C    0.285214
    31  C    0.510830
    32  N   -0.312067
    33  C    0.083276
    34  C   -0.160513
    35  C    0.010253
    36  C    0.090230
    37  C    0.124511
    38  C    0.050915
    39  O   -0.184108
    40  C   -0.007327
    41  C    0.212761
    42  O   -0.251700
    43  O   -0.305752
    44  C    0.157152
    45  H   -0.015962
    46  H   -0.016954
    47  H   -0.043882
    48  H    0.002132
    49  H   -0.002634
    50  H    0.025976
    51  H    0.015948
    52  H    0.017850
    53  H    0.011800
    54  H    0.046614
    55  H    0.017753
    56  H    0.018236
    57  H    0.006741
    58  H    0.027312
    59  H    0.040392
    60  H    0.038103
    61  H    0.035678
    62  H    0.031528
    63  H    0.021205
    64  H    0.019288
    65  H    0.025805
    66  H    0.016450
    67  H    0.006340
    68  H    0.003994
    69  H   -0.027478
    70  H    0.045501
    71  H    0.119498
    72  H    0.347289
    73  H    0.055530
    74  H    0.002836
    75  H    0.047724
    76  H    0.035735
    77  H    0.043302
    78  H    0.045984
    79  H    0.055805
    80  Mg   0.833938
    81  C   -0.019521
    82  C   -0.088628
    83  C   -0.047259
    84  C   -0.067079
    85  N   -0.258729
    86  C   -0.042623
    87  C   -0.001003
    88  C   -0.084738
    89  C    0.047671
    90  C    0.117302
    91  C    0.156323
    92  C   -0.428171
    93  H   -0.560793
    94  N   -0.422758
    95  C    0.162092
    96  C   -0.176259
    97  C   -0.009933
    98  C    0.151609
    99  C    0.099898
   100  C    0.013672
   101  O   -0.255449
   102  C    0.062365
   103  N   -0.350372
   104  C    0.036891
   105  C   -0.019154
   106  C   -0.034603
   107  C    0.089175
   108  C    0.074405
   109  C    0.035263
   110  C   -0.007303
   111  N   -0.324179
   112  C    0.079508
   113  C   -0.163214
   114  C    0.001953
   115  C    0.097782
   116  C    0.131349
   117  C    0.043142
   118  O   -0.190385
   119  C    0.001485
   120  C    0.212796
   121  O   -0.246756
   122  O   -0.306255
   123  C    0.181049
   124  H   -0.020487
   125  H   -0.018050
   126  H   -0.042563
   127  H   -0.014222
   128  H   -0.003440
   129  H    0.018146
   130  H    0.009559
   131  H    0.013017
   132  H   -0.005815
   133  H   -0.018112
   134  H   -0.065276
   135  H   -0.044884
   136  H    0.010262
   137  H    0.024108
   138  H    0.035561
   139  H    0.037933
   140  H    0.033804
   141  H    0.031326
   142  H    0.012617
   143  H    0.011065
   144  H    0.023232
   145  H    0.011436
   146  H    0.004305
   147  H    0.004422
   148  H    0.002903
   149  H    0.009535
   150  H    0.016464
   151  H    0.031774
   152  H    0.046045
   153  H    0.007557
   154  H    0.045354
   155  H    0.033915
   156  H    0.045562
   157  H   -0.018454
   158  H    0.052351
 Sum of Mulliken charges =  -0.00000

 Dipole moment (field-independent basis, Debye):
    X=             -5.0961    Y=              5.9408    Z=              2.0223  Tot=              8.0842
 Quadrupole moment (field-independent basis, Debye-Ang):
   XX=           -492.4435   YY=           -537.9138   ZZ=           -470.1491
   XY=            -23.2981   XZ=            -10.4153   YZ=            -12.6189

 Normal termination of Gaussian 16 at Thu Sep  9 20:27:44 2021.
