 Gaussian 16, Revision A.03,
 Gaussian 16:  ES64L-G16RevA.03 25-Dec-2016

 -----------------------------------
 #p cam-b3lyp/Def2SVP td=(nstates=5)
 -----------------------------------

 --------------------------------
 TDDFT excited states in gaussian
 --------------------------------
 Symbolic Z-matrix:
 Charge =  0 Multiplicity = 1

                         Standard orientation:
 ---------------------------------------------------------------------
 Center     Atomic      Atomic             Coordinates (Angstroms)
 Number     Number       Type             X           Y           Z
 ---------------------------------------------------------------------
      1         12           0       15.519394    0.668060    0.380456
      2          6           0       15.794490   -2.432323   -1.387073
      3          6           0       16.435663    2.227632   -2.512856
      4          6           0       15.725395    3.369070    2.029314
      5          6           0       15.741783   -1.166480    3.335226
      6          7           0       16.022934   -0.111874   -1.629220
      7          6           0       16.032255   -1.316106   -2.192165
      8          6           0       16.244066   -1.275167   -3.735161
      9          6           0       16.982992    0.132907   -3.850542
     10          6           0       16.421112    0.804465   -2.609886
     11          6           0       18.499195    0.038312   -3.713853
     12          6           0       14.889992   -1.277694   -4.521423
     13          6           0       15.005625   -1.567082   -6.020836
     14          1           0       13.951922   -2.332712   -6.669579
     15          7           0       15.529752    2.545950   -0.232956
     16          6           0       15.918743    2.998497   -1.449168
     17          6           0       15.741134    4.466111   -1.413877
     18          6           0       15.397538    4.849391   -0.016332
     19          6           0       15.565014    3.590368    0.663513
     20          6           0       15.850215    5.337547   -2.627323
     21          6           0       14.994070    6.147049    0.609311
     22          8           0       14.966815    6.311580    1.876892
     23          6           0       14.713187    7.261904   -0.313319
     24          7           0       15.926870    1.079960    2.385933
     25          6           0       15.897216    2.332985    2.852873
     26          6           0       15.937837    2.358097    4.352093
     27          6           0       15.755847    0.843733    4.824676
     28          6           0       15.722274    0.164715    3.433246
     29          6           0       17.214064    2.937972    4.977393
     30          6           0       14.602344    0.550420    5.816552
     31          6           0       13.270590    0.766912    5.133426
     32          7           0       15.552907   -1.433905    0.920516
     33          6           0       15.673508   -1.971236    2.210246
     34          6           0       15.757960   -3.435794    2.061901
     35          6           0       15.696899   -3.649023    0.686165
     36          6           0       15.608041   -2.395480    0.016069
     37          6           0       15.932706   -4.371810    3.119148
     38          6           0       15.710861   -4.642898   -0.374908
     39          8           0       15.676661   -5.873770   -0.410640
     40          6           0       15.897371   -3.889041   -1.765138
     41          6           0       14.876090   -4.440967   -2.722045
     42          8           0       13.657276   -4.243197   -2.541088
     43          8           0       15.497902   -4.905774   -3.816507
     44          6           0       14.539023   -5.441012   -4.819615
     45          1           0       16.939684    2.804583   -3.290693
     46          1           0       15.690159    4.270800    2.644196
     47          1           0       15.727557   -1.808851    4.217615
     48          1           0       16.884976   -2.065151   -4.127058
     49          1           0       16.682813    0.677905   -4.745300
     50          1           0       18.811722   -0.966597   -3.430294
     51          1           0       18.766513    0.753837   -2.935999
     52          1           0       18.992403    0.385097   -4.622293
     53          1           0       14.493913   -0.262894   -4.558334
     54          1           0       14.184497   -1.977739   -4.072491
     55          1           0       15.984873   -1.974520   -6.273771
     56          1           0       14.960322   -0.618654   -6.556216
     57          1           0       16.274752    4.796524   -3.472076
     58          1           0       16.586582    6.108318   -2.400641
     59          1           0       14.898706    5.802695   -2.885395
     60          1           0       15.599779    7.463222   -0.914962
     61          1           0       14.353916    8.082303    0.306938
     62          1           0       13.932803    6.955269   -1.010403
     63          1           0       15.123367    2.958466    4.755356
     64          1           0       16.644024    0.463344    5.329770
     65          1           0       17.030157    3.775096    5.651267
     66          1           0       17.884366    3.227096    4.168446
     67          1           0       17.826108    2.217057    5.518780
     68          1           0       14.644871    1.237073    6.661327
     69          1           0       14.623313   -0.464796    6.212971
     70          1           0       13.119129    1.841391    5.230312
     71          1           0       12.484492    0.213811    5.648537
     72          1           0       13.327982    0.540646    4.068533
     73          1           0       15.247881   -5.194639    2.914361
     74          1           0       15.727480   -3.917473    4.088200
     75          1           0       16.984771   -4.626311    2.991691
     76          1           0       16.916674   -4.087377   -2.094995
     77          1           0       14.835669   -6.468434   -5.030891
     78          1           0       14.533267   -4.735037   -5.650260
     79          1           0       13.514620   -5.589092   -4.476088
     80         12           0      -16.213732    0.297463   -0.274129
     81          6           0      -13.795031   -1.821989    1.318644
     82          6           0      -14.217111    2.939095    0.544350
     83          6           0      -18.529232    2.227000   -1.265468
     84          6           0      -18.504788   -2.308786    0.048671
     85          7           0      -14.280170    0.415822    0.793398
     86          6           0      -13.425590   -0.460906    1.298746
     87          6           0      -12.066304    0.145975    1.738752
     88          6           0      -12.545183    1.659963    1.978302
     89          6           0      -13.735444    1.694067    1.021857
     90          6           0      -13.056688    1.913681    3.386609
     91          6           0      -10.979586    0.058994    0.610252
     92          6           0       -9.549369    0.348667    1.071035
     93          1           0       -8.454912   -0.394486    0.452676
     94          7           0      -16.156414    2.212893   -0.790269
     95          6           0      -15.263452    3.139084   -0.382741
     96          6           0      -15.666226    4.397884   -1.028785
     97          6           0      -16.965452    4.175758   -1.719718
     98          6           0      -17.284662    2.839803   -1.257765
     99          6           0      -14.806322    5.628300   -1.020364
    100          6           0      -17.791030    5.029958   -2.633482
    101          8           0      -19.001527    4.727557   -2.926892
    102          6           0      -17.172131    6.279247   -3.100083
    103          7           0      -18.279305    0.084676   -0.376454
    104          6           0      -19.049338    1.055817   -0.897861
    105          6           0      -20.462171    0.571286   -1.120446
    106          6           0      -20.420562   -1.006745   -0.864212
    107          6           0      -18.945163   -1.154104   -0.431899
    108          6           0      -21.530505    1.203433   -0.228570
    109          6           0      -20.951535   -1.919010   -2.003728
    110          6           0      -20.034907   -1.833473   -3.202833
    111          7           0      -16.142127   -1.766824    0.359637
    112          6           0      -17.223006   -2.671820    0.441889
    113          6           0      -16.701329   -3.920325    1.034793
    114          6           0      -15.347542   -3.644954    1.279538
    115          6           0      -15.051428   -2.311677    0.886859
    116          6           0      -17.464378   -5.087120    1.321944
    117          6           0      -14.104121   -4.175433    1.790622
    118          8           0      -13.725924   -5.279047    2.181431
    119          6           0      -13.073266   -2.976904    1.955698
    120          6           0      -11.763747   -3.404004    1.351338
    121          8           0      -11.670710   -3.615580    0.129380
    122          8           0      -10.791995   -3.281864    2.273920
    123          6           0       -9.472103   -3.683338    1.718470
    124          1           0      -13.781655    3.853378    0.948510
    125          1           0      -19.340938    2.813616   -1.701917
    126          1           0      -19.133228   -3.200917    0.091663
    127          1           0      -11.660710   -0.265161    2.655387
    128          1           0      -11.783717    2.369374    1.664851
    129          1           0      -13.124318    1.001789    3.961069
    130          1           0      -14.035517    2.359694    3.268157
    131          1           0      -12.439319    2.668794    3.881559
    132          1           0      -11.123518    0.891552   -0.090379
    133          1           0      -11.015113   -0.894311    0.119761
    134          1           0       -9.456799    0.330931    2.163764
    135          1           0       -9.298051    1.376280    0.797403
    136          1           0      -13.987654    5.541942   -0.295291
    137          1           0      -15.423949    6.447432   -0.636399
    138          1           0      -14.443613    5.895508   -2.015201
    139          1           0      -16.906268    6.892803   -2.242566
    140          1           0      -17.879807    6.707664   -3.812494
    141          1           0      -16.236078    6.035052   -3.614655
    142          1           0      -20.777282    0.753473   -2.140549
    143          1           0      -21.032459   -1.294975    0.003167
    144          1           0      -22.345058    1.687768   -0.799536
    145          1           0      -21.049310    1.916980    0.427063
    146          1           0      -22.003973    0.523532    0.477660
    147          1           0      -21.933178   -1.574599   -2.338267
    148          1           0      -21.057407   -2.958321   -1.711120
    149          1           0      -20.381397   -0.930516   -3.714403
    150          1           0      -20.147108   -2.712527   -3.834264
    151          1           0      -18.997646   -1.659722   -2.893710
    152          1           0      -16.872186   -5.933422    1.000110
    153          1           0      -18.430304   -5.063566    0.821727
    154          1           0      -17.561642   -4.994419    2.406948
    155          1           0      -12.982878   -2.767089    3.022176
    156          1           0       -9.071775   -4.460908    2.376344
    157          1           0       -8.887980   -2.748028    1.630569
    158          1           0       -9.464758   -4.191660    0.761380
 ---------------------------------------------------------------------

 SCF Done:  E(RCAM-B3LYP) =  -4069.81176639     A.U. after   19 cycles

 Excitation energies and oscillator strengths:

 Excited State   1:      Singlet-A      1.6753 eV  740.07 nm  f=0.2064  <S**2>=0.000
     310 -> 316        0.16815
     311 -> 314       -0.16900
     312 -> 313        0.66491
     310 <- 316        0.10137
 This state for optimization and/or second-order correction.
 Total Energy, E(TD-HF/TD-DFT) =  -4069.75020015
 Copying the excited state density for this state as the 1-particle RhoCI density.

 Excited State   2:      Singlet-A      1.6801 eV  737.95 nm  f=0.5708  <S**2>=0.000
     309 -> 315        0.17017
     311 -> 314        0.66454
     312 -> 313        0.16895
     309 <- 315        0.10188

 Excited State   3:      Singlet-A      2.1861 eV  567.16 nm  f=0.1024  <S**2>=0.000
     310 -> 313        0.64243
     312 -> 316       -0.27306

 Excited State   4:      Singlet-A      2.1925 eV  565.50 nm  f=0.0991  <S**2>=0.000
     309 -> 314        0.64066
     311 -> 315       -0.27823

 Excited State   5:      Singlet-A      3.0665 eV  404.32 nm  f=0.0000  <S**2>=0.000
     312 -> 314        0.70710

 The electronic state is 1-A.
 Alpha  occ. eigenvalues --  -46.87800 -46.87658 -19.26332 -19.26279 -19.19147
 Alpha  occ. eigenvalues --  -19.19016 -19.18823 -19.18714 -19.18170 -19.18046
 Alpha  occ. eigenvalues --  -14.42495 -14.42453 -14.41454 -14.41358 -14.39407
 Alpha  occ. eigenvalues --  -14.39350 -14.38598 -14.38590 -10.39077 -10.39076
 Alpha  occ. eigenvalues --  -10.35456 -10.35392 -10.34390 -10.34223 -10.31733
 Alpha  occ. eigenvalues --  -10.31671 -10.31407 -10.31305 -10.31020 -10.30912
 Alpha  occ. eigenvalues --  -10.30573 -10.30511 -10.30396 -10.30358 -10.30212
 Alpha  occ. eigenvalues --  -10.30141 -10.29925 -10.29893 -10.29635 -10.29436
 Alpha  occ. eigenvalues --  -10.29399 -10.29259 -10.28749 -10.28711 -10.28637
 Alpha  occ. eigenvalues --  -10.28534 -10.28402 -10.28368 -10.28134 -10.28117
 Alpha  occ. eigenvalues --  -10.27999 -10.27796 -10.27730 -10.27667 -10.27589
 Alpha  occ. eigenvalues --  -10.27520 -10.27508 -10.27487 -10.27480 -10.27466
 Alpha  occ. eigenvalues --  -10.27463 -10.27456 -10.27406 -10.27378 -10.27158
 Alpha  occ. eigenvalues --  -10.27043 -10.26703 -10.26681 -10.26421 -10.26417
 Alpha  occ. eigenvalues --  -10.26234 -10.26192 -10.26140 -10.26024 -10.26020
 Alpha  occ. eigenvalues --  -10.25933 -10.25849 -10.25845 -10.25442 -10.25401
 Alpha  occ. eigenvalues --  -10.24870 -10.24836 -10.24792 -10.24733 -10.24697
 Alpha  occ. eigenvalues --  -10.24688  -3.16543  -3.16408  -1.91425  -1.91291
 Alpha  occ. eigenvalues --   -1.91011  -1.90879  -1.90854  -1.90716  -1.16628
 Alpha  occ. eigenvalues --   -1.16627  -1.08652  -1.08627  -1.07224  -1.06967
 Alpha  occ. eigenvalues --   -1.06932  -1.06639  -1.04584  -1.04492  -1.03764
 Alpha  occ. eigenvalues --   -1.03661  -1.03238  -1.03037  -1.02415  -1.02110
 Alpha  occ. eigenvalues --   -0.91983  -0.91974  -0.89525  -0.89494  -0.89188
 Alpha  occ. eigenvalues --   -0.89145  -0.88292  -0.88221  -0.87873  -0.87792
 Alpha  occ. eigenvalues --   -0.87681  -0.87676  -0.87279  -0.87119  -0.84994
 Alpha  occ. eigenvalues --   -0.84983  -0.83942  -0.83876  -0.82974  -0.82932
 Alpha  occ. eigenvalues --   -0.82651  -0.82648  -0.81587  -0.81585  -0.80598
 Alpha  occ. eigenvalues --   -0.80437  -0.78801  -0.78634  -0.77222  -0.77141
 Alpha  occ. eigenvalues --   -0.76935  -0.76892  -0.75924  -0.75832  -0.74902
 Alpha  occ. eigenvalues --   -0.74802  -0.72778  -0.72697  -0.71675  -0.71578
 Alpha  occ. eigenvalues --   -0.69914  -0.69758  -0.68875  -0.68822  -0.67644
 Alpha  occ. eigenvalues --   -0.67598  -0.67221  -0.67193  -0.65287  -0.65265
 Alpha  occ. eigenvalues --   -0.64856  -0.64767  -0.64648  -0.64623  -0.64274
 Alpha  occ. eigenvalues --   -0.64203  -0.62297  -0.62269  -0.60447  -0.60339
 Alpha  occ. eigenvalues --   -0.59806  -0.59791  -0.58990  -0.58990  -0.58507
 Alpha  occ. eigenvalues --   -0.58422  -0.57584  -0.57547  -0.57312  -0.57235
 Alpha  occ. eigenvalues --   -0.56313  -0.56201  -0.55976  -0.55876  -0.55524
 Alpha  occ. eigenvalues --   -0.55447  -0.55343  -0.55244  -0.54525  -0.54482
 Alpha  occ. eigenvalues --   -0.53906  -0.53895  -0.53303  -0.53225  -0.53224
 Alpha  occ. eigenvalues --   -0.53136  -0.52916  -0.52896  -0.52760  -0.52666
 Alpha  occ. eigenvalues --   -0.52445  -0.52402  -0.51917  -0.51883  -0.51652
 Alpha  occ. eigenvalues --   -0.51618  -0.51198  -0.51197  -0.50579  -0.50475
 Alpha  occ. eigenvalues --   -0.50037  -0.49977  -0.49923  -0.49867  -0.49517
 Alpha  occ. eigenvalues --   -0.49484  -0.49217  -0.49198  -0.49099  -0.49097
 Alpha  occ. eigenvalues --   -0.48594  -0.48552  -0.48467  -0.48449  -0.48375
 Alpha  occ. eigenvalues --   -0.48336  -0.47698  -0.47591  -0.47300  -0.47116
 Alpha  occ. eigenvalues --   -0.46800  -0.46706  -0.46556  -0.46548  -0.46363
 Alpha  occ. eigenvalues --   -0.46268  -0.46165  -0.46082  -0.45822  -0.45816
 Alpha  occ. eigenvalues --   -0.45208  -0.45207  -0.44579  -0.44511  -0.44509
 Alpha  occ. eigenvalues --   -0.44471  -0.44149  -0.44123  -0.44090  -0.44076
 Alpha  occ. eigenvalues --   -0.44022  -0.43935  -0.43544  -0.43495  -0.43388
 Alpha  occ. eigenvalues --   -0.43381  -0.43030  -0.42922  -0.42895  -0.42700
 Alpha  occ. eigenvalues --   -0.42657  -0.42553  -0.42013  -0.41961  -0.41706
 Alpha  occ. eigenvalues --   -0.41665  -0.41535  -0.41453  -0.41144  -0.40986
 Alpha  occ. eigenvalues --   -0.40872  -0.40829  -0.40719  -0.40694  -0.40576
 Alpha  occ. eigenvalues --   -0.40492  -0.40234  -0.40218  -0.39448  -0.39426
 Alpha  occ. eigenvalues --   -0.38474  -0.38349  -0.37748  -0.37645  -0.37325
 Alpha  occ. eigenvalues --   -0.37265  -0.37264  -0.37194  -0.36760  -0.36712
 Alpha  occ. eigenvalues --   -0.36213  -0.36194  -0.34289  -0.34251  -0.33850
 Alpha  occ. eigenvalues --   -0.33768  -0.33189  -0.33173  -0.31352  -0.31273
 Alpha  occ. eigenvalues --   -0.31039  -0.30970  -0.30029  -0.29950  -0.29453
 Alpha  occ. eigenvalues --   -0.29326  -0.29325  -0.29209  -0.24084  -0.24034
 Alpha  occ. eigenvalues --   -0.21131  -0.21115
 Alpha virt. eigenvalues --   -0.08790  -0.08778  -0.01754  -0.01682  -0.00063
 Alpha virt. eigenvalues --   -0.00027   0.02198   0.02210   0.03115   0.03228
 Alpha virt. eigenvalues --    0.04716   0.04735   0.05101   0.05178   0.06178

 Mulliken charges:
               1
     1  Mg   0.838688
     2  C   -0.002943
     3  C   -0.094112
     4  C   -0.045936
     5  C   -0.063954
     6  N   -0.256785
     7  C   -0.052458
     8  C   -0.014004
     9  C   -0.086986
    10  C    0.046321
    11  C    0.104806
    12  C    0.053463
    13  C   -0.071839
    14  H    0.036214
    15  N   -0.433143
    16  C    0.168406
    17  C   -0.177154
    18  C   -0.004038
    19  C    0.148725
    20  C    0.110171
    21  C    0.012246
    22  O   -0.249684
    23  C    0.062499
    24  N   -0.341130
    25  C    0.041260
    26  C   -0.028163
    27  C   -0.023954
    28  C    0.074806
    29  C    0.076170
    30  C    0.035133
    31  C   -0.004492
    32  N   -0.310469
    33  C    0.080413
    34  C   -0.169709
    35  C    0.008393
    36  C    0.082985
    37  C    0.127307
    38  C    0.046139
    39  O   -0.188353
    40  C   -0.005353
    41  C    0.212906
    42  O   -0.257104
    43  O   -0.304798
    44  C    0.157659
    45  H   -0.017590
    46  H   -0.016883
    47  H   -0.041489
    48  H    0.000975
    49  H   -0.004018
    50  H    0.025491
    51  H    0.016430
    52  H    0.016680
    53  H    0.011180
    54  H    0.044135
    55  H    0.017893
    56  H    0.017947
    57  H    0.005901
    58  H    0.026814
    59  H    0.039513
    60  H    0.037367
    61  H    0.035573
    62  H    0.031470
    63  H    0.016493
    64  H    0.009476
    65  H    0.023169
    66  H    0.012564
    67  H    0.004764
    68  H    0.006329
    69  H    0.004755
    70  H    0.008719
    71  H    0.018111
    72  H    0.029002
    73  H    0.047613
    74  H    0.009102
    75  H    0.046037
    76  H    0.035181
    77  H    0.043005
    78  H    0.046413
    79  H    0.053727
    80  Mg   0.837817
    81  C   -0.016784
    82  C   -0.087779
    83  C   -0.045516
    84  C   -0.064911
    85  N   -0.254559
    86  C   -0.049824
    87  C   -0.015096
    88  C   -0.090489
    89  C    0.045755
    90  C    0.114374
    91  C    0.062517
    92  C   -0.077980
    93  H    0.035103
    94  N   -0.423496
    95  C    0.162932
    96  C   -0.174632
    97  C   -0.007825
    98  C    0.152112
    99  C    0.099365
   100  C    0.015563
   101  O   -0.253214
   102  C    0.061194
   103  N   -0.350066
   104  C    0.037510
   105  C   -0.019810
   106  C   -0.034821
   107  C    0.088925
   108  C    0.073654
   109  C    0.034726
   110  C   -0.007669
   111  N   -0.324110
   112  C    0.078463
   113  C   -0.163141
   114  C    0.002266
   115  C    0.096191
   116  C    0.131478
   117  C    0.042396
   118  O   -0.187775
   119  C    0.000905
   120  C    0.211291
   121  O   -0.251004
   122  O   -0.305644
   123  C    0.151976
   124  H   -0.019648
   125  H   -0.015601
   126  H   -0.040467
   127  H   -0.000595
   128  H   -0.004286
   129  H    0.022469
   130  H    0.014381
   131  H    0.016315
   132  H    0.013891
   133  H    0.037706
   134  H    0.020825
   135  H    0.019589
   136  H    0.008786
   137  H    0.026124
   138  H    0.039789
   139  H    0.038249
   140  H    0.036371
   141  H    0.033902
   142  H    0.014387
   143  H    0.012401
   144  H    0.025121
   145  H    0.011632
   146  H    0.005655
   147  H    0.006243
   148  H    0.003654
   149  H    0.010919
   150  H    0.017938
   151  H    0.030127
   152  H    0.046051
   153  H    0.008497
   154  H    0.046940
   155  H    0.035049
   156  H    0.044028
   157  H    0.049549
   158  H    0.053638
 Sum of Mulliken charges =  -0.00000

 Dipole moment (field-independent basis, Debye):
    X=              3.0347    Y=              7.4162    Z=             -1.3085  Tot=              8.1192
 Quadrupole moment (field-independent basis, Debye-Ang):
   XX=           -459.4649   YY=           -547.4514   ZZ=           -476.2766
   XY=             14.3944   XZ=            -60.3660   YZ=             -4.9389

 Normal termination of Gaussian 16 at Sun Sep 12 15:45:37 2021.
