 Gaussian 16, Revision A.03,
 Gaussian 16:  ES64L-G16RevA.03 25-Dec-2016

 -----------------------------------
 #p cam-b3lyp/Def2SVP td=(nstates=5)
 -----------------------------------

 --------------------------------
 TDDFT excited states in gaussian
 --------------------------------
 Symbolic Z-matrix:
 Charge =  0 Multiplicity = 1

                         Standard orientation:
 ---------------------------------------------------------------------
 Center     Atomic      Atomic             Coordinates (Angstroms)
 Number     Number       Type             X           Y           Z
 ---------------------------------------------------------------------
      1         12           0       -7.840041    0.560014   -0.596151
      2          6           0       -8.132808   -2.520839    1.202417
      3          6           0       -8.928662    2.138802    2.226153
      4          6           0       -8.024756    3.232503   -2.293298
      5          6           0       -7.879539   -1.320023   -3.530357
      6          7           0       -8.423021   -0.202945    1.398510
      7          6           0       -8.433372   -1.399127    1.978348
      8          6           0       -8.720314   -1.341460    3.508614
      9          6           0       -9.494355    0.051170    3.567281
     10          6           0       -8.887913    0.717808    2.345092
     11          6           0      -10.999772   -0.079279    3.359423
     12          6           0       -7.406069   -1.302687    4.358900
     13          6           0       -7.587689   -1.573684    5.855206
     14          1           0       -6.550178   -2.306395    6.565172
     15          7           0       -7.920798    2.445561   -0.012163
     16          6           0       -8.377824    2.906170    1.177061
     17          6           0       -8.230630    4.376762    1.128338
     18          6           0       -7.828327    4.748147   -0.256696
     19          6           0       -7.935385    3.476340   -0.924846
     20          6           0       -8.417102    5.262350    2.321951
     21          6           0       -7.423382    6.045682   -0.881638
     22          8           0       -7.338504    6.193112   -2.148775
     23          6           0       -7.211674    7.179293    0.036592
     24          7           0       -8.159009    0.934707   -2.624821
     25          6           0       -8.134051    2.181457   -3.108531
     26          6           0       -8.102736    2.184770   -4.608180
     27          6           0       -7.865285    0.668431   -5.048732
     28          6           0       -7.884231    0.009781   -3.647271
     29          6           0       -9.359557    2.727132   -5.302626
     30          6           0       -6.659116    0.387260   -5.979601
     31          6           0       -5.366934    0.643039   -5.236675
     32          7           0       -7.801771   -1.549491   -1.105627
     33          6           0       -7.848230   -2.107301   -2.391460
     34          6           0       -7.907925   -3.571175   -2.225400
     35          6           0       -7.908778   -3.763802   -0.845277
     36          6           0       -7.879638   -2.499372   -0.190556
     37          6           0       -8.011025   -4.525507   -3.275665
     38          6           0       -7.952396   -4.742866    0.228682
     39          8           0       -7.893240   -5.972046    0.284461
     40          6           0       -8.222174   -3.974090    1.596903
     41          6           0       -7.236567   -4.489607    2.609884
     42          8           0       -6.015017   -4.267108    2.484680
     43          8           0       -7.900284   -4.952946    3.680089
     44          6           0       -6.979586   -5.452536    4.735967
     45          1           0       -9.482081    2.715089    2.970170
     46          1           0       -7.979448    4.126144   -2.919229
     47          1           0       -7.808757   -1.974140   -4.401318
     48          1           0       -9.362101   -2.140076    3.881101
     49          1           0       -9.249657    0.615167    4.467143
     50          1           0      -11.276340   -1.094792    3.076288
     51          1           0      -11.244677    0.619172    2.558998
     52          1           0      -11.543704    0.268983    4.237847
     53          1           0       -7.034367   -0.278849    4.399560
     54          1           0       -6.664675   -1.992928    3.954886
     55          1           0       -8.568934   -1.999405    6.066936
     56          1           0       -7.588909   -0.617115    6.377866
     57          1           0       -8.870102    4.723765    3.153373
     58          1           0       -9.158223    6.013191    2.048665
     59          1           0       -7.489497    5.752256    2.618387
     60          1           0       -8.130458    7.369049    0.591910
     61          1           0       -6.840760    7.998821   -0.577938
     62          1           0       -6.459401    6.899965    0.774840
     63          1           0       -7.282966    2.797569   -4.980847
     64          1           0       -8.719555    0.261233   -5.590107
     65          1           0       -9.161534    3.558701   -5.979372
     66          1           0      -10.074276    3.012397   -4.531204
     67          1           0       -9.928933    1.985210   -5.861894
     68          1           0       -6.675686    1.060955   -6.835642
     69          1           0       -6.638859   -0.633594   -6.361307
     70          1           0       -5.234338    1.719189   -5.342277
     71          1           0       -4.545043    0.100575   -5.705119
     72          1           0       -5.470774    0.430397   -4.172491
     73          1           0       -7.319185   -5.329848   -3.025939
     74          1           0       -7.769140   -4.080224   -4.240454
     75          1           0       -9.062243   -4.801724   -3.195042
     76          1           0       -9.251674   -4.190608    1.880401
     77          1           0       -7.263711   -6.483307    4.948142
     78          1           0       -7.029296   -4.735110    5.555256
     79          1           0       -5.936810   -5.582389    4.444255
     80         12           0        8.003944    0.727565    0.496984
     81          6           0        7.982028   -2.076358   -1.742796
     82          6           0        6.979785   -1.412503    2.947665
     83          6           0        7.579079    3.245409    2.380435
     84          6           0        7.906183    2.792476   -2.308776
     85          7           0        7.571903   -1.441623    0.481605
     86          6           0        7.657957   -2.415033   -0.412487
     87          6           0        7.459754   -3.840960    0.168040
     88          6           0        6.604385   -3.453464    1.470762
     89          6           0        7.103576   -2.024527    1.674794
     90          6           0        5.107216   -3.404428    1.214999
     91          6           0        8.818804   -4.522945    0.555174
     92          6           0        8.727540   -6.024195    0.837425
     93          1           0        9.847943   -6.875296    0.446537
     94          7           0        7.850748    0.842478    2.472303
     95          6           0        7.439866   -0.128705    3.314476
     96          6           0        7.485819    0.460864    4.661489
     97          6           0        7.799583    1.909554    4.528996
     98          6           0        7.733338    2.063044    3.089512
     99          6           0        7.322871   -0.353322    5.912078
    100          6           0        8.095979    2.982389    5.532676
    101          8           0        8.105471    4.222690    5.209572
    102          6           0        8.282640    2.545141    6.923886
    103          7           0        7.562448    2.721428    0.107218
    104          6           0        7.484312    3.619925    1.104475
    105          6           0        7.431314    5.029638    0.565687
    106          6           0        7.735138    4.903130   -0.999322
    107          6           0        7.827072    3.365811   -1.115796
    108          6           0        6.109772    5.770287    0.769055
    109          6           0        8.904111    5.758160   -1.560668
    110          6           0       10.219801    5.260577   -1.006816
    111          7           0        8.138471    0.452854   -1.641827
    112          6           0        8.047912    1.450320   -2.637295
    113          6           0        8.080973    0.764332   -3.945252
    114          6           0        8.165958   -0.597127   -3.617107
    115          6           0        8.164189   -0.750238   -2.204284
    116          6           0        7.985955    1.394790   -5.217895
    117          6           0        8.246050   -1.940257   -4.144626
    118          8           0        8.370657   -2.426341   -5.267981
    119          6           0        8.003015   -2.965808   -2.954846
    120          6           0        9.069254   -4.024195   -3.028810
    121          8           0       10.262972   -3.733336   -2.836323
    122          8           0        8.484949   -5.234211   -3.098167
    123          6           0        9.501849   -6.317558   -3.162155
    124          1           0        6.442148   -1.947907    3.730712
    125          1           0        7.539625    4.155300    2.983774
    126          1           0        7.978828    3.372242   -3.231419
    127          1           0        6.891582   -4.513534   -0.463309
    128          1           0        6.873724   -4.076334    2.319782
    129          1           0        4.873344   -3.523097    0.167441
    130          1           0        4.780016   -2.435310    1.568274
    131          1           0        4.593870   -4.141703    1.838882
    132          1           0        9.130292   -4.164325    1.544674
    133          1           0        9.563698   -4.340916   -0.194910
    134          1           0        7.779826   -6.452283    0.488791
    135          1           0        8.706860   -6.173178    1.919730
    136          1           0        6.939985   -1.357363    5.691356
    137          1           0        6.527041    0.117906    6.498989
    138          1           0        8.233313   -0.387224    6.514241
    139          1           0        7.387996    2.028450    7.263155
    140          1           0        8.573527    3.441321    7.475347
    141          1           0        9.098700    1.814565    6.954495
    142          1           0        8.194449    5.647374    1.023008
    143          1           0        6.873192    5.213418   -1.608104
    144          1           0        6.224007    6.724276    1.317616
    145          1           0        5.426181    5.112243    1.288880
    146          1           0        5.562371    5.997372   -0.144168
    147          1           0        8.803593    6.796729   -1.235976
    148          1           0        8.954122    5.762956   -2.644392
    149          1           0       10.279161    5.753185   -0.031675
    150          1           0       11.044223    5.559664   -1.650944
    151          1           0       10.188096    4.179432   -0.828578
    152          1           0        8.727585    0.928281   -5.852604
    153          1           0        8.144775    2.468508   -5.142519
    154          1           0        6.953216    1.150025   -5.480189
    155          1           0        7.003019   -3.382606   -3.080731
    156          1           0        9.285488   -6.906281   -4.058966
    157          1           0        9.442289   -6.841040   -2.189443
    158          1           0       10.530907   -6.029040   -3.341747
 ---------------------------------------------------------------------

 SCF Done:  E(RCAM-B3LYP) =  -4069.81188795     A.U. after   19 cycles

 Excitation energies and oscillator strengths:

 Excited State   1:      Singlet-A      1.6740 eV  740.65 nm  f=0.2662  <S**2>=0.000
     310 -> 316        0.15715
     311 -> 313       -0.28670
     312 -> 314        0.62336
 This state for optimization and/or second-order correction.
 Total Energy, E(TD-HF/TD-DFT) =  -4069.75037018
 Copying the excited state density for this state as the 1-particle RhoCI density.

 Excited State   2:      Singlet-A      1.6808 eV  737.67 nm  f=0.4843  <S**2>=0.000
     309 -> 315        0.15982
     311 -> 313        0.62288
     312 -> 314        0.28649

 Excited State   3:      Singlet-A      2.1855 eV  567.31 nm  f=0.0939  <S**2>=0.000
     310 -> 314        0.63926
     312 -> 316       -0.27097

 Excited State   4:      Singlet-A      2.1929 eV  565.40 nm  f=0.1047  <S**2>=0.000
     309 -> 313        0.63728
     311 -> 315       -0.27705

 Excited State   5:      Singlet-A      2.7633 eV  448.69 nm  f=0.0000  <S**2>=0.000
     312 -> 313        0.70710

 The electronic state is 1-A.
 Alpha  occ. eigenvalues --  -46.87839 -46.87586 -19.26371 -19.26261 -19.19105
 Alpha  occ. eigenvalues --  -19.19078 -19.18850 -19.18664 -19.18223 -19.17976
 Alpha  occ. eigenvalues --  -14.42494 -14.42416 -14.41489 -14.41287 -14.39444
 Alpha  occ. eigenvalues --  -14.39279 -14.38630 -14.38526 -10.39161 -10.39006
 Alpha  occ. eigenvalues --  -10.35482 -10.35343 -10.34444 -10.34152 -10.31779
 Alpha  occ. eigenvalues --  -10.31667 -10.31452 -10.31221 -10.30956 -10.30940
 Alpha  occ. eigenvalues --  -10.30614 -10.30549 -10.30328 -10.30284 -10.30241
 Alpha  occ. eigenvalues --  -10.30074 -10.29959 -10.29827 -10.29672 -10.29367
 Alpha  occ. eigenvalues --  -10.29332 -10.29293 -10.28808 -10.28621 -10.28612
 Alpha  occ. eigenvalues --  -10.28551 -10.28410 -10.28329 -10.28169 -10.28022
 Alpha  occ. eigenvalues --  -10.27929 -10.27835 -10.27770 -10.27625 -10.27586
 Alpha  occ. eigenvalues --  -10.27524 -10.27517 -10.27475 -10.27463 -10.27450
 Alpha  occ. eigenvalues --  -10.27406 -10.27404 -10.27399 -10.27323 -10.27218
 Alpha  occ. eigenvalues --  -10.26965 -10.26778 -10.26595 -10.26440 -10.26378
 Alpha  occ. eigenvalues --  -10.26281 -10.26197 -10.26091 -10.26056 -10.25879
 Alpha  occ. eigenvalues --  -10.25865 -10.25865 -10.25787 -10.25456 -10.25352
 Alpha  occ. eigenvalues --  -10.24877 -10.24827 -10.24800 -10.24700 -10.24687
 Alpha  occ. eigenvalues --  -10.24621  -3.16582  -3.16336  -1.91464  -1.91218
 Alpha  occ. eigenvalues --   -1.91050  -1.90892  -1.90806  -1.90643  -1.16719
 Alpha  occ. eigenvalues --   -1.16556  -1.08683  -1.08582  -1.07250  -1.06918
 Alpha  occ. eigenvalues --   -1.06862  -1.06727  -1.04626  -1.04413  -1.03801
 Alpha  occ. eigenvalues --   -1.03589  -1.03275  -1.02968  -1.02453  -1.02038
 Alpha  occ. eigenvalues --   -0.92021  -0.91908  -0.89552  -0.89430  -0.89242
 Alpha  occ. eigenvalues --   -0.89045  -0.88318  -0.88160  -0.87912  -0.87723
 Alpha  occ. eigenvalues --   -0.87718  -0.87604  -0.87312  -0.87059  -0.85035
 Alpha  occ. eigenvalues --   -0.84907  -0.83968  -0.83818  -0.83000  -0.82878
 Alpha  occ. eigenvalues --   -0.82699  -0.82569  -0.81648  -0.81516  -0.80647
 Alpha  occ. eigenvalues --   -0.80366  -0.78837  -0.78568  -0.77261  -0.77064
 Alpha  occ. eigenvalues --   -0.76988  -0.76814  -0.75977  -0.75745  -0.74934
 Alpha  occ. eigenvalues --   -0.74738  -0.72815  -0.72626  -0.71716  -0.71499
 Alpha  occ. eigenvalues --   -0.69932  -0.69701  -0.68923  -0.68740  -0.67686
 Alpha  occ. eigenvalues --   -0.67530  -0.67275  -0.67119  -0.65340  -0.65180
 Alpha  occ. eigenvalues --   -0.64903  -0.64694  -0.64670  -0.64572  -0.64304
 Alpha  occ. eigenvalues --   -0.64139  -0.62362  -0.62199  -0.60479  -0.60277
 Alpha  occ. eigenvalues --   -0.59854  -0.59702  -0.59031  -0.58918  -0.58549
 Alpha  occ. eigenvalues --   -0.58352  -0.57644  -0.57474  -0.57350  -0.57171
 Alpha  occ. eigenvalues --   -0.56354  -0.56131  -0.56049  -0.55804  -0.55563
 Alpha  occ. eigenvalues --   -0.55382  -0.55381  -0.55181  -0.54575  -0.54419
 Alpha  occ. eigenvalues --   -0.53950  -0.53811  -0.53340  -0.53272  -0.53159
 Alpha  occ. eigenvalues --   -0.53063  -0.52969  -0.52822  -0.52799  -0.52598
 Alpha  occ. eigenvalues --   -0.52463  -0.52347  -0.51956  -0.51817  -0.51670
 Alpha  occ. eigenvalues --   -0.51573  -0.51243  -0.51126  -0.50606  -0.50418
 Alpha  occ. eigenvalues --   -0.50062  -0.49958  -0.49900  -0.49805  -0.49562
 Alpha  occ. eigenvalues --   -0.49412  -0.49262  -0.49148  -0.49122  -0.49010
 Alpha  occ. eigenvalues --   -0.48646  -0.48498  -0.48490  -0.48473  -0.48315
 Alpha  occ. eigenvalues --   -0.48276  -0.47740  -0.47518  -0.47339  -0.47050
 Alpha  occ. eigenvalues --   -0.46838  -0.46634  -0.46611  -0.46461  -0.46401
 Alpha  occ. eigenvalues --   -0.46207  -0.46202  -0.46016  -0.45876  -0.45743
 Alpha  occ. eigenvalues --   -0.45234  -0.45146  -0.44629  -0.44548  -0.44438
 Alpha  occ. eigenvalues --   -0.44389  -0.44184  -0.44137  -0.44068  -0.44039
 Alpha  occ. eigenvalues --   -0.44014  -0.43869  -0.43553  -0.43474  -0.43430
 Alpha  occ. eigenvalues --   -0.43304  -0.43072  -0.42851  -0.42823  -0.42768
 Alpha  occ. eigenvalues --   -0.42692  -0.42493  -0.42050  -0.41893  -0.41750
 Alpha  occ. eigenvalues --   -0.41592  -0.41586  -0.41373  -0.41185  -0.40916
 Alpha  occ. eigenvalues --   -0.40903  -0.40863  -0.40655  -0.40617  -0.40606
 Alpha  occ. eigenvalues --   -0.40424  -0.40297  -0.40136  -0.39465  -0.39371
 Alpha  occ. eigenvalues --   -0.38504  -0.38284  -0.37809  -0.37564  -0.37356
 Alpha  occ. eigenvalues --   -0.37317  -0.37196  -0.37113  -0.36781  -0.36692
 Alpha  occ. eigenvalues --   -0.36245  -0.36144  -0.34329  -0.34178  -0.33848
 Alpha  occ. eigenvalues --   -0.33781  -0.33231  -0.33101  -0.31380  -0.31222
 Alpha  occ. eigenvalues --   -0.31079  -0.30898  -0.30083  -0.29879  -0.29490
 Alpha  occ. eigenvalues --   -0.29365  -0.29260  -0.29140  -0.24124  -0.23960
 Alpha  occ. eigenvalues --   -0.21169  -0.21043
 Alpha virt. eigenvalues --   -0.08816  -0.08720  -0.01790  -0.01612  -0.00100
 Alpha virt. eigenvalues --    0.00040   0.02155   0.02279   0.03073   0.03293
 Alpha virt. eigenvalues --    0.04667   0.04817   0.05020   0.05249   0.06108

 Mulliken charges:
               1
     1  Mg   0.838641
     2  C   -0.003136
     3  C   -0.094188
     4  C   -0.045822
     5  C   -0.063813
     6  N   -0.256794
     7  C   -0.052556
     8  C   -0.014010
     9  C   -0.086996
    10  C    0.046290
    11  C    0.104787
    12  C    0.053488
    13  C   -0.071621
    14  H    0.035461
    15  N   -0.433168
    16  C    0.168426
    17  C   -0.177116
    18  C   -0.003933
    19  C    0.148723
    20  C    0.110146
    21  C    0.012302
    22  O   -0.249507
    23  C    0.062468
    24  N   -0.341126
    25  C    0.041282
    26  C   -0.028214
    27  C   -0.023987
    28  C    0.074786
    29  C    0.076130
    30  C    0.035073
    31  C   -0.004551
    32  N   -0.310436
    33  C    0.080336
    34  C   -0.169694
    35  C    0.008284
    36  C    0.082910
    37  C    0.127324
    38  C    0.046007
    39  O   -0.188641
    40  C   -0.005303
    41  C    0.212878
    42  O   -0.257511
    43  O   -0.304636
    44  C    0.157858
    45  H   -0.017552
    46  H   -0.016702
    47  H   -0.041306
    48  H    0.000908
    49  H   -0.004074
    50  H    0.025487
    51  H    0.016569
    52  H    0.016705
    53  H    0.011207
    54  H    0.043804
    55  H    0.018017
    56  H    0.018050
    57  H    0.005863
    58  H    0.026945
    59  H    0.039630
    60  H    0.037407
    61  H    0.035749
    62  H    0.031511
    63  H    0.016649
    64  H    0.009566
    65  H    0.023341
    66  H    0.012524
    67  H    0.004865
    68  H    0.006571
    69  H    0.004895
    70  H    0.008785
    71  H    0.018480
    72  H    0.028725
    73  H    0.047465
    74  H    0.009323
    75  H    0.046066
    76  H    0.035213
    77  H    0.042935
    78  H    0.046387
    79  H    0.053150
    80  Mg   0.837900
    81  C   -0.016789
    82  C   -0.087601
    83  C   -0.045653
    84  C   -0.064922
    85  N   -0.254594
    86  C   -0.049556
    87  C   -0.015177
    88  C   -0.090523
    89  C    0.045756
    90  C    0.114260
    91  C    0.062505
    92  C   -0.077905
    93  H    0.034614
    94  N   -0.423493
    95  C    0.162877
    96  C   -0.174581
    97  C   -0.008019
    98  C    0.152182
    99  C    0.099370
   100  C    0.015416
   101  O   -0.253485
   102  C    0.061255
   103  N   -0.350049
   104  C    0.037587
   105  C   -0.019807
   106  C   -0.034825
   107  C    0.088942
   108  C    0.073701
   109  C    0.034787
   110  C   -0.007629
   111  N   -0.324111
   112  C    0.078508
   113  C   -0.163193
   114  C    0.002326
   115  C    0.096183
   116  C    0.131484
   117  C    0.042376
   118  O   -0.187908
   119  C    0.000953
   120  C    0.211209
   121  O   -0.251199
   122  O   -0.305427
   123  C    0.152084
   124  H   -0.019306
   125  H   -0.015879
   126  H   -0.040592
   127  H   -0.000204
   128  H   -0.004352
   129  H    0.022946
   130  H    0.014587
   131  H    0.017214
   132  H    0.013727
   133  H    0.037479
   134  H    0.021279
   135  H    0.019584
   136  H    0.008994
   137  H    0.025963
   138  H    0.039587
   139  H    0.038140
   140  H    0.036073
   141  H    0.033907
   142  H    0.014198
   143  H    0.012453
   144  H    0.024771
   145  H    0.011669
   146  H    0.005719
   147  H    0.006064
   148  H    0.003611
   149  H    0.010805
   150  H    0.017793
   151  H    0.030211
   152  H    0.045879
   153  H    0.008369
   154  H    0.047038
   155  H    0.035503
   156  H    0.043929
   157  H    0.049636
   158  H    0.053377
 Sum of Mulliken charges =  -0.00000

 Dipole moment (field-independent basis, Debye):
    X=             -4.5062    Y=              1.9335    Z=              5.9715  Tot=              7.7268
 Quadrupole moment (field-independent basis, Debye-Ang):
   XX=           -518.0749   YY=           -518.1649   ZZ=           -481.1241
   XY=            -30.9341   XZ=              8.1015   YZ=            -18.0034

 Normal termination of Gaussian 16 at Sat Sep  4 16:15:48 2021.
