 Gaussian 16, Revision A.03,
 Gaussian 16:  ES64L-G16RevA.03 25-Dec-2016

 -----------------------------------
 #p cam-b3lyp/Def2SVP td=(nstates=5)
 -----------------------------------

 --------------------------------
 TDDFT excited states in gaussian
 --------------------------------
 Symbolic Z-matrix:
 Charge =  0 Multiplicity = 1

                         Standard orientation:
 ---------------------------------------------------------------------
 Center     Atomic      Atomic             Coordinates (Angstroms)
 Number     Number       Type             X           Y           Z
 ---------------------------------------------------------------------
      1         12           0        8.089802   -0.491911    0.012214
      2          6           0        8.177023    2.794185   -1.404180
      3          6           0        8.960935    0.929710    2.989324
      4          6           0        8.462810   -3.418085    1.176257
      5          6           0        8.347013   -1.737176   -3.232600
      6          7           0        8.488304    1.606800    0.592949
      7          6           0        8.429307    2.779362   -0.030580
      8          6           0        8.586093    3.997461    0.928079
      9          6           0        9.375566    3.283585    2.115139
     10          6           0        8.886431    1.860573    1.910911
     11          6           0       10.890804    3.311657    1.942607
     12          6           0        7.205179    4.554694    1.412122
     13          6           0        7.254420    5.931176    2.081618
     14          1           0        6.148202    6.852602    1.870418
     15          7           0        8.152210   -1.128931    1.881215
     16          6           0        8.514172   -0.409288    2.970427
     17          6           0        8.396303   -1.327742    4.123349
     18          6           0        8.119434   -2.691366    3.592345
     19          6           0        8.261567   -2.469387    2.176047
     20          6           0        8.495473   -0.876568    5.548255
     21          6           0        7.790851   -3.990938    4.256634
     22          8           0        7.816444   -5.102773    3.625967
     23          6           0        7.520895   -3.938636    5.704885
     24          7           0        8.586245   -2.318075   -0.868868
     25          6           0        8.623369   -3.444380   -0.148422
     26          6           0        8.719668   -4.653804   -1.030442
     27          6           0        8.495150   -4.131683   -2.522667
     28          6           0        8.383896   -2.615431   -2.227924
     29          6           0       10.039864   -5.433231   -0.955699
     30          6           0        7.367910   -4.808391   -3.342310
     31          6           0        6.021734   -4.463744   -2.745547
     32          7           0        8.059638    0.340466   -1.992102
     33          6           0        8.205851   -0.359945   -3.198220
     34          6           0        8.226691    0.641963   -4.279799
     35          6           0        8.107030    1.864663   -3.622127
     36          6           0        8.043540    1.642360   -2.216836
     37          6           0        8.402670    0.369259   -5.665114
     38          6           0        8.042820    3.308760   -3.778063
     39          8           0        7.958558    4.074243   -4.739535
     40          6           0        8.208188    3.975701   -2.341514
     41          6           0        7.131567    5.016519   -2.196970
     42          8           0        5.928975    4.688778   -2.135954
     43          8           0        7.694082    6.201940   -1.916087
     44          6           0        6.678747    7.272923   -1.731031
     45          1           0        9.458699    1.230923    3.913144
     46          1           0        8.485832   -4.451906    1.527144
     47          1           0        8.339555   -2.056596   -4.276328
     48          1           0        9.180437    4.818363    0.526456
     49          1           0        9.064763    3.654652    3.091577
     50          1           0       11.173384    3.705076    0.966241
     51          1           0       11.214508    2.275572    2.043781
     52          1           0       11.363876    3.854675    2.761211
     53          1           0        6.848567    3.954062    2.248860
     54          1           0        6.489343    4.579176    0.589744
     55          1           0        8.206854    6.429505    1.898728
     56          1           0        7.227242    5.786801    3.161719
     57          1           0        8.867096    0.144851    5.619988
     58          1           0        9.269610   -1.481062    6.020494
     59          1           0        7.554369   -1.000235    6.084316
     60          1           0        8.392213   -3.532301    6.218934
     61          1           0        7.217325   -4.945111    5.990720
     62          1           0        6.704034   -3.239633    5.886772
     63          1           0        7.944913   -5.379170   -0.785443
     64          1           0        9.385396   -4.259389   -3.138969
     65          1           0        9.914024   -6.483238   -0.690457
     66          1           0       10.691119   -4.925619   -0.244721
     67          1           0       10.642200   -5.400157   -1.863176
     68          1           0        7.468449   -5.892473   -3.302263
     69          1           0        7.363068   -4.514316   -4.391952
     70          1           0        5.916636   -5.194008   -1.943986
     71          1           0        5.233655   -4.584549   -3.489556
     72          1           0        6.031188   -3.475020   -2.286395
     73          1           0        7.678737    0.990256   -6.192610
     74          1           0        8.251142   -0.687705   -5.882988
     75          1           0        9.438460    0.679510   -5.802005
     76          1           0        9.206101    4.412038   -2.311487
     77          1           0        6.926509    8.073933   -2.427616
     78          1           0        6.670664    7.511812   -0.667419
     79          1           0        5.662506    7.033327   -2.045968
     80         12           0       -7.777429   -0.959029    0.222851
     81          6           0       -9.951601    1.876352   -0.112881
     82          6           0       -5.372872    1.201923    1.310504
     83          6           0       -5.705902   -3.359347    0.101839
     84          6           0       -9.916308   -2.678353   -1.925356
     85          7           0       -7.782170    1.232962    0.518536
     86          6           0       -8.684381    2.197326    0.416809
     87          6           0       -8.227956    3.567704    0.985420
     88          6           0       -6.640149    3.364406    0.857290
     89          6           0       -6.581836    1.840177    0.934838
     90          6           0       -6.084978    3.795699   -0.489968
     91          6           0       -8.662494    3.769514    2.479561
     92          6           0       -8.522674    5.200966    3.002221
     93          1           0       -9.514693    5.694666    3.953339
     94          7           0       -6.003364   -1.169164    1.087200
     95          6           0       -5.169983   -0.184780    1.484358
     96          6           0       -3.987119   -0.859285    2.041190
     97          6           0       -4.118620   -2.320229    1.790105
     98          6           0       -5.296821   -2.337723    0.946528
     99          6           0       -2.917332   -0.130439    2.801290
    100          6           0       -3.309485   -3.504335    2.225331
    101          8           0       -3.467839   -4.660025    1.694175
    102          6           0       -2.262174   -3.250828    3.225497
    103          7           0       -7.687030   -2.686680   -0.930140
    104          6           0       -6.708288   -3.590111   -0.746259
    105          6           0       -7.001797   -4.871266   -1.489821
    106          6           0       -8.504481   -4.727015   -2.017735
    107          6           0       -8.802191   -3.287592   -1.543604
    108          6           0       -6.077291   -5.184487   -2.666075
    109          6           0       -9.498939   -5.854463   -1.627086
    110          6           0       -9.750938   -5.826839   -0.136738
    111          7           0       -9.697023   -0.579275   -0.693128
    112          6           0      -10.401162   -1.423498   -1.579448
    113          6           0      -11.600759   -0.684641   -2.023838
    114          6           0      -11.498512    0.556712   -1.378018
    115          6           0      -10.308116    0.596686   -0.602882
    116          6           0      -12.575014   -1.158448   -2.947117
    117          6           0      -12.121501    1.846288   -1.184157
    118          8           0      -13.191027    2.353571   -1.519581
    119          6           0      -11.083243    2.804794   -0.456364
    120          6           0      -11.797645    3.488071    0.677341
    121          8           0      -12.217577    2.831927    1.646738
    122          8           0      -11.675906    4.820531    0.535614
    123          6           0      -12.358934    5.541847    1.642410
    124          1           0       -4.481980    1.816037    1.444877
    125          1           0       -5.081752   -4.255930    0.109584
    126          1           0      -10.683208   -3.181648   -2.518018
    127          1           0       -8.540790    4.427322    0.404934
    128          1           0       -6.115782    3.809358    1.698968
    129          1           0       -6.869749    4.058455   -1.183673
    130          1           0       -5.520516    2.949811   -0.859973
    131          1           0       -5.362111    4.605866   -0.357929
    132          1           0       -7.943446    3.259635    3.133578
    133          1           0       -9.666411    3.424790    2.634273
    134          1           0       -8.375623    5.923664    2.190419
    135          1           0       -7.603943    5.267575    3.590039
    136          1           0       -3.007766    0.956196    2.681043
    137          1           0       -1.962143   -0.377799    2.325604
    138          1           0       -2.874542   -0.422309    3.852789
    139          1           0       -1.564570   -2.511851    2.838553
    140          1           0       -1.853137   -4.231707    3.475368
    141          1           0       -2.726770   -2.809840    4.114486
    142          1           0       -6.942790   -5.725535   -0.826606
    143          1           0       -8.550624   -4.711793   -3.116589
    144          1           0       -5.574386   -6.165896   -2.576649
    145          1           0       -5.347973   -4.389558   -2.748094
    146          1           0       -6.552614   -5.163859   -3.645284
    147          1           0       -9.068373   -6.833565   -1.850964
    148          1           0      -10.448110   -5.793122   -2.148911
    149          1           0       -8.901555   -6.385560    0.267551
    150          1           0      -10.693829   -6.314964    0.101454
    151          1           0       -9.689044   -4.804517    0.253992
    152          1           0      -13.542688   -0.895372   -2.541015
    153          1           0      -12.486656   -2.231669   -3.102553
    154          1           0      -12.292684   -0.590125   -3.837376
    155          1           0      -10.718332    3.516111   -1.198285
    156          1           0      -13.070412    6.234015    1.181553
    157          1           0      -11.550535    5.983967    2.254583
    158          1           0      -13.011831    4.966257    2.288079
 ---------------------------------------------------------------------

 SCF Done:  E(RCAM-B3LYP) =  -4069.81180516     A.U. after   19 cycles

 Excitation energies and oscillator strengths:

 Excited State   1:      Singlet-A      1.6723 eV  741.38 nm  f=0.2311  <S**2>=0.000
     310 -> 316        0.14527
     311 -> 313       -0.37151
     312 -> 314        0.57698
 This state for optimization and/or second-order correction.
 Total Energy, E(TD-HF/TD-DFT) =  -4069.75034775
 Copying the excited state density for this state as the 1-particle RhoCI density.

 Excited State   2:      Singlet-A      1.6824 eV  736.95 nm  f=0.5461  <S**2>=0.000
     309 -> 315        0.14842
     311 -> 313        0.57635
     312 -> 314        0.37117

 Excited State   3:      Singlet-A      2.1857 eV  567.26 nm  f=0.0556  <S**2>=0.000
     309 -> 313        0.14683
     310 -> 314        0.62578
     312 -> 316       -0.26550

 Excited State   4:      Singlet-A      2.1932 eV  565.30 nm  f=0.1372  <S**2>=0.000
     309 -> 313        0.62375
     310 -> 314       -0.14575
     311 -> 315       -0.27145

 Excited State   5:      Singlet-A      2.7350 eV  453.32 nm  f=0.0000  <S**2>=0.000
     312 -> 313        0.70702

 The electronic state is 1-A.
 Alpha  occ. eigenvalues --  -46.87911 -46.87586 -19.26434 -19.26298 -19.19173
 Alpha  occ. eigenvalues --  -19.19107 -19.18913 -19.18640 -19.18286 -19.17984
 Alpha  occ. eigenvalues --  -14.42567 -14.42421 -14.41555 -14.41285 -14.39516
 Alpha  occ. eigenvalues --  -14.39277 -14.38700 -14.38527 -10.39229 -10.39035
 Alpha  occ. eigenvalues --  -10.35546 -10.35318 -10.34507 -10.34162 -10.31838
 Alpha  occ. eigenvalues --  -10.31712 -10.31523 -10.31232 -10.31031 -10.30946
 Alpha  occ. eigenvalues --  -10.30684 -10.30615 -10.30326 -10.30306 -10.30288
 Alpha  occ. eigenvalues --  -10.30066 -10.30019 -10.29823 -10.29740 -10.29363
 Alpha  occ. eigenvalues --  -10.29360 -10.29329 -10.28887 -10.28715 -10.28645
 Alpha  occ. eigenvalues --  -10.28607 -10.28481 -10.28330 -10.28244 -10.28055
 Alpha  occ. eigenvalues --  -10.27927 -10.27904 -10.27841 -10.27695 -10.27600
 Alpha  occ. eigenvalues --  -10.27588 -10.27573 -10.27521 -10.27520 -10.27451
 Alpha  occ. eigenvalues --  -10.27410 -10.27393 -10.27385 -10.27307 -10.27284
 Alpha  occ. eigenvalues --  -10.26984 -10.26874 -10.26635 -10.26511 -10.26348
 Alpha  occ. eigenvalues --  -10.26345 -10.26237 -10.26122 -10.26081 -10.25938
 Alpha  occ. eigenvalues --  -10.25912 -10.25862 -10.25787 -10.25498 -10.25323
 Alpha  occ. eigenvalues --  -10.24945 -10.24891 -10.24800 -10.24731 -10.24679
 Alpha  occ. eigenvalues --  -10.24616  -3.16654  -3.16336  -1.91536  -1.91218
 Alpha  occ. eigenvalues --   -1.91122  -1.90964  -1.90807  -1.90644  -1.16783
 Alpha  occ. eigenvalues --   -1.16591  -1.08745  -1.08593  -1.07312  -1.06892
 Alpha  occ. eigenvalues --   -1.06891  -1.06794  -1.04698  -1.04419  -1.03868
 Alpha  occ. eigenvalues --   -1.03589  -1.03344  -1.02965  -1.02521  -1.02038
 Alpha  occ. eigenvalues --   -0.92089  -0.91915  -0.89610  -0.89426  -0.89319
 Alpha  occ. eigenvalues --   -0.89073  -0.88373  -0.88152  -0.87978  -0.87789
 Alpha  occ. eigenvalues --   -0.87724  -0.87610  -0.87384  -0.87045  -0.85110
 Alpha  occ. eigenvalues --   -0.84926  -0.84019  -0.83810  -0.83066  -0.82860
 Alpha  occ. eigenvalues --   -0.82769  -0.82580  -0.81713  -0.81534  -0.80715
 Alpha  occ. eigenvalues --   -0.80375  -0.78907  -0.78562  -0.77328  -0.77072
 Alpha  occ. eigenvalues --   -0.77055  -0.76831  -0.76045  -0.75764  -0.74989
 Alpha  occ. eigenvalues --   -0.74733  -0.72881  -0.72626  -0.71780  -0.71505
 Alpha  occ. eigenvalues --   -0.69980  -0.69693  -0.68996  -0.68755  -0.67753
 Alpha  occ. eigenvalues --   -0.67531  -0.67354  -0.67133  -0.65414  -0.65201
 Alpha  occ. eigenvalues --   -0.64968  -0.64735  -0.64700  -0.64585  -0.64361
 Alpha  occ. eigenvalues --   -0.64136  -0.62425  -0.62217  -0.60546  -0.60267
 Alpha  occ. eigenvalues --   -0.59929  -0.59720  -0.59096  -0.58921  -0.58614
 Alpha  occ. eigenvalues --   -0.58355  -0.57710  -0.57490  -0.57412  -0.57167
 Alpha  occ. eigenvalues --   -0.56422  -0.56133  -0.56115  -0.55825  -0.55631
 Alpha  occ. eigenvalues --   -0.55438  -0.55383  -0.55183  -0.54631  -0.54426
 Alpha  occ. eigenvalues --   -0.54027  -0.53837  -0.53406  -0.53344  -0.53158
 Alpha  occ. eigenvalues --   -0.53071  -0.53036  -0.52872  -0.52835  -0.52592
 Alpha  occ. eigenvalues --   -0.52510  -0.52341  -0.52018  -0.51819  -0.51746
 Alpha  occ. eigenvalues --   -0.51588  -0.51306  -0.51134  -0.50680  -0.50402
 Alpha  occ. eigenvalues --   -0.50119  -0.50026  -0.49904  -0.49796  -0.49633
 Alpha  occ. eigenvalues --   -0.49414  -0.49331  -0.49218  -0.49129  -0.49030
 Alpha  occ. eigenvalues --   -0.48712  -0.48556  -0.48552  -0.48487  -0.48308
 Alpha  occ. eigenvalues --   -0.48266  -0.47807  -0.47522  -0.47405  -0.47044
 Alpha  occ. eigenvalues --   -0.46903  -0.46686  -0.46639  -0.46481  -0.46466
 Alpha  occ. eigenvalues --   -0.46268  -0.46199  -0.46018  -0.45940  -0.45757
 Alpha  occ. eigenvalues --   -0.45289  -0.45138  -0.44694  -0.44617  -0.44446
 Alpha  occ. eigenvalues --   -0.44404  -0.44246  -0.44206  -0.44134  -0.44052
 Alpha  occ. eigenvalues --   -0.44011  -0.43869  -0.43616  -0.43498  -0.43492
 Alpha  occ. eigenvalues --   -0.43314  -0.43136  -0.42869  -0.42833  -0.42830
 Alpha  occ. eigenvalues --   -0.42743  -0.42485  -0.42109  -0.41899  -0.41815
 Alpha  occ. eigenvalues --   -0.41659  -0.41599  -0.41390  -0.41251  -0.40986
 Alpha  occ. eigenvalues --   -0.40932  -0.40912  -0.40661  -0.40652  -0.40628
 Alpha  occ. eigenvalues --   -0.40424  -0.40382  -0.40162  -0.39510  -0.39363
 Alpha  occ. eigenvalues --   -0.38562  -0.38281  -0.37890  -0.37590  -0.37416
 Alpha  occ. eigenvalues --   -0.37394  -0.37196  -0.37127  -0.36844  -0.36714
 Alpha  occ. eigenvalues --   -0.36307  -0.36150  -0.34398  -0.34181  -0.33916
 Alpha  occ. eigenvalues --   -0.33804  -0.33299  -0.33102  -0.31442  -0.31199
 Alpha  occ. eigenvalues --   -0.31146  -0.30899  -0.30146  -0.29889  -0.29560
 Alpha  occ. eigenvalues --   -0.29434  -0.29253  -0.29139  -0.24193  -0.23962
 Alpha  occ. eigenvalues --   -0.21238  -0.21042
 Alpha virt. eigenvalues --   -0.08885  -0.08717  -0.01858  -0.01610  -0.00169
 Alpha virt. eigenvalues --    0.00047   0.02090   0.02276   0.02981   0.03289
 Alpha virt. eigenvalues --    0.04594   0.04803   0.04953   0.05222   0.06027

 Mulliken charges:
               1
     1  Mg   0.838176
     2  C   -0.003289
     3  C   -0.094508
     4  C   -0.045658
     5  C   -0.063716
     6  N   -0.256801
     7  C   -0.052651
     8  C   -0.013953
     9  C   -0.086921
    10  C    0.046134
    11  C    0.104769
    12  C    0.053591
    13  C   -0.071581
    14  H    0.035305
    15  N   -0.433172
    16  C    0.168215
    17  C   -0.177383
    18  C   -0.004011
    19  C    0.148573
    20  C    0.110195
    21  C    0.012220
    22  O   -0.249071
    23  C    0.062579
    24  N   -0.341146
    25  C    0.041234
    26  C   -0.028277
    27  C   -0.024057
    28  C    0.074876
    29  C    0.076076
    30  C    0.035035
    31  C   -0.004560
    32  N   -0.310475
    33  C    0.080362
    34  C   -0.169598
    35  C    0.008370
    36  C    0.082863
    37  C    0.127307
    38  C    0.046051
    39  O   -0.188378
    40  C   -0.005288
    41  C    0.212950
    42  O   -0.257724
    43  O   -0.304584
    44  C    0.157777
    45  H   -0.017549
    46  H   -0.016433
    47  H   -0.041170
    48  H    0.001081
    49  H   -0.004258
    50  H    0.025595
    51  H    0.016663
    52  H    0.016768
    53  H    0.010640
    54  H    0.043615
    55  H    0.018333
    56  H    0.017860
    57  H    0.005789
    58  H    0.027142
    59  H    0.039038
    60  H    0.037469
    61  H    0.036092
    62  H    0.030833
    63  H    0.016975
    64  H    0.009622
    65  H    0.023575
    66  H    0.012494
    67  H    0.004912
    68  H    0.006801
    69  H    0.004787
    70  H    0.009289
    71  H    0.018648
    72  H    0.028364
    73  H    0.047574
    74  H    0.009366
    75  H    0.046189
    76  H    0.035335
    77  H    0.043228
    78  H    0.046268
    79  H    0.053204
    80  Mg   0.837822
    81  C   -0.016817
    82  C   -0.087710
    83  C   -0.045379
    84  C   -0.064882
    85  N   -0.254559
    86  C   -0.049841
    87  C   -0.015081
    88  C   -0.090491
    89  C    0.045688
    90  C    0.114233
    91  C    0.062557
    92  C   -0.077735
    93  H    0.034482
    94  N   -0.423561
    95  C    0.162862
    96  C   -0.174171
    97  C   -0.007768
    98  C    0.152204
    99  C    0.099149
   100  C    0.015708
   101  O   -0.253084
   102  C    0.061148
   103  N   -0.350035
   104  C    0.037608
   105  C   -0.019893
   106  C   -0.034769
   107  C    0.088912
   108  C    0.073593
   109  C    0.034769
   110  C   -0.007637
   111  N   -0.324092
   112  C    0.078385
   113  C   -0.163219
   114  C    0.002202
   115  C    0.096116
   116  C    0.131500
   117  C    0.042308
   118  O   -0.188098
   119  C    0.000918
   120  C    0.211224
   121  O   -0.251159
   122  O   -0.305558
   123  C    0.152100
   124  H   -0.019011
   125  H   -0.015526
   126  H   -0.040597
   127  H   -0.000628
   128  H   -0.004504
   129  H    0.022433
   130  H    0.015087
   131  H    0.016747
   132  H    0.013752
   133  H    0.037541
   134  H    0.020911
   135  H    0.019436
   136  H    0.008962
   137  H    0.026984
   138  H    0.039108
   139  H    0.038596
   140  H    0.036494
   141  H    0.033360
   142  H    0.014284
   143  H    0.012421
   144  H    0.025012
   145  H    0.012037
   146  H    0.005663
   147  H    0.006156
   148  H    0.003549
   149  H    0.010880
   150  H    0.017752
   151  H    0.030125
   152  H    0.045824
   153  H    0.008394
   154  H    0.046966
   155  H    0.035133
   156  H    0.043824
   157  H    0.049442
   158  H    0.053441
 Sum of Mulliken charges =  -0.00000

 Dipole moment (field-independent basis, Debye):
    X=              6.3273    Y=              1.7020    Z=              4.5597  Tot=              7.9827
 Quadrupole moment (field-independent basis, Debye-Ang):
   XX=           -563.4291   YY=           -494.8227   ZZ=           -494.6861
   XY=             16.2016   XZ=             33.7429   YZ=             55.2479

 Normal termination of Gaussian 16 at Sun Sep 12 07:37:34 2021.
