 Gaussian 16, Revision A.03,
 Gaussian 16:  ES64L-G16RevA.03 25-Dec-2016

 -----------------------------------
 #p cam-b3lyp/Def2SVP td=(nstates=5)
 -----------------------------------

 --------------------------------
 TDDFT excited states in gaussian
 --------------------------------
 Symbolic Z-matrix:
 Charge =  0 Multiplicity = 1

                         Standard orientation:
 ---------------------------------------------------------------------
 Center     Atomic      Atomic             Coordinates (Angstroms)
 Number     Number       Type             X           Y           Z
 ---------------------------------------------------------------------
      1         12           0       -7.682338   -1.019937    0.322985
      2          6           0       -8.018931    2.542224    0.223340
      3          6           0       -8.646230   -1.053562   -2.950063
      4          6           0       -7.832382   -4.181926    0.512544
      5          6           0       -7.857733   -0.791604    3.796134
      6          7           0       -8.233853    0.603692   -1.077124
      7          6           0       -8.264510    1.930898   -1.008170
      8          6           0       -8.508095    2.615685   -2.386251
      9          6           0       -9.238009    1.414442   -3.138739
     10          6           0       -8.645058    0.248548   -2.367362
     11          6           0      -10.751741    1.408248   -2.951438
     12          6           0       -7.170763    3.009885   -3.098908
     13          6           0       -7.319921    3.967424   -4.284751
     14          1           0       -6.286107    4.965629   -4.513143
     15          7           0       -7.690496   -2.389805   -1.100477
     16          6           0       -8.101125   -2.224784   -2.380882
     17          6           0       -7.911117   -3.533906   -3.041774
     18          6           0       -7.535426   -4.522662   -1.993294
     19          6           0       -7.698737   -3.733286   -0.799312
     20          6           0       -8.038505   -3.735249   -4.520619
     21          6           0       -7.108669   -5.955145   -2.056570
     22          8           0       -7.053694   -6.695101   -1.015408
     23          6           0       -6.838189   -6.501351   -3.398785
     24          7           0       -8.044636   -2.332043    1.905626
     25          6           0       -7.995264   -3.656901    1.728712
     26          6           0       -8.004433   -4.383689    3.040823
     27          6           0       -7.824720   -3.265712    4.166693
     28          6           0       -7.825568   -2.012416    3.257012
     29          6           0       -9.262686   -5.210657    3.339043
     30          6           0       -6.653175   -3.453096    5.163080
     31          6           0       -5.334261   -3.301039    4.438896
     32          7           0       -7.721357    0.581438    1.787609
     33          6           0       -7.819339    0.448164    3.180200
     34          6           0       -7.918544    1.809239    3.738502
     35          6           0       -7.887867    2.644453    2.623459
     36          6           0       -7.802995    1.854014    1.441810
     37          6           0       -8.078681    2.136155    5.113972
     38          6           0       -7.931865    4.019776    2.153982
     39          8           0       -7.908237    5.123685    2.700168
     40          6           0       -8.141285    4.003929    0.575464
     41          6           0       -7.144602    4.957635   -0.024850
     42          8           0       -5.920743    4.718600    0.024113
     43          8           0       -7.792774    5.871368   -0.763435
     44          6           0       -6.859306    6.830984   -1.411455
     45          1           0       -9.161732   -1.206127   -3.900286
     46          1           0       -7.777149   -5.266047    0.631159
     47          1           0       -7.830248   -0.638623    4.876548
     48          1           0       -9.163314    3.486269   -2.351666
     49          1           0       -8.952203    1.358517   -4.188934
     50          1           0      -11.066297    2.156934   -2.224496
     51          1           0      -10.997075    0.406887   -2.597068
     52          1           0      -11.260990    1.520366   -3.908972
     53          1           0       -6.767457    2.138064   -3.614013
     54          1           0       -6.461673    3.428935   -2.384127
     55          1           0       -8.307447    4.429372   -4.302261
     56          1           0       -7.278220    3.382339   -5.203521
     57          1           0       -8.484856   -2.868163   -5.005880
     58          1           0       -8.763817   -4.534478   -4.671832
     59          1           0       -7.088901   -4.008670   -4.980863
     60          1           0       -7.735492   -6.411494   -4.011420
     61          1           0       -6.459538   -7.510748   -3.241966
     62          1           0       -6.074971   -5.890229   -3.881463
     63          1           0       -7.176973   -5.089306    3.102803
     64          1           0       -8.705185   -3.182030    4.804229
     65          1           0       -9.058104   -6.262943    3.537901
     66          1           0       -9.947372   -5.097334    2.499011
     67          1           0       -9.869046   -4.838768    4.164539
     68          1           0       -6.672610   -4.456609    5.586790
     69          1           0       -6.673976   -2.743397    5.990211
     70          1           0       -5.172247   -4.292481    4.017438
     71          1           0       -4.542036   -3.041420    5.141881
     72          1           0       -5.415635   -2.602263    3.606083
     73          1           0       -7.404858    2.970189    5.309721
     74          1           0       -7.849688    1.283536    5.752883
     75          1           0       -9.135170    2.402954    5.136440
     76          1           0       -9.168790    4.316736    0.392414
     77          1           0       -7.168478    7.832154   -1.110944
     78          1           0       -6.865230    6.597898   -2.476368
     79          1           0       -5.829181    6.817646   -1.053679
     80         12           0        8.179545   -0.431968   -0.117578
     81          6           0        6.769192    2.863617    0.053068
     82          6           0        6.311734   -0.923681   -2.929001
     83          6           0        9.052851   -3.481456   -0.044386
     84          6           0        9.018489   -0.096548    3.248335
     85          7           0        6.762466    0.876544   -1.200145
     86          6           0        6.352475    2.129994   -1.077232
     87          6           0        5.509491    2.651061   -2.271983
     88          6           0        4.973006    1.240538   -2.821058
     89          6           0        6.099219    0.338815   -2.319873
     90          6           0        3.676311    0.793791   -2.166573
     91          6           0        6.385150    3.389434   -3.344385
     92          6           0        5.593358    4.190294   -4.380450
     93          1           0        6.161212    5.441265   -4.875486
     94          7           0        8.144202   -1.812532   -1.542835
     95          6           0        7.337836   -1.844945   -2.624495
     96          6           0        7.690293   -3.073824   -3.352382
     97          6           0        8.655643   -3.848113   -2.525765
     98          6           0        8.638681   -3.070503   -1.303012
     99          6           0        7.185815   -3.374308   -4.733919
    100          6           0        9.451399   -5.090896   -2.787351
    101          8           0       10.045689   -5.721219   -1.842707
    102          6           0        9.437286   -5.600259   -4.166423
    103          7           0        8.736803   -1.702255    1.431034
    104          6           0        9.120228   -2.967061    1.183689
    105          6           0        9.735848   -3.599911    2.408804
    106          6           0        9.907060   -2.412128    3.465886
    107          6           0        9.249932   -1.265436    2.666719
    108          6           0        8.934388   -4.735408    3.044949
    109          6           0       11.329706   -2.187153    4.047389
    110          6           0       12.259215   -1.694951    2.961507
    111          7           0        8.118407    1.152294    1.350224
    112          6           0        8.493682    1.071024    2.709137
    113          6           0        8.165366    2.370738    3.329943
    114          6           0        7.596193    3.115954    2.286311
    115          6           0        7.553021    2.328797    1.103942
    116          6           0        8.354990    2.710143    4.699242
    117          6           0        7.012344    4.385870    1.918706
    118          8           0        6.864128    5.469467    2.482251
    119          6           0        6.335118    4.235656    0.488605
    120          6           0        6.763365    5.406197   -0.353393
    121          8           0        7.954790    5.546799   -0.681055
    122          8           0        5.670132    6.042599   -0.811858
    123          6           0        6.043368    7.204765   -1.661502
    124          1           0        5.601178   -1.261760   -3.683780
    125          1           0        9.466878   -4.490995    0.009438
    126          1           0        9.338901    0.121008    4.269457
    127          1           0        4.674883    3.284749   -1.996928
    128          1           0        4.930566    1.229751   -3.907077
    129          1           0        3.390798    1.443952   -1.352989
    130          1           0        3.860445   -0.208688   -1.803017
    131          1           0        2.886979    0.701598   -2.918102
    132          1           0        6.852267    2.643612   -4.000367
    133          1           0        7.109396    4.024912   -2.872932
    134          1           0        4.548797    4.335123   -4.079012
    135          1           0        5.528173    3.601253   -5.298495
    136          1           0        6.364548   -2.704326   -5.016824
    137          1           0        6.725638   -4.367663   -4.697263
    138          1           0        7.982390   -3.381194   -5.480965
    139          1           0        8.412330   -5.808508   -4.464012
    140          1           0       10.133606   -6.441057   -4.174546
    141          1           0        9.805017   -4.812978   -4.833946
    142          1           0       10.711486   -4.012107    2.182289
    143          1           0        9.285108   -2.569078    4.359404
    144          1           0        9.503202   -5.681221    3.122090
    145          1           0        8.031147   -4.880913    2.467431
    146          1           0        8.541977   -4.523681    4.038118
    147          1           0       11.745434   -3.131507    4.407286
    148          1           0       11.351664   -1.488599    4.877177
    149          1           0       12.568744   -2.618983    2.464067
    150          1           0       13.111644   -1.174716    3.393680
    151          1           0       11.718308   -1.089370    2.225068
    152          1           0        8.768771    3.709608    4.717846
    153          1           0        9.009626    1.998648    5.198235
    154          1           0        7.325375    2.644182    5.060916
    155          1           0        5.255029    4.212502    0.638409
    156          1           0        5.551783    8.084094   -1.233926
    157          1           0        5.762482    6.922700   -2.693636
    158          1           0        7.080776    7.518101   -1.654488
 ---------------------------------------------------------------------

 SCF Done:  E(RCAM-B3LYP) =  -4069.81167410     A.U. after   19 cycles

 Excitation energies and oscillator strengths:

 Excited State   1:      Singlet-A      1.6696 eV  742.61 nm  f=0.0140  <S**2>=0.000
     309 -> 315       -0.10539
     310 -> 316        0.13634
     311 -> 313       -0.41811
     312 -> 314        0.54434
 This state for optimization and/or second-order correction.
 Total Energy, E(TD-HF/TD-DFT) =  -4069.75031880
 Copying the excited state density for this state as the 1-particle RhoCI density.

 Excited State   2:      Singlet-A      1.6853 eV  735.66 nm  f=0.7416  <S**2>=0.000
     309 -> 315        0.14037
     310 -> 316        0.10715
     311 -> 313        0.54348
     312 -> 314        0.41755

 Excited State   3:      Singlet-A      2.1853 eV  567.34 nm  f=0.0657  <S**2>=0.000
     309 -> 313       -0.12891
     310 -> 314        0.62968
     312 -> 316       -0.26700

 Excited State   4:      Singlet-A      2.1928 eV  565.42 nm  f=0.1294  <S**2>=0.000
     309 -> 313        0.62769
     310 -> 314        0.12794
     311 -> 315       -0.27288

 Excited State   5:      Singlet-A      2.7482 eV  451.15 nm  f=0.0000  <S**2>=0.000
     312 -> 313        0.70706

 The electronic state is 1-A.
 Alpha  occ. eigenvalues --  -46.87875 -46.87581 -19.26351 -19.26238 -19.19089
 Alpha  occ. eigenvalues --  -19.19059 -19.18900 -19.18652 -19.18231 -19.17952
 Alpha  occ. eigenvalues --  -14.42530 -14.42415 -14.41525 -14.41280 -14.39483
 Alpha  occ. eigenvalues --  -14.39274 -14.38662 -14.38518 -10.39149 -10.38987
 Alpha  occ. eigenvalues --  -10.35535 -10.35331 -10.34452 -10.34128 -10.31744
 Alpha  occ. eigenvalues --  -10.31648 -10.31481 -10.31221 -10.30993 -10.30941
 Alpha  occ. eigenvalues --  -10.30644 -10.30581 -10.30318 -10.30283 -10.30278
 Alpha  occ. eigenvalues --  -10.30070 -10.29990 -10.29815 -10.29706 -10.29362
 Alpha  occ. eigenvalues --  -10.29333 -10.29324 -10.28838 -10.28651 -10.28623
 Alpha  occ. eigenvalues --  -10.28580 -10.28443 -10.28322 -10.28201 -10.28044
 Alpha  occ. eigenvalues --  -10.27920 -10.27866 -10.27806 -10.27663 -10.27590
 Alpha  occ. eigenvalues --  -10.27577 -10.27564 -10.27512 -10.27480 -10.27452
 Alpha  occ. eigenvalues --  -10.27415 -10.27399 -10.27391 -10.27309 -10.27226
 Alpha  occ. eigenvalues --  -10.26942 -10.26813 -10.26612 -10.26510 -10.26370
 Alpha  occ. eigenvalues --  -10.26309 -10.26241 -10.26092 -10.26080 -10.25901
 Alpha  occ. eigenvalues --  -10.25891 -10.25858 -10.25763 -10.25492 -10.25334
 Alpha  occ. eigenvalues --  -10.24904 -10.24862 -10.24789 -10.24748 -10.24676
 Alpha  occ. eigenvalues --  -10.24612  -3.16619  -3.16331  -1.91500  -1.91213
 Alpha  occ. eigenvalues --   -1.91087  -1.90929  -1.90801  -1.90638  -1.16700
 Alpha  occ. eigenvalues --   -1.16534  -1.08688  -1.08556  -1.07302  -1.06906
 Alpha  occ. eigenvalues --   -1.06842  -1.06711  -1.04660  -1.04412  -1.03837
 Alpha  occ. eigenvalues --   -1.03583  -1.03310  -1.02960  -1.02487  -1.02031
 Alpha  occ. eigenvalues --   -0.92046  -0.91898  -0.89588  -0.89420  -0.89274
 Alpha  occ. eigenvalues --   -0.89059  -0.88355  -0.88150  -0.87936  -0.87753
 Alpha  occ. eigenvalues --   -0.87710  -0.87604  -0.87359  -0.87055  -0.85067
 Alpha  occ. eigenvalues --   -0.84915  -0.84001  -0.83806  -0.83052  -0.82871
 Alpha  occ. eigenvalues --   -0.82730  -0.82571  -0.81657  -0.81504  -0.80673
 Alpha  occ. eigenvalues --   -0.80358  -0.78876  -0.78563  -0.77295  -0.77065
 Alpha  occ. eigenvalues --   -0.77012  -0.76813  -0.75998  -0.75746  -0.74965
 Alpha  occ. eigenvalues --   -0.74728  -0.72847  -0.72619  -0.71745  -0.71496
 Alpha  occ. eigenvalues --   -0.69972  -0.69691  -0.68956  -0.68744  -0.67717
 Alpha  occ. eigenvalues --   -0.67522  -0.67313  -0.67125  -0.65369  -0.65183
 Alpha  occ. eigenvalues --   -0.64927  -0.64696  -0.64688  -0.64568  -0.64339
 Alpha  occ. eigenvalues --   -0.64130  -0.62367  -0.62185  -0.60522  -0.60270
 Alpha  occ. eigenvalues --   -0.59886  -0.59708  -0.59061  -0.58911  -0.58577
 Alpha  occ. eigenvalues --   -0.58342  -0.57653  -0.57456  -0.57380  -0.57159
 Alpha  occ. eigenvalues --   -0.56384  -0.56124  -0.56052  -0.55794  -0.55599
 Alpha  occ. eigenvalues --   -0.55405  -0.55373  -0.55167  -0.54590  -0.54404
 Alpha  occ. eigenvalues --   -0.53981  -0.53823  -0.53376  -0.53304  -0.53152
 Alpha  occ. eigenvalues --   -0.53059  -0.52989  -0.52844  -0.52817  -0.52600
 Alpha  occ. eigenvalues --   -0.52502  -0.52336  -0.51974  -0.51798  -0.51703
 Alpha  occ. eigenvalues --   -0.51578  -0.51266  -0.51116  -0.50664  -0.50417
 Alpha  occ. eigenvalues --   -0.50102  -0.50001  -0.49902  -0.49798  -0.49597
 Alpha  occ. eigenvalues --   -0.49411  -0.49289  -0.49174  -0.49116  -0.49011
 Alpha  occ. eigenvalues --   -0.48664  -0.48536  -0.48517  -0.48469  -0.48302
 Alpha  occ. eigenvalues --   -0.48266  -0.47773  -0.47516  -0.47373  -0.47045
 Alpha  occ. eigenvalues --   -0.46871  -0.46641  -0.46631  -0.46470  -0.46432
 Alpha  occ. eigenvalues --   -0.46230  -0.46194  -0.46004  -0.45887  -0.45730
 Alpha  occ. eigenvalues --   -0.45269  -0.45135  -0.44647  -0.44589  -0.44427
 Alpha  occ. eigenvalues --   -0.44395  -0.44218  -0.44170  -0.44094  -0.44040
 Alpha  occ. eigenvalues --   -0.44006  -0.43861  -0.43563  -0.43464  -0.43463
 Alpha  occ. eigenvalues --   -0.43301  -0.43099  -0.42840  -0.42808  -0.42767
 Alpha  occ. eigenvalues --   -0.42721  -0.42485  -0.42081  -0.41889  -0.41776
 Alpha  occ. eigenvalues --   -0.41619  -0.41581  -0.41378  -0.41216  -0.40951
 Alpha  occ. eigenvalues --   -0.40911  -0.40904  -0.40653  -0.40640  -0.40622
 Alpha  occ. eigenvalues --   -0.40418  -0.40333  -0.40147  -0.39506  -0.39361
 Alpha  occ. eigenvalues --   -0.38540  -0.38278  -0.37841  -0.37574  -0.37392
 Alpha  occ. eigenvalues --   -0.37349  -0.37191  -0.37116  -0.36781  -0.36675
 Alpha  occ. eigenvalues --   -0.36264  -0.36135  -0.34361  -0.34172  -0.33841
 Alpha  occ. eigenvalues --   -0.33764  -0.33261  -0.33095  -0.31429  -0.31211
 Alpha  occ. eigenvalues --   -0.31112  -0.30892  -0.30090  -0.29855  -0.29528
 Alpha  occ. eigenvalues --   -0.29394  -0.29252  -0.29128  -0.24157  -0.23954
 Alpha  occ. eigenvalues --   -0.21204  -0.21037
 Alpha virt. eigenvalues --   -0.08851  -0.08713  -0.01827  -0.01606  -0.00140
 Alpha virt. eigenvalues --    0.00046   0.02132   0.02295   0.03022   0.03297
 Alpha virt. eigenvalues --    0.04635   0.04812   0.05029   0.05268   0.06081

 Mulliken charges:
               1
     1  Mg   0.838305
     2  C   -0.003089
     3  C   -0.094404
     4  C   -0.045866
     5  C   -0.063826
     6  N   -0.256761
     7  C   -0.052548
     8  C   -0.013928
     9  C   -0.086948
    10  C    0.046146
    11  C    0.104795
    12  C    0.053575
    13  C   -0.071651
    14  H    0.035708
    15  N   -0.433120
    16  C    0.168223
    17  C   -0.177388
    18  C   -0.004125
    19  C    0.148588
    20  C    0.110204
    21  C    0.012098
    22  O   -0.249521
    23  C    0.062610
    24  N   -0.341120
    25  C    0.041210
    26  C   -0.028177
    27  C   -0.024078
    28  C    0.074883
    29  C    0.076134
    30  C    0.035099
    31  C   -0.004536
    32  N   -0.310524
    33  C    0.080464
    34  C   -0.169448
    35  C    0.008545
    36  C    0.083003
    37  C    0.127240
    38  C    0.046300
    39  O   -0.187911
    40  C   -0.005405
    41  C    0.213010
    42  O   -0.257250
    43  O   -0.304745
    44  C    0.157603
    45  H   -0.017644
    46  H   -0.016774
    47  H   -0.041193
    48  H    0.001133
    49  H   -0.004276
    50  H    0.025613
    51  H    0.016550
    52  H    0.016687
    53  H    0.010679
    54  H    0.043975
    55  H    0.018222
    56  H    0.017698
    57  H    0.005789
    58  H    0.026943
    59  H    0.038942
    60  H    0.037466
    61  H    0.035645
    62  H    0.030912
    63  H    0.016546
    64  H    0.009656
    65  H    0.023298
    66  H    0.012557
    67  H    0.004902
    68  H    0.006522
    69  H    0.004971
    70  H    0.008702
    71  H    0.018369
    72  H    0.028754
    73  H    0.047993
    74  H    0.009296
    75  H    0.046182
    76  H    0.035305
    77  H    0.043312
    78  H    0.046136
    79  H    0.053757
    80  Mg   0.837801
    81  C   -0.016781
    82  C   -0.087791
    83  C   -0.045591
    84  C   -0.064956
    85  N   -0.254571
    86  C   -0.049591
    87  C   -0.015190
    88  C   -0.090571
    89  C    0.045838
    90  C    0.114364
    91  C    0.062555
    92  C   -0.077763
    93  H    0.034542
    94  N   -0.423463
    95  C    0.162863
    96  C   -0.174748
    97  C   -0.007957
    98  C    0.152101
    99  C    0.099464
   100  C    0.015463
   101  O   -0.253339
   102  C    0.061253
   103  N   -0.350061
   104  C    0.037485
   105  C   -0.019794
   106  C   -0.034824
   107  C    0.089032
   108  C    0.073690
   109  C    0.034755
   110  C   -0.007646
   111  N   -0.324180
   112  C    0.078575
   113  C   -0.163091
   114  C    0.002495
   115  C    0.096184
   116  C    0.131463
   117  C    0.042604
   118  O   -0.187380
   119  C    0.000829
   120  C    0.211194
   121  O   -0.251352
   122  O   -0.305189
   123  C    0.152125
   124  H   -0.019927
   125  H   -0.015746
   126  H   -0.040496
   127  H    0.000166
   128  H   -0.004790
   129  H    0.023653
   130  H    0.014315
   131  H    0.016120
   132  H    0.013631
   133  H    0.037632
   134  H    0.021235
   135  H    0.019157
   136  H    0.008504
   137  H    0.025886
   138  H    0.039482
   139  H    0.038111
   140  H    0.036190
   141  H    0.033763
   142  H    0.014238
   143  H    0.012433
   144  H    0.024948
   145  H    0.011735
   146  H    0.005633
   147  H    0.006125
   148  H    0.003637
   149  H    0.010840
   150  H    0.017819
   151  H    0.030170
   152  H    0.046004
   153  H    0.008329
   154  H    0.047391
   155  H    0.036155
   156  H    0.044236
   157  H    0.049285
   158  H    0.053290
 Sum of Mulliken charges =  -0.00000

 Dipole moment (field-independent basis, Debye):
    X=             -4.6342    Y=             -3.8612    Z=             -6.5141  Tot=              8.8780
 Quadrupole moment (field-independent basis, Debye-Ang):
   XX=           -516.5709   YY=           -561.5818   ZZ=           -446.2975
   XY=             -7.3274   XZ=             26.0195   YZ=            -33.9481

 Normal termination of Gaussian 16 at Sun Sep 12 05:20:49 2021.
