 Gaussian 16, Revision A.03,
 Gaussian 16:  ES64L-G16RevA.03 25-Dec-2016

 -----------------------------------
 #p cam-b3lyp/Def2SVP td=(nstates=5)
 -----------------------------------

 --------------------------------
 TDDFT excited states in gaussian
 --------------------------------
 Symbolic Z-matrix:
 Charge =  0 Multiplicity = 1

                         Standard orientation:
 ---------------------------------------------------------------------
 Center     Atomic      Atomic             Coordinates (Angstroms)
 Number     Number       Type             X           Y           Z
 ---------------------------------------------------------------------
      1         12           0       -4.676542   -0.139906    0.174156
      2          6           0       -4.368900    3.139519    1.575206
      3          6           0       -5.555894    1.358994   -2.762356
      4          6           0       -5.393416   -3.015913   -0.953362
      5          6           0       -4.887625   -1.352560    3.434613
      6          7           0       -4.896952    1.987514   -0.396938
      7          6           0       -4.691550    3.148911    0.216363
      8          6           0       -4.777315    4.376102   -0.739682
      9          6           0       -5.692724    3.742554   -1.881015
     10          6           0       -5.335406    2.278531   -1.694241
     11          6           0       -7.187082    3.919119   -1.631575
     12          6           0       -3.375142    4.795057   -1.296566
     13          6           0       -3.323683    6.169448   -1.970179
     14          1           0       -2.123210    6.978072   -1.820710
     15          7           0       -4.896799   -0.768541   -1.685724
     16          6           0       -5.241972   -0.017346   -2.758966
     17          6           0       -5.273873   -0.943426   -3.911371
     18          6           0       -5.104944   -2.327398   -3.387749
     19          6           0       -5.151826   -2.091945   -1.967277
     20          6           0       -5.401364   -0.485316   -5.331805
     21          6           0       -4.939664   -3.653208   -4.060833
     22          8           0       -5.041584   -4.756906   -3.423624
     23          6           0       -4.740532   -3.628246   -5.521232
     24          7           0       -5.303508   -1.908222    1.089365
     25          6           0       -5.487614   -3.025771    0.377906
     26          6           0       -5.656467   -4.219549    1.270276
     27          6           0       -5.305668   -3.721313    2.746235
     28          6           0       -5.061791   -2.223400    2.437932
     29          6           0       -7.048708   -4.865821    1.267224
     30          6           0       -4.209530   -4.504924    3.510993
     31          6           0       -2.868475   -4.294173    2.844470
     32          7           0       -4.462267    0.686365    2.169753
     33          6           0       -4.614276    0.004181    3.385563
     34          6           0       -4.481431    1.003771    4.461314
     35          6           0       -4.276551    2.208565    3.791733
     36          6           0       -4.307298    1.980505    2.386267
     37          6           0       -4.611965    0.750228    5.855270
     38          6           0       -4.063374    3.639478    3.936310
     39          8           0       -3.855376    4.393425    4.888042
     40          6           0       -4.236134    4.318800    2.506449
     41          6           0       -3.071639    5.248991    2.301500
     42          8           0       -1.911625    4.804901    2.181011
     43          8           0       -3.529077    6.483729    2.043211
     44          6           0       -2.424617    7.449929    1.800766
     45          1           0       -6.068513    1.707159   -3.661213
     46          1           0       -5.535496   -4.042647   -1.296972
     47          1           0       -4.857941   -1.670724    4.478329
     48          1           0       -5.267059    5.251490   -0.312751
     49          1           0       -5.397590    4.080943   -2.874046
     50          1           0       -7.379335    4.338766   -0.644227
     51          1           0       -7.615414    2.919718   -1.710451
     52          1           0       -7.646093    4.505549   -2.427933
     53          1           0       -3.122432    4.161998   -2.147115
     54          1           0       -2.619109    4.749594   -0.511918
     55          1           0       -4.212120    6.758831   -1.741667
     56          1           0       -3.366210    6.022639   -3.049456
     57          1           0       -5.674404    0.567585   -5.390060
     58          1           0       -6.254156   -1.011204   -5.760637
     59          1           0       -4.505628   -0.700883   -5.914489
     60          1           0       -5.593106   -3.138666   -5.992377
     61          1           0       -4.552006   -4.659758   -5.816684
     62          1           0       -3.869580   -3.012774   -5.748360
     63          1           0       -4.970030   -5.017482    0.990038
     64          1           0       -6.171347   -3.760860    3.407832
     65          1           0       -7.040028   -5.923221    1.001641
     66          1           0       -7.682754   -4.297111    0.587632
     67          1           0       -7.597566   -4.773463    2.204049
     68          1           0       -4.417626   -5.573944    3.482041
     69          1           0       -4.122087   -4.212289    4.557401
     70          1           0       -2.876623   -5.031566    2.042587
     71          1           0       -2.058883   -4.491338    3.547960
     72          1           0       -2.804639   -3.309482    2.381010
     73          1           0       -3.804618    1.297485    6.341756
     74          1           0       -4.553653   -0.316407    6.070895
     75          1           0       -5.604018    1.160592    6.043121
     76          1           0       -5.186762    4.850858    2.524982
     77          1           0       -2.556718    8.271671    2.504701
     78          1           0       -2.447758    7.686419    0.736838
     79          1           0       -1.421899    7.111991    2.064759
     80         12           0        4.228305   -1.283426   -0.406579
     81          6           0        6.608466    1.381410   -0.071148
     82          6           0        2.003014    1.045708   -1.528085
     83          6           0        1.979902   -3.519019   -0.287238
     84          6           0        6.213911   -3.144585    1.770391
     85          7           0        4.401497    0.899754   -0.716376
     86          6           0        5.373385    1.793709   -0.613399
     87          6           0        5.026598    3.190660   -1.194632
     88          6           0        3.427001    3.109137   -1.078378
     89          6           0        3.253924    1.593192   -1.146541
     90          6           0        2.895648    3.590764    0.261422
     91          6           0        5.486798    3.348404   -2.686388
     92          6           0        5.459961    4.782594   -3.219435
     93          1           0        6.493926    5.192988   -4.165462
     94          7           0        2.450191   -1.364690   -1.284231
     95          6           0        1.696948   -0.322836   -1.694651
     96          6           0        0.470730   -0.909725   -2.256909
     97          6           0        0.489149   -2.374630   -1.995300
     98          6           0        1.656036   -2.475345   -1.141880
     99          6           0       -0.534780   -0.107333   -3.030561
    100          6           0       -0.404001   -3.497084   -2.429559
    101          8           0       -0.337853   -4.657666   -1.889643
    102          6           0       -1.421275   -3.172055   -3.440008
    103          7           0        3.998227   -2.991068    0.756776
    104          6           0        2.955287   -3.819041    0.570630
    105          6           0        3.145031   -5.113452    1.324866
    106          6           0        4.650174   -5.079715    1.864285
    107          6           0        5.059825   -3.670362    1.383337
    108          6           0        2.190313   -5.347416    2.495411
    109          6           0        5.559319   -6.281981    1.489206
    110          6           0        5.824282   -6.284077    0.000853
    111          7           0        6.163967   -1.043706    0.522834
    112          6           0        6.795164   -1.932543    1.420411
    113          6           0        8.043825   -1.283552    1.869945
    114          6           0        8.041011   -0.042619    1.215287
    115          6           0        6.863126    0.081918    0.430061
    116          6           0        8.972153   -1.823246    2.804320
    117          6           0        8.761445    1.194659    1.018269
    118          8           0        9.863706    1.621833    1.359270
    119          6           0        7.804522    2.223885    0.275698
    120          6           0        8.577472    2.843036   -0.856429
    121          8           0        8.953997    2.150122   -1.818053
    122          8           0        8.555994    4.181860   -0.724335
    123          6           0        9.300336    4.841515   -1.830062
    124          1           0        1.162305    1.724579   -1.673821
    125          1           0        1.289670   -4.365776   -0.294369
    126          1           0        6.935809   -3.700320    2.372631
    127          1           0        5.399167    4.028193   -0.617140
    128          1           0        2.944431    3.586556   -1.927226
    129          1           0        3.692661    3.798227    0.959899
    130          1           0        2.265826    2.792698    0.632185
    131          1           0        2.237322    4.452404    0.118154
    132          1           0        4.736278    2.889836   -3.343033
    133          1           0        6.462869    2.927527   -2.830532
    134          1           0        5.361803    5.520075   -2.413563
    135          1           0        4.553536    4.914436   -3.815275
    136          1           0       -0.363171    0.970144   -2.916589
    137          1           0       -1.509652   -0.278255   -2.561230
    138          1           0       -0.591379   -0.402567   -4.080466
    139          1           0       -2.063844   -2.379644   -3.063638
    140          1           0       -1.901528   -4.120886   -3.686909
    141          1           0       -0.917678   -2.773827   -4.327937
    142          1           0        3.026604   -5.965461    0.666726
    143          1           0        4.688780   -5.060257    2.963361
    144          1           0        1.615173   -6.288517    2.408165
    145          1           0        1.522733   -4.498970    2.566226
    146          1           0        2.658191   -5.355921    3.478372
    147          1           0        5.054039   -7.224056    1.715822
    148          1           0        6.506323   -6.289031    2.018474
    149          1           0        4.938158   -6.779703   -0.406850
    150          1           0        6.729281   -6.843896   -0.226340
    151          1           0        5.843099   -5.262790   -0.396978
    152          1           0        9.960107   -1.637113    2.404569
    153          1           0        8.801479   -2.885567    2.965958
    154          1           0        8.726790   -1.228884    3.688517
    155          1           0        7.488824    2.966029    1.009954
    156          1           0       10.058612    5.481042   -1.367810
    157          1           0        8.532560    5.339257   -2.451776
    158          1           0        9.912715    4.213574   -2.466556
 ---------------------------------------------------------------------

 SCF Done:  E(RCAM-B3LYP) =  -4069.81327594     A.U. after   19 cycles

 Excitation energies and oscillator strengths:

 Excited State   1:      Singlet-A      1.6386 eV  756.63 nm  f=0.2192  <S**2>=0.000
     309 -> 315        0.11746
     310 -> 316       -0.11557
     311 -> 313        0.48828
     312 -> 314       -0.48158
 This state for optimization and/or second-order correction.
 Total Energy, E(TD-HF/TD-DFT) =  -4069.75305681
 Copying the excited state density for this state as the 1-particle RhoCI density.

 Excited State   2:      Singlet-A      1.6990 eV  729.75 nm  f=0.5387  <S**2>=0.000
     309 -> 315        0.12853
     310 -> 316        0.12711
     311 -> 313        0.48052
     312 -> 314        0.48652

 Excited State   3:      Singlet-A      2.1789 eV  569.01 nm  f=0.0055  <S**2>=0.000
     309 -> 313        0.37751
     310 -> 314        0.52215
     311 -> 315       -0.15625
     312 -> 316       -0.21628

 Excited State   4:      Singlet-A      2.1955 eV  564.73 nm  f=0.1633  <S**2>=0.000
     309 -> 313        0.51126
     310 -> 314       -0.37069
     311 -> 315       -0.22713
     312 -> 316        0.16264

 Excited State   5:      Singlet-A      2.2270 eV  556.73 nm  f=0.0031  <S**2>=0.000
     312 -> 313        0.69741

 The electronic state is 1-A.
 Alpha  occ. eigenvalues --  -46.88154 -46.87406 -19.26701 -19.26167 -19.19460
 Alpha  occ. eigenvalues --  -19.19107 -19.18971 -19.18514 -19.18382 -19.17822
 Alpha  occ. eigenvalues --  -14.42816 -14.42221 -14.41754 -14.41119 -14.39838
 Alpha  occ. eigenvalues --  -14.39097 -14.38925 -14.38351 -10.39507 -10.38896
 Alpha  occ. eigenvalues --  -10.35722 -10.35066 -10.34736 -10.33999 -10.32098
 Alpha  occ. eigenvalues --  -10.31764 -10.31605 -10.31307 -10.31018 -10.30940
 Alpha  occ. eigenvalues --  -10.30839 -10.30751 -10.30499 -10.30165 -10.30155
 Alpha  occ. eigenvalues --  -10.30112 -10.29971 -10.29904 -10.29670 -10.29608
 Alpha  occ. eigenvalues --  -10.29188 -10.29183 -10.29161 -10.29073 -10.28736
 Alpha  occ. eigenvalues --  -10.28508 -10.28496 -10.28415 -10.28149 -10.28148
 Alpha  occ. eigenvalues --  -10.28085 -10.27961 -10.27846 -10.27758 -10.27754
 Alpha  occ. eigenvalues --  -10.27751 -10.27620 -10.27529 -10.27526 -10.27373
 Alpha  occ. eigenvalues --  -10.27339 -10.27276 -10.27255 -10.27228 -10.27227
 Alpha  occ. eigenvalues --  -10.27208 -10.26815 -10.26687 -10.26566 -10.26477
 Alpha  occ. eigenvalues --  -10.26317 -10.26178 -10.26112 -10.25985 -10.25959
 Alpha  occ. eigenvalues --  -10.25700 -10.25642 -10.25519 -10.25377 -10.25279
 Alpha  occ. eigenvalues --  -10.25182 -10.25070 -10.24627 -10.24581 -10.24526
 Alpha  occ. eigenvalues --  -10.24452  -3.16901  -3.16156  -1.91783  -1.91368
 Alpha  occ. eigenvalues --   -1.91212  -1.91038  -1.90627  -1.90464  -1.17053
 Alpha  occ. eigenvalues --   -1.16459  -1.08972  -1.08434  -1.07483  -1.07074
 Alpha  occ. eigenvalues --   -1.06755  -1.06622  -1.04955  -1.04220  -1.04092
 Alpha  occ. eigenvalues --   -1.03581  -1.03408  -1.02797  -1.02742  -1.01864
 Alpha  occ. eigenvalues --   -0.92324  -0.91737  -0.89739  -0.89590  -0.89281
 Alpha  occ. eigenvalues --   -0.88817  -0.88464  -0.88193  -0.88024  -0.88023
 Alpha  occ. eigenvalues --   -0.87628  -0.87559  -0.87426  -0.86854  -0.85376
 Alpha  occ. eigenvalues --   -0.84709  -0.84091  -0.83692  -0.83227  -0.82989
 Alpha  occ. eigenvalues --   -0.82644  -0.82345  -0.81945  -0.81377  -0.80942
 Alpha  occ. eigenvalues --   -0.80199  -0.79138  -0.78381  -0.77543  -0.77249
 Alpha  occ. eigenvalues --   -0.76893  -0.76653  -0.76276  -0.75539  -0.75097
 Alpha  occ. eigenvalues --   -0.74601  -0.73087  -0.72451  -0.71976  -0.71312
 Alpha  occ. eigenvalues --   -0.69992  -0.69571  -0.69240  -0.68545  -0.67974
 Alpha  occ. eigenvalues --   -0.67641  -0.67360  -0.66949  -0.65679  -0.65186
 Alpha  occ. eigenvalues --   -0.65004  -0.64945  -0.64529  -0.64460  -0.64406
 Alpha  occ. eigenvalues --   -0.63992  -0.62645  -0.62070  -0.60744  -0.60191
 Alpha  occ. eigenvalues --   -0.60103  -0.59496  -0.59298  -0.58817  -0.58752
 Alpha  occ. eigenvalues --   -0.58189  -0.57950  -0.57567  -0.57330  -0.57015
 Alpha  occ. eigenvalues --   -0.56641  -0.56365  -0.55955  -0.55845  -0.55672
 Alpha  occ. eigenvalues --   -0.55574  -0.55193  -0.55049  -0.54769  -0.54310
 Alpha  occ. eigenvalues --   -0.54293  -0.53655  -0.53592  -0.53567  -0.53267
 Alpha  occ. eigenvalues --   -0.53162  -0.52968  -0.52878  -0.52647  -0.52499
 Alpha  occ. eigenvalues --   -0.52331  -0.52211  -0.52202  -0.52019  -0.51660
 Alpha  occ. eigenvalues --   -0.51496  -0.51369  -0.50967  -0.50936  -0.50378
 Alpha  occ. eigenvalues --   -0.50184  -0.50123  -0.49854  -0.49731  -0.49607
 Alpha  occ. eigenvalues --   -0.49533  -0.49443  -0.49154  -0.48945  -0.48922
 Alpha  occ. eigenvalues --   -0.48767  -0.48752  -0.48666  -0.48287  -0.48180
 Alpha  occ. eigenvalues --   -0.48048  -0.47985  -0.47592  -0.47324  -0.47093
 Alpha  occ. eigenvalues --   -0.46937  -0.46881  -0.46658  -0.46470  -0.46433
 Alpha  occ. eigenvalues --   -0.46256  -0.46157  -0.46023  -0.45872  -0.45593
 Alpha  occ. eigenvalues --   -0.45393  -0.45010  -0.44910  -0.44811  -0.44458
 Alpha  occ. eigenvalues --   -0.44387  -0.44311  -0.44291  -0.44161  -0.43866
 Alpha  occ. eigenvalues --   -0.43833  -0.43819  -0.43702  -0.43639  -0.43341
 Alpha  occ. eigenvalues --   -0.43332  -0.43124  -0.43074  -0.42806  -0.42726
 Alpha  occ. eigenvalues --   -0.42663  -0.42341  -0.42227  -0.42024  -0.41867
 Alpha  occ. eigenvalues --   -0.41751  -0.41460  -0.41424  -0.41232  -0.41200
 Alpha  occ. eigenvalues --   -0.41125  -0.40747  -0.40703  -0.40667  -0.40452
 Alpha  occ. eigenvalues --   -0.40358  -0.40257  -0.39951  -0.39495  -0.39244
 Alpha  occ. eigenvalues --   -0.38682  -0.38191  -0.38144  -0.37672  -0.37546
 Alpha  occ. eigenvalues --   -0.37420  -0.37075  -0.37040  -0.36929  -0.36582
 Alpha  occ. eigenvalues --   -0.36485  -0.35997  -0.34618  -0.34194  -0.34003
 Alpha  occ. eigenvalues --   -0.33661  -0.33523  -0.32924  -0.31606  -0.31359
 Alpha  occ. eigenvalues --   -0.30938  -0.30706  -0.30372  -0.29832  -0.29728
 Alpha  occ. eigenvalues --   -0.29668  -0.29083  -0.28969  -0.24418  -0.23781
 Alpha  occ. eigenvalues --   -0.21469  -0.20865
 Alpha virt. eigenvalues --   -0.09123  -0.08539  -0.02099  -0.01432  -0.00421
 Alpha virt. eigenvalues --    0.00265   0.01880   0.02412   0.02465   0.03468
 Alpha virt. eigenvalues --    0.04333   0.04670   0.04994   0.05366   0.05700

 Mulliken charges:
               1
     1  Mg   0.835826
     2  C   -0.004159
     3  C   -0.096762
     4  C   -0.041251
     5  C   -0.062612
     6  N   -0.256643
     7  C   -0.053377
     8  C   -0.013404
     9  C   -0.086381
    10  C    0.043980
    11  C    0.104602
    12  C    0.053203
    13  C   -0.071583
    14  H    0.034346
    15  N   -0.438509
    16  C    0.167094
    17  C   -0.181561
    18  C   -0.007263
    19  C    0.146601
    20  C    0.111267
    21  C    0.012073
    22  O   -0.246071
    23  C    0.065459
    24  N   -0.340340
    25  C    0.039994
    26  C   -0.029053
    27  C   -0.024483
    28  C    0.077002
    29  C    0.075728
    30  C    0.034515
    31  C   -0.006639
    32  N   -0.311162
    33  C    0.081442
    34  C   -0.168636
    35  C    0.008617
    36  C    0.083750
    37  C    0.127127
    38  C    0.046457
    39  O   -0.187387
    40  C   -0.005494
    41  C    0.213435
    42  O   -0.259120
    43  O   -0.304153
    44  C    0.157478
    45  H   -0.017295
    46  H   -0.014425
    47  H   -0.040133
    48  H    0.001867
    49  H   -0.004507
    50  H    0.025905
    51  H    0.017367
    52  H    0.017270
    53  H    0.008194
    54  H    0.041682
    55  H    0.019938
    56  H    0.018285
    57  H    0.005761
    58  H    0.028292
    59  H    0.037147
    60  H    0.037906
    61  H    0.038357
    62  H    0.026792
    63  H    0.021820
    64  H    0.009558
    65  H    0.024733
    66  H    0.011911
    67  H    0.004774
    68  H    0.007085
    69  H    0.003504
    70  H    0.016622
    71  H    0.017687
    72  H    0.029471
    73  H    0.048233
    74  H    0.010194
    75  H    0.046720
    76  H    0.035893
    77  H    0.044429
    78  H    0.045990
    79  H    0.052680
    80  Mg   0.838231
    81  C   -0.016935
    82  C   -0.087664
    83  C   -0.045919
    84  C   -0.065011
    85  N   -0.254757
    86  C   -0.048988
    87  C   -0.015225
    88  C   -0.090580
    89  C    0.045644
    90  C    0.114020
    91  C    0.062783
    92  C   -0.077000
    93  H    0.033334
    94  N   -0.423568
    95  C    0.163817
    96  C   -0.179543
    97  C   -0.008966
    98  C    0.151904
    99  C    0.100267
   100  C    0.018772
   101  O   -0.251358
   102  C    0.040609
   103  N   -0.349849
   104  C    0.037666
   105  C   -0.019911
   106  C   -0.034780
   107  C    0.088809
   108  C    0.073204
   109  C    0.034932
   110  C   -0.007585
   111  N   -0.324015
   112  C    0.078344
   113  C   -0.163463
   114  C    0.002232
   115  C    0.096143
   116  C    0.131501
   117  C    0.042136
   118  O   -0.188634
   119  C    0.001001
   120  C    0.211118
   121  O   -0.251522
   122  O   -0.305365
   123  C    0.152316
   124  H   -0.016509
   125  H   -0.015811
   126  H   -0.041133
   127  H   -0.000666
   128  H   -0.006375
   129  H    0.021368
   130  H    0.021027
   131  H    0.020042
   132  H    0.013015
   133  H    0.037063
   134  H    0.020950
   135  H    0.018501
   136  H    0.007810
   137  H    0.033066
   138  H    0.034572
   139  H    0.049403
   140  H    0.047174
   141  H    0.027452
   142  H    0.014184
   143  H    0.012028
   144  H    0.023937
   145  H    0.012572
   146  H    0.004970
   147  H    0.005548
   148  H    0.003383
   149  H    0.010803
   150  H    0.017429
   151  H    0.030423
   152  H    0.045415
   153  H    0.007966
   154  H    0.047011
   155  H    0.035695
   156  H    0.043534
   157  H    0.049225
   158  H    0.053123
 Sum of Mulliken charges =  -0.00000

 Dipole moment (field-independent basis, Debye):
    X=             -6.7511    Y=              2.0578    Z=             -3.9693  Tot=              8.0973
 Quadrupole moment (field-independent basis, Debye-Ang):
   XX=           -550.5857   YY=           -490.4691   ZZ=           -495.6272
   XY=            -17.5590   XZ=             15.4082   YZ=            -56.1235

 Normal termination of Gaussian 16 at Fri Sep 10 06:10:23 2021.
