 Gaussian 16, Revision A.03,
 Gaussian 16:  ES64L-G16RevA.03 25-Dec-2016

 -----------------------------------
 #p cam-b3lyp/Def2SVP td=(nstates=5)
 -----------------------------------

 --------------------------------
 TDDFT excited states in gaussian
 --------------------------------
 Symbolic Z-matrix:
 Charge =  0 Multiplicity = 1

                         Standard orientation:
 ---------------------------------------------------------------------
 Center     Atomic      Atomic             Coordinates (Angstroms)
 Number     Number       Type             X           Y           Z
 ---------------------------------------------------------------------
      1         12           0        7.820024   -0.811445    0.364077
      2          6           0        8.253798    1.905577   -1.925430
      3          6           0        8.936546    1.276252    2.821303
      4          6           0        7.878361   -3.312862    2.312444
      5          6           0        7.836734   -2.943437   -2.392732
      6          7           0        8.479371    1.301522    0.328354
      7          6           0        8.541353    2.248595   -0.602442
      8          6           0        8.867679    3.659417   -0.027578
      9          6           0        9.600794    3.219489    1.318157
     10          6           0        8.941775    1.866803    1.522744
     11          6           0       11.103286    3.014106    1.154335
     12          6           0        7.576319    4.493482    0.269839
     13          6           0        7.806374    5.986443    0.521824
     14          1           0        6.810930    6.937640    0.051013
     15          7           0        7.859796   -0.897764    2.337353
     16          6           0        8.334733    0.050696    3.180054
     17          6           0        8.142120   -0.483732    4.545326
     18          6           0        7.691551   -1.897818    4.421060
     19          6           0        7.818711   -2.103481    3.000880
     20          6           0        8.334064    0.335780    5.784401
     21          6           0        7.231031   -2.907346    5.424506
     22          8           0        7.107547   -4.146547    5.135183
     23          6           0        7.010220   -2.416165    6.796740
     24          7           0        8.072644   -2.858125    0.040162
     25          6           0        7.997144   -3.731177    1.050639
     26          6           0        7.925230   -5.142747    0.548407
     27          6           0        7.721666   -5.039817   -1.032011
     28          6           0        7.798274   -3.500178   -1.180038
     29          6           0        9.145948   -6.023218    0.849452
     30          6           0        6.499784   -5.778707   -1.633229
     31          6           0        5.221042   -5.119349   -1.167221
     32          7           0        7.831452   -0.581300   -1.794151
     33          6           0        7.859901   -1.605961   -2.751196
     34          6           0        7.968055   -0.960232   -4.072334
     35          6           0        8.011994    0.403483   -3.789147
     36          6           0        7.962548    0.596212   -2.378933
     37          6           0        8.071387   -1.632030   -5.322312
     38          6           0        8.114039    1.741569   -4.348586
     39          8           0        8.093402    2.208914   -5.488171
     40          6           0        8.397452    2.761694   -3.159112
     41          6           0        7.455526    3.923333   -3.322457
     42          8           0        6.224901    3.774212   -3.178616
     43          8           0        8.161553    5.062661   -3.385699
     44          6           0        7.285164    6.257021   -3.518363
     45          1           0        9.492288    1.763384    3.624917
     46          1           0        7.789303   -4.200490    2.942225
     47          1           0        7.762144   -3.541084   -3.303065
     48          1           0        9.543021    4.255366   -0.641729
     49          1           0        9.363653    3.885821    2.147306
     50          1           0       11.402514    3.078758    0.108293
     51          1           0       11.305358    2.017454    1.547203
     52          1           0       11.660038    3.704653    1.788329
     53          1           0        7.175231    4.201183    1.240277
     54          1           0        6.845369    4.371333   -0.530235
     55          1           0        8.805339    6.293792    0.211159
     56          1           0        7.792952    6.157162    1.598334
     57          1           0        8.825357    1.283109    5.565896
     58          1           0        9.044616   -0.199932    6.413558
     59          1           0        7.400496    0.483290    6.327562
     60          1           0        7.937553   -1.989854    7.179965
     61          1           0        6.598360   -3.256596    7.354321
     62          1           0        6.286912   -1.600730    6.767775
     63          1           0        7.077632   -5.670142    0.984135
     64          1           0        8.572853   -5.443045   -1.581158
     65          1           0        8.904794   -6.932402    1.400754
     66          1           0        9.872350   -5.418308    1.391406
     67          1           0        9.722056   -6.320761   -0.026325
     68          1           0        6.472949   -6.811276   -1.286779
     69          1           0        6.499926   -5.794488   -2.723184
     70          1           0        5.053340   -5.575387   -0.192163
     71          1           0        4.403477   -5.348902   -1.851402
     72          1           0        5.359949   -4.049959   -1.007236
     73          1           0        7.411049   -1.102283   -6.008818
     74          1           0        7.790239   -2.681071   -5.232475
     75          1           0        9.132230   -1.500776   -5.535007
     76          1           0        9.440282    3.064634   -3.247738
     77          1           0        7.605786    6.792746   -4.411914
     78          1           0        7.335399    6.785523   -2.566224
     79          1           0        6.239263    6.063127   -3.758851
     80         12           0       -7.986928    0.720724    0.582298
     81          6           0       -8.094147   -2.225216   -1.464407
     82          6           0       -6.979753    2.430341   -2.192125
     83          6           0       -7.448917    3.231381    2.446319
     84          6           0       -7.882204   -1.381466    3.359989
     85          7           0       -7.621115    0.075638   -1.501518
     86          6           0       -7.754241   -1.056143   -2.176576
     87          6           0       -7.587837   -0.911942   -3.713147
     88          6           0       -6.695554    0.423067   -3.734157
     89          6           0       -7.147147    1.039727   -2.411856
     90          6           0       -5.202929    0.150710   -3.649066
     91          6           0       -8.958988   -0.697971   -4.445386
     92          6           0       -8.907628   -0.858071   -5.966406
     93          1           0      -10.060791   -1.444319   -6.643900
     94          7           0       -7.791302    2.641814    0.124356
     95          6           0       -7.393426    3.160483   -1.056305
     96          6           0       -7.394892    4.620414   -0.875316
     97          6           0       -7.667223    4.915156    0.557744
     98          6           0       -7.624837    3.577903    1.114584
     99          6           0       -7.231955    5.581979   -2.016491
    100          6           0       -7.911120    6.190821    1.305670
    101          8           0       -7.889464    6.235135    2.586443
    102          6           0       -8.083383    7.404221    0.493587
    103          7           0       -7.493096    0.903568    2.593529
    104          6           0       -7.368103    2.113056    3.167504
    105          6           0       -7.283131    1.997287    4.670761
    106          6           0       -7.621520    0.470159    5.003872
    107          6           0       -7.762220   -0.077196    3.566507
    108          6           0       -5.936018    2.366834    5.291337
    109          6           0       -8.774954    0.208353    6.010702
    110          6           0      -10.093892    0.633430    5.406471
    111          7           0       -8.171956   -1.403074    0.933430
    112          6           0       -8.070955   -2.074953    2.171360
    113          6           0       -8.150611   -3.522767    1.888690
    114          6           0       -8.270255   -3.594180    0.492601
    115          6           0       -8.245188   -2.284260   -0.057837
    116          6           0       -8.061737   -4.564968    2.854123
    117          6           0       -8.401369   -4.480326   -0.641533
    118          8           0       -8.562814   -5.691752   -0.783307
    119          6           0       -8.166007   -3.639481   -1.969681
    120          6           0       -9.265037   -3.982683   -2.937601
    121          8           0      -10.445360   -3.682410   -2.686075
    122          8           0       -8.719091   -4.410234   -4.090654
    123          6           0       -9.769391   -4.752342   -5.086474
    124          1           0       -6.443184    3.013098   -2.941369
    125          1           0       -7.370029    4.067757    3.144692
    126          1           0       -7.955500   -2.098150    4.180750
    127          1           0       -7.052879   -1.724260   -4.190347
    128          1           0       -6.966780    1.066380   -4.567199
    129          1           0       -4.993516   -0.893233   -3.468874
    130          1           0       -4.839646    0.756453   -2.829223
    131          1           0       -4.699901    0.524089   -4.545653
    132          1           0       -9.239857    0.360908   -4.377301
    133          1           0       -9.712714   -1.344184   -4.039262
    134          1           0       -7.980390   -1.340291   -6.299037
    135          1           0       -8.870080    0.135843   -6.418877
    136          1           0       -6.884070    5.073697   -2.924238
    137          1           0       -6.410784    6.256691   -1.751339
    138          1           0       -8.130934    6.174366   -2.199764
    139          1           0       -7.198255    7.557294   -0.119254
    140          1           0       -8.336063    8.196114    1.201362
    141          1           0       -8.920418    7.247781   -0.195995
    142          1           0       -8.018023    2.632612    5.149706
    143          1           0       -6.762787   -0.048424    5.454952
    144          1           0       -6.010473    3.167550    6.051199
    145          1           0       -5.262505    2.658406    4.496412
    146          1           0       -5.400153    1.541513    5.757065
    147          1           0       -8.636660    0.812761    6.910554
    148          1           0       -8.846209   -0.827216    6.326150
    149          1           0      -10.119030    1.709798    5.601147
    150          1           0      -10.921459    0.124306    5.896329
    151          1           0      -10.091404    0.495091    4.319049
    152          1           0       -8.829544   -5.285625    2.605882
    153          1           0       -8.186475   -4.182255    3.864937
    154          1           0       -7.042266   -4.914544    2.670453
    155          1           0       -7.181761   -3.906512   -2.356379
    156          1           0       -9.588709   -5.785398   -5.399281
    157          1           0       -9.706469   -3.971279   -5.867327
    158          1           0      -10.792589   -4.813769   -4.734724
 ---------------------------------------------------------------------

 SCF Done:  E(RCAM-B3LYP) =  -4069.81190733     A.U. after   19 cycles

 Excitation energies and oscillator strengths:

 Excited State   1:      Singlet-A      1.6745 eV  740.43 nm  f=0.3149  <S**2>=0.000
     310 -> 316        0.16053
     311 -> 313        0.25626
     312 -> 314        0.63640
 This state for optimization and/or second-order correction.
 Total Energy, E(TD-HF/TD-DFT) =  -4069.75037080
 Copying the excited state density for this state as the 1-particle RhoCI density.

 Excited State   2:      Singlet-A      1.6804 eV  737.81 nm  f=0.4342  <S**2>=0.000
     309 -> 315        0.16301
     311 -> 313        0.63601
     312 -> 314       -0.25621

 Excited State   3:      Singlet-A      2.1859 eV  567.20 nm  f=0.1000  <S**2>=0.000
     310 -> 314        0.64214
     312 -> 316       -0.27256

 Excited State   4:      Singlet-A      2.1927 eV  565.44 nm  f=0.0994  <S**2>=0.000
     309 -> 313        0.64033
     311 -> 315       -0.27815

 Excited State   5:      Singlet-A      2.7633 eV  448.68 nm  f=0.0000  <S**2>=0.000
     312 -> 313        0.70710

 The electronic state is 1-A.
 Alpha  occ. eigenvalues --  -46.87839 -46.87587 -19.26362 -19.26279 -19.19099
 Alpha  occ. eigenvalues --  -19.19092 -19.18848 -19.18656 -19.18227 -19.17982
 Alpha  occ. eigenvalues --  -14.42493 -14.42418 -14.41489 -14.41289 -14.39444
 Alpha  occ. eigenvalues --  -14.39279 -14.38632 -14.38528 -10.39155 -10.39021
 Alpha  occ. eigenvalues --  -10.35480 -10.35333 -10.34447 -10.34159 -10.31765
 Alpha  occ. eigenvalues --  -10.31689 -10.31451 -10.31224 -10.30952 -10.30941
 Alpha  occ. eigenvalues --  -10.30616 -10.30550 -10.30330 -10.30286 -10.30242
 Alpha  occ. eigenvalues --  -10.30074 -10.29961 -10.29831 -10.29674 -10.29364
 Alpha  occ. eigenvalues --  -10.29331 -10.29294 -10.28797 -10.28621 -10.28592
 Alpha  occ. eigenvalues --  -10.28562 -10.28409 -10.28330 -10.28161 -10.28029
 Alpha  occ. eigenvalues --  -10.27929 -10.27838 -10.27769 -10.27626 -10.27584
 Alpha  occ. eigenvalues --  -10.27528 -10.27515 -10.27476 -10.27471 -10.27449
 Alpha  occ. eigenvalues --  -10.27409 -10.27396 -10.27381 -10.27331 -10.27217
 Alpha  occ. eigenvalues --  -10.26977 -10.26758 -10.26603 -10.26437 -10.26359
 Alpha  occ. eigenvalues --  -10.26274 -10.26204 -10.26101 -10.26059 -10.25896
 Alpha  occ. eigenvalues --  -10.25878 -10.25867 -10.25790 -10.25456 -10.25364
 Alpha  occ. eigenvalues --  -10.24880 -10.24827 -10.24801 -10.24708 -10.24695
 Alpha  occ. eigenvalues --  -10.24623  -3.16582  -3.16337  -1.91464  -1.91219
 Alpha  occ. eigenvalues --   -1.91050  -1.90892  -1.90808  -1.90645  -1.16710
 Alpha  occ. eigenvalues --   -1.16573  -1.08687  -1.08590  -1.07248  -1.06909
 Alpha  occ. eigenvalues --   -1.06877  -1.06720  -1.04624  -1.04415  -1.03801
 Alpha  occ. eigenvalues --   -1.03590  -1.03276  -1.02969  -1.02453  -1.02040
 Alpha  occ. eigenvalues --   -0.92021  -0.91913  -0.89555  -0.89434  -0.89233
 Alpha  occ. eigenvalues --   -0.89052  -0.88320  -0.88166  -0.87918  -0.87724
 Alpha  occ. eigenvalues --   -0.87715  -0.87606  -0.87312  -0.87049  -0.85027
 Alpha  occ. eigenvalues --   -0.84912  -0.83970  -0.83825  -0.83000  -0.82870
 Alpha  occ. eigenvalues --   -0.82693  -0.82572  -0.81644  -0.81525  -0.80645
 Alpha  occ. eigenvalues --   -0.80371  -0.78838  -0.78563  -0.77259  -0.77067
 Alpha  occ. eigenvalues --   -0.76982  -0.76823  -0.75973  -0.75752  -0.74934
 Alpha  occ. eigenvalues --   -0.74745  -0.72817  -0.72627  -0.71714  -0.71505
 Alpha  occ. eigenvalues --   -0.69936  -0.69708  -0.68917  -0.68744  -0.67685
 Alpha  occ. eigenvalues --   -0.67532  -0.67265  -0.67120  -0.65334  -0.65187
 Alpha  occ. eigenvalues --   -0.64901  -0.64699  -0.64666  -0.64579  -0.64305
 Alpha  occ. eigenvalues --   -0.64145  -0.62358  -0.62210  -0.60479  -0.60273
 Alpha  occ. eigenvalues --   -0.59849  -0.59707  -0.59031  -0.58922  -0.58549
 Alpha  occ. eigenvalues --   -0.58356  -0.57643  -0.57483  -0.57350  -0.57174
 Alpha  occ. eigenvalues --   -0.56355  -0.56131  -0.56041  -0.55813  -0.55562
 Alpha  occ. eigenvalues --   -0.55383  -0.55381  -0.55190  -0.54573  -0.54429
 Alpha  occ. eigenvalues --   -0.53941  -0.53817  -0.53340  -0.53267  -0.53160
 Alpha  occ. eigenvalues --   -0.53066  -0.52966  -0.52828  -0.52795  -0.52591
 Alpha  occ. eigenvalues --   -0.52468  -0.52354  -0.51966  -0.51820  -0.51663
 Alpha  occ. eigenvalues --   -0.51575  -0.51243  -0.51132  -0.50605  -0.50406
 Alpha  occ. eigenvalues --   -0.50062  -0.49956  -0.49901  -0.49807  -0.49558
 Alpha  occ. eigenvalues --   -0.49411  -0.49262  -0.49143  -0.49123  -0.49017
 Alpha  occ. eigenvalues --   -0.48644  -0.48498  -0.48488  -0.48479  -0.48321
 Alpha  occ. eigenvalues --   -0.48272  -0.47737  -0.47519  -0.47337  -0.47048
 Alpha  occ. eigenvalues --   -0.46838  -0.46638  -0.46602  -0.46466  -0.46402
 Alpha  occ. eigenvalues --   -0.46208  -0.46203  -0.46023  -0.45877  -0.45752
 Alpha  occ. eigenvalues --   -0.45235  -0.45152  -0.44630  -0.44545  -0.44443
 Alpha  occ. eigenvalues --   -0.44392  -0.44184  -0.44132  -0.44066  -0.44045
 Alpha  occ. eigenvalues --   -0.44016  -0.43867  -0.43551  -0.43484  -0.43426
 Alpha  occ. eigenvalues --   -0.43309  -0.43071  -0.42861  -0.42831  -0.42762
 Alpha  occ. eigenvalues --   -0.42694  -0.42496  -0.42049  -0.41900  -0.41750
 Alpha  occ. eigenvalues --   -0.41597  -0.41578  -0.41379  -0.41183  -0.40910
 Alpha  occ. eigenvalues --   -0.40909  -0.40858  -0.40651  -0.40622  -0.40606
 Alpha  occ. eigenvalues --   -0.40431  -0.40282  -0.40141  -0.39468  -0.39378
 Alpha  occ. eigenvalues --   -0.38502  -0.38291  -0.37797  -0.37570  -0.37356
 Alpha  occ. eigenvalues --   -0.37311  -0.37201  -0.37117  -0.36776  -0.36705
 Alpha  occ. eigenvalues --   -0.36242  -0.36151  -0.34330  -0.34181  -0.33843
 Alpha  occ. eigenvalues --   -0.33793  -0.33231  -0.33103  -0.31377  -0.31215
 Alpha  occ. eigenvalues --   -0.31078  -0.30900  -0.30087  -0.29887  -0.29491
 Alpha  occ. eigenvalues --   -0.29368  -0.29257  -0.29141  -0.24124  -0.23962
 Alpha  occ. eigenvalues --   -0.21170  -0.21044
 Alpha virt. eigenvalues --   -0.08817  -0.08720  -0.01790  -0.01614  -0.00098
 Alpha virt. eigenvalues --    0.00043   0.02152   0.02275   0.03074   0.03293
 Alpha virt. eigenvalues --    0.04674   0.04813   0.05026   0.05235   0.06126

 Mulliken charges:
               1
     1  Mg   0.838650
     2  C   -0.003086
     3  C   -0.094125
     4  C   -0.045801
     5  C   -0.063922
     6  N   -0.256811
     7  C   -0.052515
     8  C   -0.014000
     9  C   -0.087012
    10  C    0.046355
    11  C    0.104780
    12  C    0.053448
    13  C   -0.071783
    14  H    0.035869
    15  N   -0.433177
    16  C    0.168483
    17  C   -0.177079
    18  C   -0.003909
    19  C    0.148722
    20  C    0.110153
    21  C    0.012334
    22  O   -0.249404
    23  C    0.062449
    24  N   -0.341142
    25  C    0.041299
    26  C   -0.028251
    27  C   -0.023987
    28  C    0.074814
    29  C    0.076123
    30  C    0.035108
    31  C   -0.004544
    32  N   -0.310406
    33  C    0.080289
    34  C   -0.169887
    35  C    0.008234
    36  C    0.082872
    37  C    0.127372
    38  C    0.045899
    39  O   -0.188799
    40  C   -0.005259
    41  C    0.212849
    42  O   -0.257496
    43  O   -0.304656
    44  C    0.157840
    45  H   -0.017495
    46  H   -0.016640
    47  H   -0.041477
    48  H    0.000900
    49  H   -0.003962
    50  H    0.025469
    51  H    0.016525
    52  H    0.016758
    53  H    0.011285
    54  H    0.043855
    55  H    0.017934
    56  H    0.018137
    57  H    0.005934
    58  H    0.026964
    59  H    0.039645
    60  H    0.037411
    61  H    0.035805
    62  H    0.031468
    63  H    0.016751
    64  H    0.009517
    65  H    0.023428
    66  H    0.012531
    67  H    0.004830
    68  H    0.006667
    69  H    0.004666
    70  H    0.009041
    71  H    0.018207
    72  H    0.028692
    73  H    0.047192
    74  H    0.009156
    75  H    0.046071
    76  H    0.035213
    77  H    0.042872
    78  H    0.046550
    79  H    0.053207
    80  Mg   0.837970
    81  C   -0.016792
    82  C   -0.087533
    83  C   -0.045582
    84  C   -0.064944
    85  N   -0.254622
    86  C   -0.049682
    87  C   -0.015107
    88  C   -0.090504
    89  C    0.045693
    90  C    0.114193
    91  C    0.062477
    92  C   -0.077882
    93  H    0.034601
    94  N   -0.423548
    95  C    0.162867
    96  C   -0.174314
    97  C   -0.007940
    98  C    0.152258
    99  C    0.099242
   100  C    0.015515
   101  O   -0.253486
   102  C    0.061215
   103  N   -0.350051
   104  C    0.037585
   105  C   -0.019802
   106  C   -0.034781
   107  C    0.088917
   108  C    0.073725
   109  C    0.034807
   110  C   -0.007633
   111  N   -0.324098
   112  C    0.078418
   113  C   -0.163240
   114  C    0.002253
   115  C    0.096144
   116  C    0.131499
   117  C    0.042312
   118  O   -0.188052
   119  C    0.000975
   120  C    0.211207
   121  O   -0.251115
   122  O   -0.305548
   123  C    0.152079
   124  H   -0.018941
   125  H   -0.015847
   126  H   -0.040677
   127  H   -0.000517
   128  H   -0.004189
   129  H    0.022464
   130  H    0.014886
   131  H    0.017266
   132  H    0.013844
   133  H    0.037471
   134  H    0.021046
   135  H    0.019738
   136  H    0.009200
   137  H    0.026417
   138  H    0.039644
   139  H    0.038407
   140  H    0.036105
   141  H    0.033890
   142  H    0.014200
   143  H    0.012287
   144  H    0.024723
   145  H    0.011827
   146  H    0.005450
   147  H    0.005956
   148  H    0.003566
   149  H    0.010816
   150  H    0.017778
   151  H    0.030267
   152  H    0.045842
   153  H    0.008330
   154  H    0.046999
   155  H    0.035200
   156  H    0.043789
   157  H    0.049626
   158  H    0.053441
 Sum of Mulliken charges =  -0.00000

 Dipole moment (field-independent basis, Debye):
    X=              4.5000    Y=              4.1247    Z=              1.5699  Tot=              6.3030
 Quadrupole moment (field-independent basis, Debye-Ang):
   XX=           -519.1982   YY=           -513.2920   ZZ=           -485.6458
   XY=            -15.7857   XZ=             48.9016   YZ=             11.5543

 Normal termination of Gaussian 16 at Sat Sep  4 11:59:08 2021.
