 Gaussian 16, Revision A.03,
 Gaussian 16:  ES64L-G16RevA.03 25-Dec-2016

 -----------------------------------
 #p cam-b3lyp/Def2SVP td=(nstates=5)
 -----------------------------------

 --------------------------------
 TDDFT excited states in gaussian
 --------------------------------
 Symbolic Z-matrix:
 Charge =  0 Multiplicity = 1

                         Standard orientation:
 ---------------------------------------------------------------------
 Center     Atomic      Atomic             Coordinates (Angstroms)
 Number     Number       Type             X           Y           Z
 ---------------------------------------------------------------------
      1         12           0        6.470842    0.874649    0.400436
      2          6           0        7.142420   -2.357415   -0.983383
      3          6           0        7.199460    2.175840   -2.668617
      4          6           0        6.327320    3.759369    1.709793
      5          6           0        6.906050   -0.547256    3.552331
      6          7           0        7.079015   -0.072983   -1.505545
      7          6           0        7.242451   -1.325656   -1.919392
      8          6           0        7.455663   -1.445127   -3.458106
      9          6           0        8.012565    0.020102   -3.749586
     10          6           0        7.364217    0.760841   -2.593354
     11          6           0        9.527897    0.133388   -3.617537
     12          6           0        6.116828   -1.712183   -4.224875
     13          6           0        6.275864   -2.163729   -5.679580
     14          1           0        5.330093   -3.128014   -6.220892
     15          7           0        6.248620    2.651122   -0.434795
     16          6           0        6.584191    2.998635   -1.700463
     17          6           0        6.223545    4.425875   -1.840461
     18          6           0        5.827108    4.929024   -0.495927
     19          6           0        6.147703    3.792277    0.328938
     20          6           0        6.228818    5.151159   -3.151067
     21          6           0        5.260586    6.231894   -0.027189
     22          8           0        5.206138    6.543564    1.211549
     23          6           0        4.846877    7.183149   -1.074568
     24          7           0        6.812691    1.573475    2.337551
     25          6           0        6.623471    2.860057    2.650421
     26          6           0        6.652630    3.070908    4.135220
     27          6           0        6.659691    1.613911    4.788567
     28          6           0        6.719045    0.773027    3.489467
     29          6           0        7.842607    3.877317    4.673430
     30          6           0        5.546872    1.300344    5.819940
     31          6           0        4.202134    1.264217    5.128947
     32          7           0        6.765110   -1.125843    1.189411
     33          6           0        6.945346   -1.484133    2.533218
     34          6           0        7.213791   -2.933686    2.561547
     35          6           0        7.187313   -3.317435    1.222188
     36          6           0        6.945349   -2.175059    0.406883
     37          6           0        7.499034   -3.705870    3.722064
     38          6           0        7.331596   -4.422528    0.288481
     39          8           0        7.452391   -5.643224    0.401624
     40          6           0        7.429388   -3.824678   -1.184217
     41          6           0        6.490593   -4.611670   -2.057497
     42          8           0        5.255647   -4.547745   -1.889606
     43          8           0        7.171662   -5.123651   -3.094108
     44          6           0        6.292926   -5.891970   -4.015879
     45          1           0        7.631194    2.713204   -3.515249
     46          1           0        6.175878    4.717178    2.211892
     47          1           0        6.967885   -1.075061    4.505773
     48          1           0        8.192761   -2.190098   -3.758321
     49          1           0        7.651109    0.411140   -4.700460
     50          1           0        9.962601   -0.782802   -3.218102
     51          1           0        9.699120    0.965414   -2.934230
     52          1           0        9.978497    0.426972   -4.565981
     53          1           0        5.596679   -0.766935   -4.379833
     54          1           0        5.502423   -2.435717   -3.687911
     55          1           0        7.299850   -2.472825   -5.891289
     56          1           0        6.114699   -1.300091   -6.324836
     57          1           0        6.722414    4.569564   -3.928663
     58          1           0        6.861372    6.029789   -3.026196
     59          1           0        5.227829    5.458853   -3.453847
     60          1           0        5.704371    7.419809   -1.704841
     61          1           0        4.384150    8.020926   -0.554123
     62          1           0        4.114890    6.699259   -1.721866
     63          1           0        5.767093    3.608787    4.471280
     64          1           0        7.585894    1.411576    5.326974
     65          1           0        7.551469    4.760007    5.243346
     66          1           0        8.475606    4.148317    3.828941
     67          1           0        8.537425    3.309442    5.291624
     68          1           0        5.498354    2.083859    6.575384
     69          1           0        5.693021    0.351108    6.335540
     70          1           0        3.916458    2.315033    5.097190
     71          1           0        3.488963    0.683280    5.714702
     72          1           0        4.293151    0.920005    4.098549
     73          1           0        6.924034   -4.626664    3.624688
     74          1           0        7.233232   -3.167156    4.631316
     75          1           0        8.575391   -3.840089    3.615770
     76          1           0        8.467269   -3.932132   -1.497869
     77          1           0        6.717337   -6.892073   -4.104782
     78          1           0        6.203006   -5.297787   -4.925420
     79          1           0        5.293404   -6.124636   -3.646877
     80         12           0       -6.637137   -0.963010    0.287008
     81          6           0       -6.849779    2.143962   -1.496393
     82          6           0       -6.034066    0.866068    3.102208
     83          6           0       -5.998877   -3.680256    1.795857
     84          6           0       -6.119125   -2.529719   -2.782647
     85          7           0       -6.486475    1.216671    0.631319
     86          6           0       -6.646539    2.302767   -0.109705
     87          6           0       -6.665414    3.631614    0.692397
     88          6           0       -5.841484    3.145636    1.982285
     89          6           0       -6.164033    1.653670    1.930503
     90          6           0       -4.338457    3.314738    1.835183
     91          6           0       -8.120137    4.078352    1.074788
     92          6           0       -8.237905    5.515831    1.586200
     93          1           0       -9.434569    6.280107    1.245099
     94          7           0       -6.580962   -1.371481    2.228296
     95          6           0       -6.345573   -0.504871    3.235694
     96          6           0       -6.390691   -1.302256    4.471134
     97          6           0       -6.508323   -2.738240    4.098575
     98          6           0       -6.342721   -2.652140    2.661474
     99          6           0       -6.403470   -0.683667    5.838840
    100          6           0       -6.720328   -3.984305    4.903914
    101          8           0       -6.552738   -5.149861    4.397731
    102          6           0       -7.038833   -3.798775    6.327169
    103          7           0       -5.922701   -2.803463   -0.364648
    104          6           0       -5.785837   -3.833449    0.488775
    105          6           0       -5.522632   -5.123423   -0.250872
    106          6           0       -5.752339   -4.786555   -1.797264
    107          6           0       -6.033896   -3.271964   -1.687211
    108          6           0       -4.130495   -5.725914   -0.062868
    109          6           0       -6.768932   -5.673310   -2.567254
    110          6           0       -8.166383   -5.428715   -2.045062
    111          7           0       -6.686183   -0.369736   -1.789923
    112          6           0       -6.413136   -1.178611   -2.914755
    113          6           0       -6.460789   -0.302250   -4.103086
    114          6           0       -6.737740    0.970132   -3.580750
    115          6           0       -6.834449    0.895918   -2.164897
    116          6           0       -6.214884   -0.706808   -5.445466
    117          6           0       -6.959737    2.361089   -3.904258
    118          8           0       -7.082718    3.001378   -4.947635
    119          6           0       -6.916911    3.205955   -2.558604
    120          6           0       -8.104186    4.129442   -2.551998
    121          8           0       -9.259653    3.672996   -2.495717
    122          8           0       -7.676815    5.395452   -2.394068
    123          6           0       -8.819010    6.347636   -2.370149
    124          1           0       -5.614020    1.329854    3.995153
    125          1           0       -5.876870   -4.663387    2.256349
    126          1           0       -6.065263   -2.959974   -3.784972
    127          1           0       -6.153787    4.458209    0.214109
    128          1           0       -6.235386    3.589516    2.892875
    129          1           0       -4.063627    3.625105    0.838037
    130          1           0       -3.909992    2.347235    2.061871
    131          1           0       -3.959455    3.998835    2.599842
    132          1           0       -8.437820    3.532863    1.972710
    133          1           0       -8.792517    3.931281    0.252061
    134          1           0       -7.334909    6.102597    1.378227
    135          1           0       -8.296926    5.492325    2.677055
    136          1           0       -6.140700    0.380729    5.801395
    137          1           0       -5.587817   -1.145008    6.406062
    138          1           0       -7.342931   -0.853480    6.369168
    139          1           0       -6.238121   -3.240729    6.806650
    140          1           0       -7.242790   -4.799172    6.713802
    141          1           0       -7.942213   -3.183741    6.406217
    142          1           0       -6.224621   -5.891597    0.049492
    143          1           0       -4.825117   -4.892337   -2.379429
    144          1           0       -4.151963   -6.761686    0.325451
    145          1           0       -3.566954   -5.082879    0.600049
    146          1           0       -3.508399   -5.738852   -0.956200
    147          1           0       -6.554431   -6.731090   -2.396238
    148          1           0       -6.757357   -5.511706   -3.639979
    149          1           0       -8.216447   -6.073533   -1.162577
    150          1           0       -8.908443   -5.716743   -2.786968
    151          1           0       -8.283491   -4.393520   -1.703988
    152          1           0       -6.973592   -0.236100   -6.056457
    153          1           0       -6.238748   -1.789998   -5.544984
    154          1           0       -5.209014   -0.303425   -5.589586
    155          1           0       -5.973116    3.752433   -2.544799
    156          1           0       -8.630163    7.092748   -3.149142
    157          1           0       -8.881401    6.713230   -1.327940
    158          1           0       -9.790969    5.972026   -2.667917
 ---------------------------------------------------------------------

 SCF Done:  E(RCAM-B3LYP) =  -4069.81188096     A.U. after   19 cycles

 Excitation energies and oscillator strengths:

 Excited State   1:      Singlet-A      1.6697 eV  742.57 nm  f=0.1491  <S**2>=0.000
     310 -> 316        0.14074
     311 -> 313        0.39647
     312 -> 314        0.56029
 This state for optimization and/or second-order correction.
 Total Energy, E(TD-HF/TD-DFT) =  -4069.75052166
 Copying the excited state density for this state as the 1-particle RhoCI density.

 Excited State   2:      Singlet-A      1.6845 eV  736.02 nm  f=0.5877  <S**2>=0.000
     309 -> 315        0.14417
     310 -> 316       -0.10155
     311 -> 313        0.55943
     312 -> 314       -0.39591

 Excited State   3:      Singlet-A      2.1851 eV  567.40 nm  f=0.0718  <S**2>=0.000
     309 -> 313        0.15425
     310 -> 314        0.62420
     312 -> 316       -0.26426

 Excited State   4:      Singlet-A      2.1931 eV  565.33 nm  f=0.1227  <S**2>=0.000
     309 -> 313        0.62191
     310 -> 314       -0.15310
     311 -> 315       -0.27039

 Excited State   5:      Singlet-A      2.6508 eV  467.73 nm  f=0.0000  <S**2>=0.000
     312 -> 313        0.70710

 The electronic state is 1-A.
 Alpha  occ. eigenvalues --  -46.87855 -46.87555 -19.26327 -19.26307 -19.19110
 Alpha  occ. eigenvalues --  -19.19067 -19.18880 -19.18610 -19.18217 -19.17983
 Alpha  occ. eigenvalues --  -14.42504 -14.42394 -14.41512 -14.41246 -14.39460
 Alpha  occ. eigenvalues --  -14.39248 -14.38643 -14.38501 -10.39126 -10.39038
 Alpha  occ. eigenvalues --  -10.35513 -10.35288 -10.34437 -10.34161 -10.31726
 Alpha  occ. eigenvalues --  -10.31720 -10.31454 -10.31215 -10.30959 -10.30924
 Alpha  occ. eigenvalues --  -10.30623 -10.30568 -10.30296 -10.30273 -10.30268
 Alpha  occ. eigenvalues --  -10.30019 -10.29988 -10.29778 -10.29686 -10.29329
 Alpha  occ. eigenvalues --  -10.29311 -10.29307 -10.28786 -10.28635 -10.28594
 Alpha  occ. eigenvalues --  -10.28560 -10.28418 -10.28308 -10.28153 -10.28047
 Alpha  occ. eigenvalues --  -10.27907 -10.27846 -10.27778 -10.27639 -10.27589
 Alpha  occ. eigenvalues --  -10.27567 -10.27537 -10.27513 -10.27458 -10.27386
 Alpha  occ. eigenvalues --  -10.27378 -10.27371 -10.27370 -10.27213 -10.27206
 Alpha  occ. eigenvalues --  -10.26983 -10.26736 -10.26621 -10.26464 -10.26319
 Alpha  occ. eigenvalues --  -10.26298 -10.26267 -10.26082 -10.26012 -10.25919
 Alpha  occ. eigenvalues --  -10.25894 -10.25826 -10.25785 -10.25518 -10.25165
 Alpha  occ. eigenvalues --  -10.24885 -10.24851 -10.24825 -10.24782 -10.24620
 Alpha  occ. eigenvalues --  -10.24576  -3.16598  -3.16305  -1.91479  -1.91187
 Alpha  occ. eigenvalues --   -1.91066  -1.90908  -1.90776  -1.90613  -1.16677
 Alpha  occ. eigenvalues --   -1.16599  -1.08674  -1.08594  -1.07283  -1.06895
 Alpha  occ. eigenvalues --   -1.06861  -1.06689  -1.04634  -1.04395  -1.03821
 Alpha  occ. eigenvalues --   -1.03558  -1.03292  -1.02930  -1.02469  -1.02006
 Alpha  occ. eigenvalues --   -0.92025  -0.91896  -0.89597  -0.89380  -0.89228
 Alpha  occ. eigenvalues --   -0.89060  -0.88365  -0.88088  -0.87922  -0.87725
 Alpha  occ. eigenvalues --   -0.87708  -0.87582  -0.87325  -0.87024  -0.85027
 Alpha  occ. eigenvalues --   -0.84907  -0.84021  -0.83746  -0.83029  -0.82825
 Alpha  occ. eigenvalues --   -0.82698  -0.82560  -0.81636  -0.81523  -0.80650
 Alpha  occ. eigenvalues --   -0.80356  -0.78848  -0.78542  -0.77278  -0.77048
 Alpha  occ. eigenvalues --   -0.76985  -0.76802  -0.75970  -0.75753  -0.74969
 Alpha  occ. eigenvalues --   -0.74665  -0.72831  -0.72600  -0.71728  -0.71467
 Alpha  occ. eigenvalues --   -0.70001  -0.69629  -0.68921  -0.68736  -0.67697
 Alpha  occ. eigenvalues --   -0.67504  -0.67262  -0.67114  -0.65333  -0.65185
 Alpha  occ. eigenvalues --   -0.64911  -0.64679  -0.64674  -0.64563  -0.64343
 Alpha  occ. eigenvalues --   -0.64084  -0.62351  -0.62203  -0.60501  -0.60233
 Alpha  occ. eigenvalues --   -0.59849  -0.59705  -0.59046  -0.58890  -0.58561
 Alpha  occ. eigenvalues --   -0.58329  -0.57635  -0.57484  -0.57373  -0.57130
 Alpha  occ. eigenvalues --   -0.56362  -0.56116  -0.56025  -0.55816  -0.55574
 Alpha  occ. eigenvalues --   -0.55411  -0.55368  -0.55138  -0.54590  -0.54385
 Alpha  occ. eigenvalues --   -0.53936  -0.53823  -0.53357  -0.53270  -0.53130
 Alpha  occ. eigenvalues --   -0.53054  -0.52971  -0.52817  -0.52805  -0.52574
 Alpha  occ. eigenvalues --   -0.52535  -0.52285  -0.51967  -0.51809  -0.51659
 Alpha  occ. eigenvalues --   -0.51574  -0.51254  -0.51113  -0.50623  -0.50375
 Alpha  occ. eigenvalues --   -0.50109  -0.49971  -0.49880  -0.49734  -0.49563
 Alpha  occ. eigenvalues --   -0.49395  -0.49265  -0.49139  -0.49117  -0.49017
 Alpha  occ. eigenvalues --   -0.48644  -0.48530  -0.48501  -0.48475  -0.48257
 Alpha  occ. eigenvalues --   -0.48233  -0.47749  -0.47498  -0.47351  -0.47010
 Alpha  occ. eigenvalues --   -0.46858  -0.46606  -0.46598  -0.46460  -0.46419
 Alpha  occ. eigenvalues --   -0.46223  -0.46169  -0.45978  -0.45872  -0.45742
 Alpha  occ. eigenvalues --   -0.45275  -0.45065  -0.44630  -0.44564  -0.44429
 Alpha  occ. eigenvalues --   -0.44382  -0.44213  -0.44134  -0.44070  -0.44037
 Alpha  occ. eigenvalues --   -0.43973  -0.43853  -0.43547  -0.43476  -0.43441
 Alpha  occ. eigenvalues --   -0.43286  -0.43084  -0.42864  -0.42804  -0.42768
 Alpha  occ. eigenvalues --   -0.42722  -0.42434  -0.42081  -0.41861  -0.41760
 Alpha  occ. eigenvalues --   -0.41580  -0.41576  -0.41363  -0.41195  -0.40926
 Alpha  occ. eigenvalues --   -0.40883  -0.40880  -0.40644  -0.40626  -0.40601
 Alpha  occ. eigenvalues --   -0.40369  -0.40271  -0.40145  -0.39542  -0.39300
 Alpha  occ. eigenvalues --   -0.38543  -0.38218  -0.37790  -0.37570  -0.37390
 Alpha  occ. eigenvalues --   -0.37308  -0.37152  -0.37106  -0.36769  -0.36703
 Alpha  occ. eigenvalues --   -0.36252  -0.36109  -0.34343  -0.34152  -0.33820
 Alpha  occ. eigenvalues --   -0.33801  -0.33243  -0.33074  -0.31411  -0.31168
 Alpha  occ. eigenvalues --   -0.31093  -0.30870  -0.30076  -0.29889  -0.29504
 Alpha  occ. eigenvalues --   -0.29375  -0.29230  -0.29121  -0.24138  -0.23933
 Alpha  occ. eigenvalues --   -0.21184  -0.21013
 Alpha virt. eigenvalues --   -0.08830  -0.08693  -0.01810  -0.01574  -0.00113
 Alpha virt. eigenvalues --    0.00068   0.02145   0.02295   0.03053   0.03322
 Alpha virt. eigenvalues --    0.04668   0.04830   0.05052   0.05221   0.06140

 Mulliken charges:
               1
     1  Mg   0.838572
     2  C   -0.002920
     3  C   -0.093777
     4  C   -0.046112
     5  C   -0.064031
     6  N   -0.256775
     7  C   -0.052406
     8  C   -0.014019
     9  C   -0.087029
    10  C    0.046268
    11  C    0.104758
    12  C    0.053384
    13  C   -0.071891
    14  H    0.036120
    15  N   -0.433132
    16  C    0.168357
    17  C   -0.176907
    18  C   -0.004093
    19  C    0.148640
    20  C    0.110052
    21  C    0.012046
    22  O   -0.250118
    23  C    0.062507
    24  N   -0.341064
    25  C    0.041218
    26  C   -0.028122
    27  C   -0.023876
    28  C    0.074637
    29  C    0.076164
    30  C    0.035224
    31  C   -0.004407
    32  N   -0.310478
    33  C    0.080342
    34  C   -0.169710
    35  C    0.008451
    36  C    0.082931
    37  C    0.127315
    38  C    0.046132
    39  O   -0.188281
    40  C   -0.005335
    41  C    0.212935
    42  O   -0.257231
    43  O   -0.304715
    44  C    0.157732
    45  H   -0.017314
    46  H   -0.017119
    47  H   -0.041607
    48  H    0.001027
    49  H   -0.003734
    50  H    0.025494
    51  H    0.016414
    52  H    0.016891
    53  H    0.011401
    54  H    0.043964
    55  H    0.017934
    56  H    0.018286
    57  H    0.006169
    58  H    0.026923
    59  H    0.040010
    60  H    0.037651
    61  H    0.035378
    62  H    0.031757
    63  H    0.015988
    64  H    0.009576
    65  H    0.022979
    66  H    0.012793
    67  H    0.004836
    68  H    0.006032
    69  H    0.004874
    70  H    0.008082
    71  H    0.017526
    72  H    0.029339
    73  H    0.047708
    74  H    0.008972
    75  H    0.046095
    76  H    0.035292
    77  H    0.043041
    78  H    0.046520
    79  H    0.053465
    80  Mg   0.838042
    81  C   -0.017023
    82  C   -0.087850
    83  C   -0.045163
    84  C   -0.064488
    85  N   -0.254626
    86  C   -0.049887
    87  C   -0.015110
    88  C   -0.090497
    89  C    0.045864
    90  C    0.114348
    91  C    0.062547
    92  C   -0.077763
    93  H    0.034497
    94  N   -0.423573
    95  C    0.163129
    96  C   -0.174520
    97  C   -0.007577
    98  C    0.152236
    99  C    0.099346
   100  C    0.015662
   101  O   -0.252753
   102  C    0.061205
   103  N   -0.350000
   104  C    0.037986
   105  C   -0.020198
   106  C   -0.034681
   107  C    0.088931
   108  C    0.073080
   109  C    0.034703
   110  C   -0.007622
   111  N   -0.324018
   112  C    0.078369
   113  C   -0.163295
   114  C    0.001944
   115  C    0.096230
   116  C    0.131555
   117  C    0.042031
   118  O   -0.188728
   119  C    0.001030
   120  C    0.211186
   121  O   -0.251052
   122  O   -0.305728
   123  C    0.152122
   124  H   -0.019652
   125  H   -0.015070
   126  H   -0.040597
   127  H   -0.000923
   128  H   -0.004471
   129  H    0.022208
   130  H    0.014896
   131  H    0.016568
   132  H    0.013900
   133  H    0.037519
   134  H    0.020763
   135  H    0.019603
   136  H    0.008676
   137  H    0.026227
   138  H    0.039622
   139  H    0.038247
   140  H    0.036415
   141  H    0.033660
   142  H    0.014179
   143  H    0.013040
   144  H    0.025395
   145  H    0.012870
   146  H    0.007125
   147  H    0.006500
   148  H    0.003293
   149  H    0.010975
   150  H    0.017538
   151  H    0.029899
   152  H    0.045575
   153  H    0.008502
   154  H    0.046504
   155  H    0.034561
   156  H    0.043505
   157  H    0.049566
   158  H    0.053492
 Sum of Mulliken charges =  -0.00000

 Dipole moment (field-independent basis, Debye):
    X=              3.5613    Y=              3.9496    Z=              1.0281  Tot=              5.4166
 Quadrupole moment (field-independent basis, Debye-Ang):
   XX=           -521.1581   YY=           -529.7988   ZZ=           -468.0974
   XY=             16.5933   XZ=            -54.2518   YZ=             27.2309

 Normal termination of Gaussian 16 at Sat Sep  4 08:57:44 2021.
