 Gaussian 16, Revision A.03,
 Gaussian 16:  ES64L-G16RevA.03 25-Dec-2016

 -----------------------------------
 #p cam-b3lyp/Def2SVP td=(nstates=5)
 -----------------------------------

 --------------------------------
 TDDFT excited states in gaussian
 --------------------------------
 Symbolic Z-matrix:
 Charge =  0 Multiplicity = 1

                         Standard orientation:
 ---------------------------------------------------------------------
 Center     Atomic      Atomic             Coordinates (Angstroms)
 Number     Number       Type             X           Y           Z
 ---------------------------------------------------------------------
      1         12           0        4.910429   -1.213260    0.436558
      2          6           0        5.563152    1.955574   -1.094670
      3          6           0        5.714746    0.230978    3.421574
      4          6           0        4.782211   -4.099640    1.743841
      5          6           0        5.266385   -2.645973   -2.720385
      6          7           0        5.541253    0.841176    0.967597
      7          6           0        5.695097    1.977781    0.295561
      8          6           0        5.935613    3.211846    1.215676
      9          6           0        6.518154    2.461426    2.496110
     10          6           0        5.858439    1.107111    2.304982
     11          6           0        8.032151    2.279825    2.459521
     12          6           0        4.607905    3.970986    1.551280
     13          6           0        4.788076    5.361272    2.167718
     14          1           0        3.839415    6.408991    1.821776
     15          7           0        4.728625   -1.756474    2.327250
     16          6           0        5.092785   -1.036300    3.415379
     17          6           0        4.754646   -1.870874    4.588336
     18          6           0        4.339932   -3.211218    4.088752
     19          6           0        4.629139   -3.082756    2.683321
     20          6           0        4.794680   -1.364495    5.997495
     21          6           0        3.782772   -4.420160    4.771514
     22          8           0        3.709296   -5.556396    4.190013
     23          6           0        3.402103   -4.258562    6.186441
     24          7           0        5.225334   -3.131730   -0.323666
     25          6           0        5.048086   -4.214693    0.441029
     26          6           0        5.052158   -5.469748   -0.380408
     27          6           0        5.026714   -4.999535   -1.906188
     28          6           0        5.098904   -3.468823   -1.682629
     29          6           0        6.242829   -6.412209   -0.156624
     30          6           0        3.890408   -5.562122   -2.796538
     31          6           0        2.558568   -5.012247   -2.337257
     32          7           0        5.162029   -0.487854   -1.593597
     33          6           0        5.311911   -1.262236   -2.753141
     34          6           0        5.559671   -0.328559   -3.867112
     35          6           0        5.553142    0.931252   -3.271563
     36          6           0        5.342443    0.791497   -1.870004
     37          6           0        5.812256   -0.692671   -5.219169
     38          6           0        5.699687    2.361257   -3.489434
     39          8           0        5.801408    3.080957   -4.484008
     40          6           0        5.833505    3.073053   -2.071243
     41          6           0        4.900535    4.253239   -2.065203
     42          8           0        3.663646    4.091116   -2.099674
     43          8           0        5.593874    5.366577   -1.781829
     44          6           0        4.722119    6.570582   -1.731153
     45          1           0        6.169770    0.510519    4.373808
     46          1           0        4.634608   -5.108095    2.135849
     47          1           0        5.302913   -3.014570   -3.747154
     48          1           0        6.667852    3.925222    0.837069
     49          1           0        6.180145    2.919832    3.425269
     50          1           0        8.446513    2.581907    1.497767
     51          1           0        8.201965    1.216554    2.630142
     52          1           0        8.504579    2.796609    3.295297
     53          1           0        4.103914    3.466443    2.375591
     54          1           0        3.973520    4.047898    0.667557
     55          1           0        5.811493    5.719133    2.051692
     56          1           0        4.651085    5.277213    3.245850
     57          1           0        5.294749   -0.398932    6.062031
     58          1           0        5.436875   -2.041179    6.560870
     59          1           0        3.803936   -1.334917    6.451239
     60          1           0        4.274526   -3.945371    6.760321
     61          1           0        2.941293   -5.200047    6.483274
     62          1           0        2.675821   -3.449205    6.266467
     63          1           0        4.167976   -6.072689   -0.177651
     64          1           0        5.939708   -5.275316   -2.434450
     65          1           0        5.953250   -7.421364    0.137408
     66          1           0        6.895334   -5.959564    0.589459
     67          1           0        6.917933   -6.505625   -1.006874
     68          1           0        3.838510   -6.646492   -2.704919
     69          1           0        4.013646   -5.324082   -3.853136
     70          1           0        2.288124   -5.680202   -1.520233
     71          1           0        1.826500   -5.065580   -3.143758
     72          1           0        2.664224   -4.011290   -1.918441
     73          1           0        5.226495   -0.009122   -5.833672
     74          1           0        5.536841   -1.730027   -5.407955
     75          1           0        6.888463   -0.529663   -5.274512
     76          1           0        6.875528    3.374423   -1.968849
     77          1           0        5.134238    7.295054   -2.433671
     78          1           0        4.657606    6.862539   -0.682819
     79          1           0        3.712690    6.451813   -2.126483
     80         12           0       -5.590144   -0.108141   -0.372425
     81          6           0       -2.956598    2.308064   -0.047709
     82          6           0       -7.417303    1.816394    1.770524
     83          6           0       -7.747259   -2.433206   -0.281040
     84          6           0       -3.194864   -2.357198   -1.534370
     85          7           0       -5.136958    1.794543    0.660378
     86          6           0       -4.127574    2.652145    0.659303
     87          6           0       -4.417690    3.987885    1.394954
     88          6           0       -5.580962    3.474476    2.375815
     89          6           0       -6.107775    2.308941    1.541131
     90          6           0       -5.058507    2.921974    3.691538
     91          6           0       -4.937168    5.104904    0.423141
     92          6           0       -4.946327    6.516995    1.012785
     93          1           0       -4.639684    7.640931    0.132332
     94          7           0       -7.492439   -0.073646    0.192065
     95          6           0       -8.070435    0.790825    1.052233
     96          6           0       -9.480137    0.381224    1.147836
     97          6           0       -9.649351   -0.895251    0.401721
     98          6           0       -8.268466   -1.201037    0.085910
     99          6           0      -10.526197    1.217242    1.826256
    100          6           0      -10.853444   -1.712873    0.044116
    101          8           0      -10.746364   -2.909443   -0.402636
    102          6           0      -12.163673   -1.105777    0.320187
    103          7           0       -5.457210   -2.165989   -0.636884
    104          6           0       -6.555644   -2.940459   -0.597389
    105          6           0       -6.255809   -4.337651   -1.085589
    106          6           0       -4.777299   -4.272919   -1.691709
    107          6           0       -4.429130   -2.806694   -1.353529
    108          6           0       -6.324749   -5.440463   -0.029435
    109          6           0       -4.595316   -4.756899   -3.156399
    110          6           0       -5.298314   -3.811295   -4.103514
    111          7           0       -3.499772   -0.014029   -0.910503
    112          6           0       -2.682929   -1.079395   -1.348509
    113          6           0       -1.310125   -0.549782   -1.480173
    114          6           0       -1.420018    0.791777   -1.084415
    115          6           0       -2.762284    1.072744   -0.711768
    116          6           0       -0.163750   -1.297854   -1.870501
    117          6           0       -0.703609    2.031336   -0.887021
    118          8           0        0.440322    2.420049   -1.119563
    119          6           0       -1.640913    3.034766   -0.086414
    120          6           0       -1.596753    4.367331   -0.782718
    121          8           0       -2.056494    4.495957   -1.931071
    122          8           0       -1.220247    5.312382    0.097893
    123          6           0       -1.172338    6.653556   -0.543024
    124          1           0       -7.985760    2.223903    2.606993
    125          1           0       -8.473512   -3.244269   -0.371711
    126          1           0       -2.410689   -2.969587   -1.984610
    127          1           0       -3.588521    4.377300    1.973415
    128          1           0       -6.351409    4.230282    2.504388
    129          1           0       -3.980653    2.856719    3.701469
    130          1           0       -5.498041    1.938302    3.792767
    131          1           0       -5.444278    3.511956    4.527859
    132          1           0       -6.012948    4.963479    0.257499
    133          1           0       -4.381670    5.100094   -0.494484
    134          1           0       -4.359343    6.581559    1.937035
    135          1           0       -5.965737    6.755872    1.325471
    136          1           0      -10.075074    2.018347    2.424695
    137          1           0      -11.021492    0.574530    2.562100
    138          1           0      -11.275625    1.600479    1.130455
    139          1           0      -12.238130   -0.873837    1.379970
    140          1           0      -12.899882   -1.802732   -0.084938
    141          1           0      -12.227390   -0.152269   -0.215889
    142          1           0       -6.944317   -4.629629   -1.869044
    143          1           0       -4.076065   -4.901527   -1.123411
    144          1           0       -7.034264   -6.248959   -0.288282
    145          1           0       -6.590627   -4.989966    0.917606
    146          1           0       -5.374529   -5.919153    0.201115
    147          1           0       -5.061422   -5.735868   -3.292441
    148          1           0       -3.556374   -4.850663   -3.454395
    149          1           0       -6.334579   -4.161405   -4.077791
    150          1           0       -4.879686   -3.890502   -5.104769
    151          1           0       -5.287119   -2.785861   -3.716220
    152          1           0        0.387283   -0.681653   -2.568455
    153          1           0       -0.443274   -2.250762   -2.315018
    154          1           0        0.325573   -1.424909   -0.901130
    155          1           0       -1.261540    3.093527    0.934462
    156          1           0       -0.166426    7.051319   -0.376831
    157          1           0       -2.016714    7.222000   -0.109849
    158          1           0       -1.240366    6.695273   -1.623803
 ---------------------------------------------------------------------

 SCF Done:  E(RCAM-B3LYP) =  -4069.80836410     A.U. after   19 cycles

 Excitation energies and oscillator strengths:

 Excited State   1:      Singlet-A      1.6616 eV  746.19 nm  f=0.2804  <S**2>=0.000
     309 -> 315        0.12865
     310 -> 316       -0.11107
     311 -> 313        0.51915
     312 -> 314       -0.44946
 This state for optimization and/or second-order correction.
 Total Energy, E(TD-HF/TD-DFT) =  -4069.74730307
 Copying the excited state density for this state as the 1-particle RhoCI density.

 Excited State   2:      Singlet-A      1.6915 eV  732.97 nm  f=0.5020  <S**2>=0.000
     309 -> 315        0.11566
     310 -> 316        0.13374
     311 -> 313        0.44838
     312 -> 314        0.51771

 Excited State   3:      Singlet-A      2.1804 eV  568.63 nm  f=0.0008  <S**2>=0.000
     309 -> 313       -0.44276
     310 -> 314        0.46831
     311 -> 315        0.18527
     312 -> 316       -0.19545

 Excited State   4:      Singlet-A      2.1936 eV  565.20 nm  f=0.1747  <S**2>=0.000
     309 -> 313        0.46465
     310 -> 314        0.43854
     311 -> 315       -0.20230
     312 -> 316       -0.19323

 Excited State   5:      Singlet-A      2.4424 eV  507.64 nm  f=0.0000  <S**2>=0.000
     312 -> 313        0.70548

 The electronic state is 1-A.
 Alpha  occ. eigenvalues --  -46.87461 -46.87406 -19.26054 -19.25606 -19.18804
 Alpha  occ. eigenvalues --  -19.18535 -19.18533 -19.18131 -19.17699 -19.17567
 Alpha  occ. eigenvalues --  -14.42317 -14.42050 -14.41158 -14.41094 -14.39150
 Alpha  occ. eigenvalues --  -14.39030 -14.38381 -14.38161 -10.38760 -10.38238
 Alpha  occ. eigenvalues --  -10.35216 -10.35174 -10.33904 -10.33749 -10.31545
 Alpha  occ. eigenvalues --  -10.31184 -10.31101 -10.30980 -10.30842 -10.30488
 Alpha  occ. eigenvalues --  -10.30178 -10.30158 -10.30132 -10.30131 -10.29973
 Alpha  occ. eigenvalues --  -10.29917 -10.29682 -10.29573 -10.29257 -10.29252
 Alpha  occ. eigenvalues --  -10.29179 -10.28914 -10.28574 -10.28547 -10.28294
 Alpha  occ. eigenvalues --  -10.28183 -10.28131 -10.28001 -10.27939 -10.27762
 Alpha  occ. eigenvalues --  -10.27712 -10.27486 -10.27411 -10.27357 -10.27356
 Alpha  occ. eigenvalues --  -10.27312 -10.27305 -10.27279 -10.27252 -10.27237
 Alpha  occ. eigenvalues --  -10.27219 -10.27206 -10.27200 -10.26974 -10.26742
 Alpha  occ. eigenvalues --  -10.26614 -10.26546 -10.26270 -10.26196 -10.26122
 Alpha  occ. eigenvalues --  -10.26111 -10.26002 -10.25936 -10.25888 -10.25741
 Alpha  occ. eigenvalues --  -10.25688 -10.25650 -10.25508 -10.25240 -10.25237
 Alpha  occ. eigenvalues --  -10.24724 -10.24632 -10.24591 -10.24483 -10.24430
 Alpha  occ. eigenvalues --  -10.24424  -3.16211  -3.16142  -1.91094  -1.91023
 Alpha  occ. eigenvalues --   -1.90682  -1.90610  -1.90519  -1.90452  -1.16331
 Alpha  occ. eigenvalues --   -1.15928  -1.08159  -1.08131  -1.06942  -1.06790
 Alpha  occ. eigenvalues --   -1.06587  -1.05793  -1.04303  -1.04172  -1.03463
 Alpha  occ. eigenvalues --   -1.03398  -1.02853  -1.02833  -1.02027  -1.01902
 Alpha  occ. eigenvalues --   -0.91743  -0.91523  -0.89302  -0.89256  -0.89002
 Alpha  occ. eigenvalues --   -0.88760  -0.88041  -0.88019  -0.87574  -0.87498
 Alpha  occ. eigenvalues --   -0.87493  -0.87288  -0.86951  -0.86932  -0.84833
 Alpha  occ. eigenvalues --   -0.84577  -0.83707  -0.83696  -0.82760  -0.82704
 Alpha  occ. eigenvalues --   -0.82478  -0.82264  -0.81367  -0.81134  -0.80234
 Alpha  occ. eigenvalues --   -0.80189  -0.78451  -0.78436  -0.76977  -0.76907
 Alpha  occ. eigenvalues --   -0.76716  -0.76548  -0.75648  -0.75514  -0.74617
 Alpha  occ. eigenvalues --   -0.74607  -0.72498  -0.72416  -0.71390  -0.71308
 Alpha  occ. eigenvalues --   -0.69732  -0.69595  -0.68651  -0.68490  -0.67382
 Alpha  occ. eigenvalues --   -0.67269  -0.67033  -0.66802  -0.65086  -0.64865
 Alpha  occ. eigenvalues --   -0.64570  -0.64473  -0.64451  -0.64233  -0.64012
 Alpha  occ. eigenvalues --   -0.63967  -0.62035  -0.61804  -0.60145  -0.60128
 Alpha  occ. eigenvalues --   -0.59624  -0.59391  -0.58781  -0.58611  -0.58198
 Alpha  occ. eigenvalues --   -0.58113  -0.57258  -0.57120  -0.57017  -0.56873
 Alpha  occ. eigenvalues --   -0.55997  -0.55944  -0.55655  -0.55464  -0.55252
 Alpha  occ. eigenvalues --   -0.55185  -0.55034  -0.55009  -0.54264  -0.54086
 Alpha  occ. eigenvalues --   -0.53751  -0.53460  -0.53033  -0.52973  -0.52945
 Alpha  occ. eigenvalues --   -0.52836  -0.52683  -0.52506  -0.52502  -0.52440
 Alpha  occ. eigenvalues --   -0.52225  -0.52149  -0.51673  -0.51529  -0.51486
 Alpha  occ. eigenvalues --   -0.51201  -0.50937  -0.50814  -0.50312  -0.50309
 Alpha  occ. eigenvalues --   -0.49816  -0.49815  -0.49686  -0.49589  -0.49310
 Alpha  occ. eigenvalues --   -0.49127  -0.48999  -0.48864  -0.48796  -0.48705
 Alpha  occ. eigenvalues --   -0.48336  -0.48229  -0.48180  -0.48114  -0.48060
 Alpha  occ. eigenvalues --   -0.48008  -0.47383  -0.47347  -0.46946  -0.46929
 Alpha  occ. eigenvalues --   -0.46522  -0.46466  -0.46388  -0.46130  -0.46068
 Alpha  occ. eigenvalues --   -0.46021  -0.45881  -0.45745  -0.45584  -0.45393
 Alpha  occ. eigenvalues --   -0.45023  -0.44926  -0.44336  -0.44247  -0.44224
 Alpha  occ. eigenvalues --   -0.44158  -0.43924  -0.43887  -0.43864  -0.43714
 Alpha  occ. eigenvalues --   -0.43690  -0.43595  -0.43342  -0.43183  -0.43069
 Alpha  occ. eigenvalues --   -0.43028  -0.42707  -0.42664  -0.42627  -0.42467
 Alpha  occ. eigenvalues --   -0.42378  -0.42074  -0.41785  -0.41696  -0.41374
 Alpha  occ. eigenvalues --   -0.41303  -0.41291  -0.41145  -0.40785  -0.40782
 Alpha  occ. eigenvalues --   -0.40564  -0.40552  -0.40540  -0.40525  -0.40310
 Alpha  occ. eigenvalues --   -0.40253  -0.40084  -0.39776  -0.39294  -0.39266
 Alpha  occ. eigenvalues --   -0.38199  -0.38184  -0.37497  -0.37329  -0.37085
 Alpha  occ. eigenvalues --   -0.37015  -0.37011  -0.36830  -0.36491  -0.36206
 Alpha  occ. eigenvalues --   -0.35992  -0.35608  -0.34041  -0.33889  -0.33535
 Alpha  occ. eigenvalues --   -0.33029  -0.32960  -0.32683  -0.31095  -0.31062
 Alpha  occ. eigenvalues --   -0.30773  -0.30627  -0.29546  -0.29452  -0.29115
 Alpha  occ. eigenvalues --   -0.29091  -0.28953  -0.28906  -0.23833  -0.23675
 Alpha  occ. eigenvalues --   -0.20915  -0.20755
 Alpha virt. eigenvalues --   -0.08573  -0.08395  -0.01494  -0.01392   0.00177
 Alpha virt. eigenvalues --    0.00305   0.02456   0.02615   0.03320   0.03453
 Alpha virt. eigenvalues --    0.04896   0.05087   0.05513   0.05851   0.06296

 Mulliken charges:
               1
     1  Mg   0.836966
     2  C    0.006359
     3  C   -0.094165
     4  C   -0.047078
     5  C   -0.065532
     6  N   -0.256225
     7  C   -0.050214
     8  C   -0.015649
     9  C   -0.087118
    10  C    0.046837
    11  C    0.105158
    12  C    0.053102
    13  C   -0.069796
    14  H    0.033004
    15  N   -0.432728
    16  C    0.168146
    17  C   -0.177934
    18  C   -0.005057
    19  C    0.148139
    20  C    0.110547
    21  C    0.011345
    22  O   -0.251169
    23  C    0.062865
    24  N   -0.340780
    25  C    0.040355
    26  C   -0.027802
    27  C   -0.024169
    28  C    0.074959
    29  C    0.076516
    30  C    0.036109
    31  C   -0.007050
    32  N   -0.311599
    33  C    0.081402
    34  C   -0.170240
    35  C    0.008091
    36  C    0.088647
    37  C    0.126958
    38  C    0.050707
    39  O   -0.188142
    40  C   -0.007815
    41  C    0.207572
    42  O   -0.240361
    43  O   -0.307144
    44  C    0.159002
    45  H   -0.018715
    46  H   -0.018428
    47  H   -0.043134
    48  H    0.000071
    49  H   -0.005111
    50  H    0.025129
    51  H    0.015780
    52  H    0.015385
    53  H    0.010534
    54  H    0.054627
    55  H    0.016329
    56  H    0.015964
    57  H    0.005332
    58  H    0.025758
    59  H    0.038124
    60  H    0.037049
    61  H    0.034420
    62  H    0.030858
    63  H    0.014930
    64  H    0.009231
    65  H    0.022212
    66  H    0.012810
    67  H    0.004159
    68  H    0.005650
    69  H    0.004667
    70  H    0.008009
    71  H    0.015205
    72  H    0.031138
    73  H    0.048545
    74  H    0.007780
    75  H    0.045344
    76  H    0.033227
    77  H    0.040543
    78  H    0.043783
    79  H    0.053800
    80  Mg   0.837272
    81  C   -0.016655
    82  C   -0.087947
    83  C   -0.045792
    84  C   -0.065405
    85  N   -0.254174
    86  C   -0.050323
    87  C   -0.014648
    88  C   -0.090374
    89  C    0.045201
    90  C    0.114669
    91  C    0.062671
    92  C   -0.077365
    93  H    0.034652
    94  N   -0.423327
    95  C    0.162364
    96  C   -0.175152
    97  C   -0.008269
    98  C    0.151817
    99  C    0.099604
   100  C    0.015240
   101  O   -0.253743
   102  C    0.061323
   103  N   -0.350147
   104  C    0.037255
   105  C   -0.019685
   106  C   -0.034823
   107  C    0.089240
   108  C    0.073705
   109  C    0.034832
   110  C   -0.007549
   111  N   -0.324432
   112  C    0.079556
   113  C   -0.164799
   114  C    0.004830
   115  C    0.096427
   116  C    0.126748
   117  C    0.038440
   118  O   -0.170068
   119  C   -0.000208
   120  C    0.216191
   121  O   -0.250328
   122  O   -0.306907
   123  C    0.153485
   124  H   -0.020512
   125  H   -0.016081
   126  H   -0.040755
   127  H   -0.001522
   128  H   -0.004807
   129  H    0.021422
   130  H    0.014317
   131  H    0.015297
   132  H    0.013870
   133  H    0.038441
   134  H    0.019807
   135  H    0.019171
   136  H    0.008175
   137  H    0.025439
   138  H    0.039260
   139  H    0.037922
   140  H    0.035887
   141  H    0.033726
   142  H    0.014030
   143  H    0.012692
   144  H    0.024658
   145  H    0.011484
   146  H    0.005814
   147  H    0.005825
   148  H    0.003092
   149  H    0.010785
   150  H    0.017543
   151  H    0.030593
   152  H    0.053341
   153  H    0.009118
   154  H    0.046008
   155  H    0.032779
   156  H    0.040908
   157  H    0.047710
   158  H    0.055132
 Sum of Mulliken charges =  -0.00000

 Dipole moment (field-independent basis, Debye):
    X=             -0.8643    Y=              1.6660    Z=              6.8836  Tot=              7.1348
 Quadrupole moment (field-independent basis, Debye-Ang):
   XX=           -489.2111   YY=           -488.7507   ZZ=           -501.3633
   XY=            -29.0082   XZ=              3.5868   YZ=             51.9281

 Normal termination of Gaussian 16 at Fri Sep 10 19:27:05 2021.
