 Gaussian 16, Revision A.03,
 Gaussian 16:  ES64L-G16RevA.03 25-Dec-2016

 -----------------------------------
 #p cam-b3lyp/Def2SVP td=(nstates=5)
 -----------------------------------

 --------------------------------
 TDDFT excited states in gaussian
 --------------------------------
 Symbolic Z-matrix:
 Charge =  0 Multiplicity = 1

                         Standard orientation:
 ---------------------------------------------------------------------
 Center     Atomic      Atomic             Coordinates (Angstroms)
 Number     Number       Type             X           Y           Z
 ---------------------------------------------------------------------
      1         12           0        3.591357   -1.490818   -0.506164
      2          6           0        4.616946    1.765786   -1.580835
      3          6           0        5.442703   -0.980129    2.314258
      4          6           0        3.072158   -4.525696    0.253157
      5          6           0        2.786680   -2.171967   -3.827939
      6          7           0        4.826941    0.218114    0.167284
      7          6           0        5.089321    1.430810   -0.309891
      8          6           0        5.850376    2.340808    0.700095
      9          6           0        6.524226    1.209931    1.599563
     10          6           0        5.520652    0.092287    1.376772
     11          6           0        7.887160    0.755588    1.087229
     12          6           0        4.880142    3.238216    1.539760
     13          6           0        5.548790    4.380796    2.309678
     14          1           0        4.837303    5.642532    2.448077
     15          7           0        3.752154   -2.423147    1.228124
     16          6           0        4.541911   -2.066142    2.269334
     17          6           0        4.306238   -3.075138    3.324353
     18          6           0        3.459358   -4.153025    2.742073
     19          6           0        3.415196   -3.751676    1.359197
     20          6           0        4.818346   -2.935986    4.725114
     21          6           0        2.803952   -5.359862    3.335469
     22          8           0        2.307364   -6.289301    2.611509
     23          6           0        2.837385   -5.469756    4.805111
     24          7           0        3.218575   -3.196980   -1.649702
     25          6           0        2.970582   -4.376164   -1.069177
     26          6           0        2.457625   -5.376504   -2.062221
     27          6           0        2.174654   -4.560808   -3.405471
     28          6           0        2.680321   -3.170329   -2.948151
     29          6           0        3.391844   -6.555323   -2.368209
     30          6           0        0.750274   -4.666858   -4.005731
     31          6           0       -0.245634   -3.997348   -3.085392
     32          7           0        3.507037   -0.365197   -2.360056
     33          6           0        3.167329   -0.855330   -3.629324
     34          6           0        3.357745    0.251312   -4.584914
     35          6           0        3.813812    1.310405   -3.802501
     36          6           0        3.927691    0.884179   -2.448376
     37          6           0        3.169269    0.177960   -5.993293
     38          6           0        4.254896    2.695790   -3.799421
     39          8           0        4.284552    3.598261   -4.637371
     40          6           0        4.908417    3.010414   -2.381765
     41          6           0        4.331669    4.311515   -1.894109
     42          8           0        3.124638    4.402378   -1.590488
     43          8           0        5.329224    5.171310   -1.636857
     44          6           0        4.826766    6.472737   -1.121129
     45          1           0        6.173755   -1.027759    3.123724
     46          1           0        2.778527   -5.550927    0.487933
     47          1           0        2.475135   -2.285596   -4.867882
     48          1           0        6.620840    2.969846    0.253868
     49          1           0        6.551886    1.490076    2.652404
     50          1           0        8.113155    1.192689    0.114712
     51          1           0        7.822314   -0.329982    1.010899
     52          1           0        8.665090    0.958235    1.823800
     53          1           0        4.485656    2.658219    2.374054
     54          1           0        4.087252    3.643321    0.910044
     55          1           0        6.567768    4.553032    1.961931
     56          1           0        5.665741    4.070443    3.348044
     57          1           0        5.543961   -2.127786    4.807816
     58          1           0        5.389422   -3.837445    4.946367
     59          1           0        4.010261   -2.825941    5.448453
     60          1           0        3.874191   -5.475296    5.142085
     61          1           0        2.243781   -6.348549    5.054521
     62          1           0        2.379651   -4.578966    5.236297
     63          1           0        1.529113   -5.829422   -1.717032
     64          1           0        2.829966   -4.872650   -4.219102
     65          1           0        2.940927   -7.530698   -2.183756
     66          1           0        4.300169   -6.426913   -1.780206
     67          1           0        3.790551   -6.571309   -3.382208
     68          1           0        0.453076   -5.711230   -4.094648
     69          1           0        0.664280   -4.212377   -4.992799
     70          1           0       -0.464147   -4.775963   -2.355432
     71          1           0       -1.143483   -3.715916   -3.636640
     72          1           0        0.207071   -3.164171   -2.547470
     73          1           0        2.640119    1.087307   -6.277997
     74          1           0        2.605335   -0.712085   -6.271502
     75          1           0        4.203915    0.140104   -6.333781
     76          1           0        5.984619    3.073318   -2.539731
     77          1           0        5.220328    7.250768   -1.775355
     78          1           0        5.098266    6.513621   -0.066131
     79          1           0        3.754417    6.647166   -1.215898
     80         12           0       -3.727766    0.952349    1.386644
     81          6           0       -4.756466   -0.322413   -1.806449
     82          6           0       -2.332392    3.581219   -0.279655
     83          6           0       -2.421502    1.868910    4.129085
     84          6           0       -4.177775   -2.260851    2.658888
     85          7           0       -3.624209    1.453232   -0.765246
     86          6           0       -4.104270    0.925961   -1.881431
     87          6           0       -3.942933    1.823132   -3.137868
     88          6           0       -2.696083    2.706523   -2.644049
     89          6           0       -2.909922    2.609072   -1.134929
     90          6           0       -1.349460    2.085822   -2.976710
     91          6           0       -5.207842    2.712766   -3.403502
     92          6           0       -5.246083    3.381861   -4.779223
     93          1           0       -6.538487    3.540863   -5.440193
     94          7           0       -2.983882    2.709945    1.930757
     95          6           0       -2.481294    3.666375    1.122099
     96          6           0       -2.045447    4.755536    2.009758
     97          6           0       -2.180605    4.295098    3.418466
     98          6           0       -2.521689    2.902316    3.208984
     99          6           0       -1.634930    6.106253    1.499411
    100          6           0       -2.015967    4.989799    4.736230
    101          8           0       -1.948603    4.337492    5.837502
    102          6           0       -1.842253    6.448991    4.690884
    103          7           0       -3.149422   -0.089115    3.090532
    104          6           0       -2.656747    0.557079    4.161802
    105          6           0       -2.570529   -0.358871    5.359302
    106          6           0       -3.337275   -1.696141    4.933422
    107          6           0       -3.671419   -1.340515    3.468064
    108          6           0       -1.158635   -0.709477    5.828367
    109          6           0       -4.489707   -2.172033    5.859774
    110          6           0       -5.638875   -1.191658    5.799185
    111          7           0       -4.524384   -0.915382    0.648375
    112          6           0       -4.594561   -2.145136    1.338927
    113          6           0       -5.106929   -3.150981    0.385943
    114          6           0       -5.278888   -2.435928   -0.808890
    115          6           0       -4.881316   -1.084743   -0.619853
    116          6           0       -5.305521   -4.533175    0.661999
    117          6           0       -5.696285   -2.519370   -2.190018
    118          8           0       -6.213018   -3.389035   -2.890319
    119          6           0       -5.257279   -1.184133   -2.932167
    120          6           0       -6.433606   -0.685740   -3.726124
    121          8           0       -7.464985   -0.296019   -3.150809
    122          8           0       -6.069239   -0.547408   -5.013936
    123          6           0       -7.199448   -0.044807   -5.839681
    124          1           0       -1.667092    4.326676   -0.716174
    125          1           0       -2.080115    2.156764    5.126122
    126          1           0       -4.438565   -3.263125    3.005458
    127          1           0       -3.685324    1.291178   -4.045846
    128          1           0       -2.786288    3.737509   -2.976144
    129          1           0       -1.454055    1.092428   -3.387030
    130          1           0       -0.801674    2.054154   -2.043985
    131          1           0       -0.782064    2.747839   -3.637107
    132          1           0       -5.160539    3.602825   -2.762941
    133          1           0       -6.108257    2.150330   -3.250069
    134          1           0       -4.512371    2.947738   -5.469251
    135          1           0       -4.927653    4.421268   -4.668550
    136          1           0       -1.477142    6.095189    0.413877
    137          1           0       -0.644088    6.317791    1.915762
    138          1           0       -2.322544    6.898293    1.803600
    139          1           0       -0.967877    6.690111    4.091059
    140          1           0       -1.830354    6.774384    5.732927
    141          1           0       -2.705816    6.888390    4.179230
    142          1           0       -3.071414    0.075883    6.215573
    143          1           0       -2.659207   -2.561550    4.899987
    144          1           0       -0.972605   -0.446985    6.886934
    145          1           0       -0.450043   -0.208569    5.182194
    146          1           0       -0.879306   -1.755130    5.710900
    147          1           0       -4.155038   -2.194074    6.899800
    148          1           0       -4.856254   -3.164172    5.618318
    149          1           0       -5.338904   -0.415605    6.509718
    150          1           0       -6.566986   -1.669937    6.105607
    151          1           0       -5.705959   -0.724562    4.809757
    152          1           0       -6.258571   -4.803693    0.227261
    153          1           0       -5.284757   -4.731988    1.731491
    154          1           0       -4.440544   -4.960941    0.148098
    155          1           0       -4.406808   -1.428242   -3.569883
    156          1           0       -7.341170   -0.759596   -6.656188
    157          1           0       -6.928449    0.990907   -6.118255
    158          1           0       -8.185338   -0.039509   -5.389736
 ---------------------------------------------------------------------

 SCF Done:  E(RCAM-B3LYP) =  -4069.81335240     A.U. after   19 cycles

 Excitation energies and oscillator strengths:

 Excited State   1:      Singlet-A      1.6645 eV  744.89 nm  f=0.2883  <S**2>=0.000
     309 -> 315        0.10787
     310 -> 316        0.13097
     311 -> 313        0.43023
     312 -> 314        0.53428
 This state for optimization and/or second-order correction.
 Total Energy, E(TD-HF/TD-DFT) =  -4069.75218427
 Copying the excited state density for this state as the 1-particle RhoCI density.

 Excited State   2:      Singlet-A      1.6774 eV  739.15 nm  f=0.3574  <S**2>=0.000
     309 -> 315        0.13592
     310 -> 316       -0.10864
     311 -> 313        0.53367
     312 -> 314       -0.43015

 Excited State   3:      Singlet-A      2.1845 eV  567.57 nm  f=0.1010  <S**2>=0.000
     310 -> 314        0.64248
     312 -> 316       -0.26963

 Excited State   4:      Singlet-A      2.1918 eV  565.68 nm  f=0.0960  <S**2>=0.000
     309 -> 313        0.64090
     311 -> 315       -0.27652

 Excited State   5:      Singlet-A      2.2140 eV  559.99 nm  f=0.0000  <S**2>=0.000
     312 -> 313        0.70700

 The electronic state is 1-A.
 Alpha  occ. eigenvalues --  -46.87959 -46.87376 -19.26695 -19.26153 -19.19475
 Alpha  occ. eigenvalues --  -19.18985 -19.18952 -19.18530 -19.18444 -19.17823
 Alpha  occ. eigenvalues --  -14.42614 -14.42165 -14.41596 -14.41093 -14.39566
 Alpha  occ. eigenvalues --  -14.39065 -14.38775 -14.38323 -10.39505 -10.38880
 Alpha  occ. eigenvalues --  -10.35617 -10.35211 -10.34668 -10.34001 -10.32111
 Alpha  occ. eigenvalues --  -10.31591 -10.31576 -10.31083 -10.30924 -10.30760
 Alpha  occ. eigenvalues --  -10.30686 -10.30682 -10.30324 -10.30151 -10.30074
 Alpha  occ. eigenvalues --  -10.30047 -10.29877 -10.29820 -10.29679 -10.29414
 Alpha  occ. eigenvalues --  -10.29138 -10.29137 -10.28934 -10.28743 -10.28558
 Alpha  occ. eigenvalues --  -10.28301 -10.28288 -10.28282 -10.28110 -10.27990
 Alpha  occ. eigenvalues --  -10.27887 -10.27766 -10.27711 -10.27619 -10.27596
 Alpha  occ. eigenvalues --  -10.27569 -10.27549 -10.27515 -10.27443 -10.27366
 Alpha  occ. eigenvalues --  -10.27274 -10.27248 -10.27201 -10.27196 -10.27083
 Alpha  occ. eigenvalues --  -10.26902 -10.26826 -10.26586 -10.26386 -10.26326
 Alpha  occ. eigenvalues --  -10.26265 -10.26166 -10.26147 -10.26075 -10.26011
 Alpha  occ. eigenvalues --  -10.25657 -10.25601 -10.25490 -10.25435 -10.25157
 Alpha  occ. eigenvalues --  -10.25048 -10.24944 -10.24612 -10.24604 -10.24595
 Alpha  occ. eigenvalues --  -10.24446  -3.16701  -3.16127  -1.91582  -1.91169
 Alpha  occ. eigenvalues --   -1.91012  -1.91009  -1.90597  -1.90434  -1.17047
 Alpha  occ. eigenvalues --   -1.16443  -1.08921  -1.08439  -1.07384  -1.07081
 Alpha  occ. eigenvalues --   -1.06790  -1.06737  -1.04754  -1.04164  -1.03914
 Alpha  occ. eigenvalues --   -1.03406  -1.03374  -1.02774  -1.02580  -1.01834
 Alpha  occ. eigenvalues --   -0.92187  -0.91707  -0.89629  -0.89360  -0.89276
 Alpha  occ. eigenvalues --   -0.88677  -0.88380  -0.88076  -0.88042  -0.87836
 Alpha  occ. eigenvalues --   -0.87517  -0.87443  -0.87346  -0.86848  -0.85162
 Alpha  occ. eigenvalues --   -0.84619  -0.84034  -0.83725  -0.83110  -0.82837
 Alpha  occ. eigenvalues --   -0.82722  -0.82312  -0.81852  -0.81342  -0.80807
 Alpha  occ. eigenvalues --   -0.80174  -0.78972  -0.78343  -0.77370  -0.77129
 Alpha  occ. eigenvalues --   -0.76859  -0.76572  -0.76131  -0.75454  -0.75019
 Alpha  occ. eigenvalues --   -0.74618  -0.72945  -0.72404  -0.71839  -0.71275
 Alpha  occ. eigenvalues --   -0.69950  -0.69586  -0.69054  -0.68469  -0.67831
 Alpha  occ. eigenvalues --   -0.67404  -0.67342  -0.66883  -0.65479  -0.65065
 Alpha  occ. eigenvalues --   -0.64921  -0.64797  -0.64492  -0.64379  -0.64355
 Alpha  occ. eigenvalues --   -0.63984  -0.62578  -0.62045  -0.60595  -0.60098
 Alpha  occ. eigenvalues --   -0.59983  -0.59397  -0.59165  -0.58716  -0.58695
 Alpha  occ. eigenvalues --   -0.58163  -0.57879  -0.57471  -0.57316  -0.57019
 Alpha  occ. eigenvalues --   -0.56521  -0.56270  -0.55912  -0.55716  -0.55629
 Alpha  occ. eigenvalues --   -0.55515  -0.55189  -0.55061  -0.54724  -0.54302
 Alpha  occ. eigenvalues --   -0.54078  -0.53480  -0.53472  -0.53425  -0.53155
 Alpha  occ. eigenvalues --   -0.52976  -0.52931  -0.52864  -0.52602  -0.52474
 Alpha  occ. eigenvalues --   -0.52341  -0.52232  -0.52142  -0.51816  -0.51629
 Alpha  occ. eigenvalues --   -0.51386  -0.51313  -0.50932  -0.50721  -0.50216
 Alpha  occ. eigenvalues --   -0.50135  -0.50060  -0.49748  -0.49712  -0.49584
 Alpha  occ. eigenvalues --   -0.49433  -0.49292  -0.49164  -0.48896  -0.48833
 Alpha  occ. eigenvalues --   -0.48691  -0.48654  -0.48588  -0.48258  -0.48183
 Alpha  occ. eigenvalues --   -0.48082  -0.47863  -0.47467  -0.47288  -0.46950
 Alpha  occ. eigenvalues --   -0.46851  -0.46747  -0.46545  -0.46416  -0.46341
 Alpha  occ. eigenvalues --   -0.46167  -0.46071  -0.46000  -0.45877  -0.45554
 Alpha  occ. eigenvalues --   -0.45310  -0.45042  -0.44815  -0.44659  -0.44336
 Alpha  occ. eigenvalues --   -0.44269  -0.44235  -0.44210  -0.44140  -0.43858
 Alpha  occ. eigenvalues --   -0.43759  -0.43751  -0.43651  -0.43536  -0.43307
 Alpha  occ. eigenvalues --   -0.43211  -0.43069  -0.43043  -0.42742  -0.42711
 Alpha  occ. eigenvalues --   -0.42638  -0.42342  -0.42134  -0.41889  -0.41725
 Alpha  occ. eigenvalues --   -0.41701  -0.41404  -0.41307  -0.41125  -0.41023
 Alpha  occ. eigenvalues --   -0.40983  -0.40665  -0.40661  -0.40485  -0.40413
 Alpha  occ. eigenvalues --   -0.40390  -0.40180  -0.39875  -0.39463  -0.39259
 Alpha  occ. eigenvalues --   -0.38567  -0.38149  -0.37941  -0.37463  -0.37436
 Alpha  occ. eigenvalues --   -0.37314  -0.37049  -0.37017  -0.36845  -0.36569
 Alpha  occ. eigenvalues --   -0.36383  -0.35976  -0.34467  -0.34180  -0.33969
 Alpha  occ. eigenvalues --   -0.33640  -0.33373  -0.32885  -0.31512  -0.31212
 Alpha  occ. eigenvalues --   -0.31089  -0.30684  -0.30309  -0.29731  -0.29636
 Alpha  occ. eigenvalues --   -0.29524  -0.29060  -0.28942  -0.24253  -0.23741
 Alpha  occ. eigenvalues --   -0.21296  -0.20821
 Alpha virt. eigenvalues --   -0.08954  -0.08506  -0.01907  -0.01414  -0.00243
 Alpha virt. eigenvalues --    0.00253   0.01976   0.02350   0.02581   0.03615
 Alpha virt. eigenvalues --    0.04546   0.04706   0.05119   0.05387   0.05949

 Mulliken charges:
               1
     1  Mg   0.839204
     2  C   -0.003969
     3  C   -0.093507
     4  C   -0.045301
     5  C   -0.064096
     6  N   -0.257002
     7  C   -0.052296
     8  C   -0.014297
     9  C   -0.087268
    10  C    0.046849
    11  C    0.104673
    12  C    0.053340
    13  C   -0.071395
    14  H    0.033790
    15  N   -0.433337
    16  C    0.169147
    17  C   -0.176798
    18  C   -0.003845
    19  C    0.149418
    20  C    0.110035
    21  C    0.012064
    22  O   -0.248947
    23  C    0.062395
    24  N   -0.341322
    25  C    0.041901
    26  C   -0.028410
    27  C   -0.024049
    28  C    0.075298
    29  C    0.076030
    30  C    0.034756
    31  C   -0.005405
    32  N   -0.310074
    33  C    0.079773
    34  C   -0.171380
    35  C    0.007241
    36  C    0.081931
    37  C    0.127770
    38  C    0.043662
    39  O   -0.190141
    40  C   -0.004694
    41  C    0.213545
    42  O   -0.261765
    43  O   -0.303505
    44  C    0.158508
    45  H   -0.017097
    46  H   -0.016219
    47  H   -0.041213
    48  H    0.000653
    49  H   -0.003265
    50  H    0.025417
    51  H    0.016733
    52  H    0.017178
    53  H    0.013345
    54  H    0.041825
    55  H    0.018073
    56  H    0.019725
    57  H    0.006602
    58  H    0.027258
    59  H    0.040074
    60  H    0.038046
    61  H    0.035716
    62  H    0.030682
    63  H    0.017422
    64  H    0.009642
    65  H    0.023952
    66  H    0.012221
    67  H    0.005174
    68  H    0.008181
    69  H    0.004579
    70  H    0.009651
    71  H    0.021494
    72  H    0.027363
    73  H    0.045163
    74  H    0.009733
    75  H    0.046603
    76  H    0.035857
    77  H    0.043624
    78  H    0.047448
    79  H    0.050035
    80  Mg   0.836416
    81  C   -0.016583
    82  C   -0.085920
    83  C   -0.046705
    84  C   -0.064634
    85  N   -0.254935
    86  C   -0.049564
    87  C   -0.015148
    88  C   -0.089882
    89  C    0.043133
    90  C    0.112370
    91  C    0.062447
    92  C   -0.077384
    93  H    0.032868
    94  N   -0.423845
    95  C    0.161557
    96  C   -0.171546
    97  C   -0.009440
    98  C    0.153101
    99  C    0.099289
   100  C    0.014908
   101  O   -0.254984
   102  C    0.061562
   103  N   -0.350317
   104  C    0.037520
   105  C   -0.019450
   106  C   -0.034977
   107  C    0.088533
   108  C    0.074570
   109  C    0.035028
   110  C   -0.007511
   111  N   -0.323999
   112  C    0.077621
   113  C   -0.163465
   114  C    0.001923
   115  C    0.095825
   116  C    0.131734
   117  C    0.041339
   118  O   -0.189760
   119  C    0.000906
   120  C    0.211313
   121  O   -0.251074
   122  O   -0.305842
   123  C    0.152183
   124  H   -0.008401
   125  H   -0.017505
   126  H   -0.040807
   127  H   -0.001751
   128  H   -0.003283
   129  H    0.017896
   130  H    0.021672
   131  H    0.025898
   132  H    0.013706
   133  H    0.036403
   134  H    0.021211
   135  H    0.020512
   136  H    0.013225
   137  H    0.026422
   138  H    0.038043
   139  H    0.037816
   140  H    0.034941
   141  H    0.034160
   142  H    0.013812
   143  H    0.012279
   144  H    0.023140
   145  H    0.011165
   146  H    0.002628
   147  H    0.004724
   148  H    0.003908
   149  H    0.010274
   150  H    0.017527
   151  H    0.030895
   152  H    0.044992
   153  H    0.008353
   154  H    0.046805
   155  H    0.033618
   156  H    0.042908
   157  H    0.050146
   158  H    0.053285
 Sum of Mulliken charges =  -0.00000

 Dipole moment (field-independent basis, Debye):
    X=              6.0445    Y=              1.9909    Z=              2.5459  Tot=              6.8543
 Quadrupole moment (field-independent basis, Debye-Ang):
   XX=           -519.9590   YY=           -502.7906   ZZ=           -497.4716
   XY=            -15.2382   XZ=             20.7933   YZ=             -4.2673

 Normal termination of Gaussian 16 at Fri Sep  3 18:34:19 2021.
