 Gaussian 16, Revision A.03,
 Gaussian 16:  ES64L-G16RevA.03 25-Dec-2016

 -----------------------------------
 #p cam-b3lyp/Def2SVP td=(nstates=5)
 -----------------------------------

 --------------------------------
 TDDFT excited states in gaussian
 --------------------------------
 Symbolic Z-matrix:
 Charge =  0 Multiplicity = 1

                         Standard orientation:
 ---------------------------------------------------------------------
 Center     Atomic      Atomic             Coordinates (Angstroms)
 Number     Number       Type             X           Y           Z
 ---------------------------------------------------------------------
      1         12           0       -4.447302   -0.653399   -0.583271
      2          6           0       -4.972471    1.915017    1.853868
      3          6           0       -5.022921    1.708028   -2.978137
      4          6           0       -4.437898   -2.986176   -2.731453
      5          6           0       -5.035690   -2.972921    1.950358
      6          7           0       -4.924866    1.504322   -0.453591
      7          6           0       -5.038835    2.381223    0.538995
      8          6           0       -5.160107    3.855528    0.050024
      9          6           0       -5.728535    3.588736   -1.415482
     10          6           0       -5.163279    2.198291   -1.645856
     11          6           0       -7.250943    3.516050   -1.474589
     12          6           0       -3.774005    4.582351    0.003344
     13          6           0       -3.839393    6.105024   -0.146800
     14          1           0       -2.844656    6.919292    0.534974
     15          7           0       -4.212830   -0.588720   -2.543804
     16          6           0       -4.481437    0.460690   -3.357361
     17          6           0       -4.142055    0.013214   -4.725304
     18          6           0       -3.834367   -1.442717   -4.664583
     19          6           0       -4.179288   -1.740225   -3.297873
     20          6           0       -4.085978    0.937062   -5.903060
     21          6           0       -3.322260   -2.414245   -5.680463
     22          8           0       -3.345940   -3.677625   -5.485825
     23          6           0       -2.867780   -1.845810   -6.962404
     24          7           0       -4.914774   -2.685018   -0.475419
     25          6           0       -4.769900   -3.483812   -1.538398
     26          6           0       -4.889257   -4.929190   -1.155549
     27          6           0       -4.904859   -4.963828    0.440794
     28          6           0       -4.871940   -3.439172    0.710252
     29          6           0       -6.124386   -5.664367   -1.694050
     30          6           0       -3.847577   -5.858539    1.135104
     31          6           0       -2.464614   -5.291415    0.905144
     32          7           0       -4.746500   -0.584160    1.565387
     33          6           0       -4.997039   -1.669675    2.417186
     34          6           0       -5.237477   -1.116495    3.762642
     35          6           0       -5.125745    0.262441    3.595620
     36          6           0       -4.859974    0.553785    2.227125
     37          6           0       -5.573886   -1.866349    4.924098
     38          6           0       -5.193450    1.558891    4.250211
     39          8           0       -5.296030    1.936193    5.418378
     40          6           0       -5.217765    2.686924    3.126478
     41          6           0       -4.214326    3.738034    3.515821
     42          8           0       -2.992715    3.483272    3.527139
     43          8           0       -4.823770    4.931669    3.581806
     44          6           0       -3.877842    6.023792    3.934855
     45          1           0       -5.415602    2.304302   -3.804092
     46          1           0       -4.335084   -3.829010   -3.418110
     47          1           0       -5.142030   -3.640918    2.807053
     48          1           0       -5.863449    4.465924    0.616726
     49          1           0       -5.320537    4.289139   -2.143970
     50          1           0       -7.689548    3.531081   -0.476931
     51          1           0       -7.478155    2.575173   -1.976204
     52          1           0       -7.651655    4.301744   -2.115597
     53          1           0       -3.264862    4.326009   -0.925701
     54          1           0       -3.177314    4.331928    0.881168
     55          1           0       -4.842974    6.482359    0.051576
     56          1           0       -3.658515    6.353171   -1.192699
     57          1           0       -4.521906    1.908087   -5.671493
     58          1           0       -4.742240    0.519810   -6.666558
     59          1           0       -3.075518    1.034759   -6.300249
     60          1           0       -3.691908   -1.305681   -7.428904
     61          1           0       -2.452917   -2.677956   -7.530093
     62          1           0       -2.089945   -1.107523   -6.765293
     63          1           0       -4.035668   -5.501224   -1.516921
     64          1           0       -5.856441   -5.323672    0.832812
     65          1           0       -5.884558   -6.548940   -2.284573
     66          1           0       -6.712722   -4.954331   -2.274568
     67          1           0       -6.842291   -5.969808   -0.933303
     68          1           0       -3.858666   -6.860358    0.707108
     69          1           0       -4.004235   -5.955149    2.209523
     70          1           0       -2.198763   -5.687683   -0.074206
     71          1           0       -1.775038   -5.648110    1.670953
     72          1           0       -2.488849   -4.204734    0.821337
     73          1           0       -4.975814   -1.454487    5.736901
     74          1           0       -5.372087   -2.927846    4.782309
     75          1           0       -6.639361   -1.650638    5.002125
     76          1           0       -6.233363    3.080559    3.099387
     77          1           0       -4.276198    6.519808    4.820019
     78          1           0       -3.747349    6.623931    3.034183
     79          1           0       -2.896900    5.713664    4.296672
     80         12           0        4.466173   -0.631148    0.578256
     81          6           0        4.905850    1.972630   -1.851974
     82          6           0        5.108473    1.705728    2.978476
     83          6           0        4.530841   -2.981546    2.708726
     84          6           0        4.990154   -2.926879   -1.990948
     85          7           0        4.932154    1.527515    0.454585
     86          6           0        5.011660    2.421859   -0.519148
     87          6           0        5.135875    3.891234   -0.034311
     88          6           0        5.757650    3.612870    1.419922
     89          6           0        5.207074    2.208007    1.656319
     90          6           0        7.275433    3.537500    1.421118
     91          6           0        3.743513    4.607975    0.063905
     92          6           0        3.812804    6.127449    0.231647
     93          1           0        2.787125    6.945926   -0.409099
     94          7           0        4.289187   -0.578623    2.554236
     95          6           0        4.572098    0.459157    3.369252
     96          6           0        4.294253   -0.013896    4.734238
     97          6           0        3.981744   -1.467588    4.672366
     98          6           0        4.282053   -1.742817    3.281632
     99          6           0        4.262553    0.902886    5.922478
    100          6           0        3.505284   -2.450486    5.698577
    101          8           0        3.527883   -3.713682    5.482588
    102          6           0        3.099101   -1.896224    6.998312
    103          7           0        4.931518   -2.652300    0.434222
    104          6           0        4.828462   -3.463235    1.501784
    105          6           0        4.945371   -4.913726    1.098305
    106          6           0        4.906289   -4.919421   -0.500459
    107          6           0        4.861344   -3.397220   -0.757922
    108          6           0        6.202251   -5.638705    1.578973
    109          6           0        3.831449   -5.815210   -1.174978
    110          6           0        2.451153   -5.268211   -0.890423
    111          7           0        4.691319   -0.538394   -1.568544
    112          6           0        4.927754   -1.616971   -2.448796
    113          6           0        5.122881   -1.044277   -3.796532
    114          6           0        5.008364    0.340374   -3.601327
    115          6           0        4.779535    0.612748   -2.225479
    116          6           0        5.415796   -1.780698   -4.978906
    117          6           0        5.039623    1.634186   -4.244590
    118          8           0        5.110558    2.023648   -5.409499
    119          6           0        5.100556    2.756148   -3.120366
    120          6           0        4.079563    3.807876   -3.457941
    121          8           0        2.865618    3.538235   -3.442700
    122          8           0        4.688074    5.005765   -3.529683
    123          6           0        3.714503    6.083042   -3.851323
    124          1           0        5.518622    2.303885    3.792644
    125          1           0        4.454474   -3.837118    3.383738
    126          1           0        5.060821   -3.582566   -2.861436
    127          1           0        5.811974    4.506009   -0.616307
    128          1           0        5.362627    4.306364    2.157743
    129          1           0        7.681025    3.566151    0.420713
    130          1           0        7.523064    2.600783    1.903093
    131          1           0        7.691376    4.323378    2.058085
    132          1           0        3.266825    4.335568    1.014332
    133          1           0        3.129633    4.365384   -0.781633
    134          1           0        4.812288    6.521381    0.010755
    135          1           0        3.657097    6.367620    1.286203
    136          1           0        4.693865    1.883348    5.685693
    137          1           0        4.942330    0.480567    6.670418
    138          1           0        3.265907    0.990664    6.360290
    139          1           0        3.934235   -1.355501    7.437215
    140          1           0        2.705773   -2.741464    7.566398
    141          1           0        2.301904   -1.163069    6.832257
    142          1           0        4.106681   -5.487987    1.472375
    143          1           0        5.851417   -5.282991   -0.929844
    144          1           0        5.982592   -6.542368    2.178333
    145          1           0        6.801890   -4.941155    2.148521
    146          1           0        6.888894   -5.944183    0.791318
    147          1           0        3.859070   -6.822821   -0.752945
    148          1           0        3.960947   -5.911736   -2.247782
    149          1           0        2.223160   -5.676146    0.098865
    150          1           0        1.739341   -5.618199   -1.635314
    151          1           0        2.471636   -4.175950   -0.799866
    152          1           0        4.797271   -1.367300   -5.764419
    153          1           0        5.228223   -2.843641   -4.841979
    154          1           0        6.481725   -1.562379   -5.085618
    155          1           0        6.114651    3.157548   -3.112769
    156          1           0        4.086056    6.592904   -4.745577
    157          1           0        3.621702    6.686942   -2.929122
    158          1           0        2.724396    5.783655   -4.174573
 ---------------------------------------------------------------------

 SCF Done:  E(RCAM-B3LYP) =  -4069.81254976     A.U. after   19 cycles

 Excitation energies and oscillator strengths:

 Excited State   1:      Singlet-A      1.6493 eV  751.76 nm  f=0.0043  <S**2>=0.000
     309 -> 316        0.12288
     310 -> 315        0.11248
     311 -> 313        0.50789
     312 -> 314       -0.46360
 This state for optimization and/or second-order correction.
 Total Energy, E(TD-HF/TD-DFT) =  -4069.75194049
 Copying the excited state density for this state as the 1-particle RhoCI density.

 Excited State   2:      Singlet-A      1.7036 eV  727.77 nm  f=0.6987  <S**2>=0.000
     309 -> 316        0.12194
     310 -> 315       -0.13402
     311 -> 313        0.46134
     312 -> 314        0.50536

 Excited State   3:      Singlet-A      2.1838 eV  567.75 nm  f=0.0151  <S**2>=0.000
     309 -> 313        0.55975
     310 -> 314       -0.31864
     311 -> 316       -0.23444
     312 -> 315       -0.13255

 Excited State   4:      Singlet-A      2.1968 eV  564.38 nm  f=0.1612  <S**2>=0.000
     309 -> 313        0.31499
     310 -> 314        0.55559
     311 -> 316       -0.13920
     312 -> 315        0.24421

 Excited State   5:      Singlet-A      2.4687 eV  502.22 nm  f=0.0000  <S**2>=0.000
     312 -> 313        0.70710

 The electronic state is 1-A.
 Alpha  occ. eigenvalues --  -46.87566 -46.87487 -19.26368 -19.26244 -19.19166
 Alpha  occ. eigenvalues --  -19.18965 -19.18552 -19.18505 -19.18017 -19.17958
 Alpha  occ. eigenvalues --  -14.42325 -14.42224 -14.41227 -14.41195 -14.39168
 Alpha  occ. eigenvalues --  -14.39162 -14.38440 -14.38370 -10.39085 -10.39014
 Alpha  occ. eigenvalues --  -10.35179 -10.35176 -10.34241 -10.34139 -10.31827
 Alpha  occ. eigenvalues --  -10.31692 -10.31198 -10.31158 -10.30846 -10.30677
 Alpha  occ. eigenvalues --  -10.30352 -10.30292 -10.30238 -10.30202 -10.29965
 Alpha  occ. eigenvalues --  -10.29955 -10.29754 -10.29725 -10.29405 -10.29246
 Alpha  occ. eigenvalues --  -10.29230 -10.29007 -10.28574 -10.28558 -10.28551
 Alpha  occ. eigenvalues --  -10.28394 -10.28238 -10.28139 -10.27990 -10.27913
 Alpha  occ. eigenvalues --  -10.27836 -10.27570 -10.27494 -10.27491 -10.27365
 Alpha  occ. eigenvalues --  -10.27339 -10.27328 -10.27298 -10.27280 -10.27265
 Alpha  occ. eigenvalues --  -10.27241 -10.27195 -10.27178 -10.27131 -10.27019
 Alpha  occ. eigenvalues --  -10.26969 -10.26533 -10.26493 -10.26122 -10.26062
 Alpha  occ. eigenvalues --  -10.26057 -10.25980 -10.25979 -10.25900 -10.25793
 Alpha  occ. eigenvalues --  -10.25765 -10.25744 -10.25679 -10.25284 -10.25272
 Alpha  occ. eigenvalues --  -10.24721 -10.24624 -10.24573 -10.24552 -10.24533
 Alpha  occ. eigenvalues --  -10.24463  -3.16308  -3.16236  -1.91190  -1.91118
 Alpha  occ. eigenvalues --   -1.90776  -1.90707  -1.90619  -1.90544  -1.16657
 Alpha  occ. eigenvalues --   -1.16588  -1.08581  -1.08489  -1.06953  -1.06948
 Alpha  occ. eigenvalues --   -1.06757  -1.06586  -1.04358  -1.04327  -1.03538
 Alpha  occ. eigenvalues --   -1.03494  -1.03008  -1.02873  -1.02189  -1.01948
 Alpha  occ. eigenvalues --   -0.91850  -0.91778  -0.89338  -0.89309  -0.89002
 Alpha  occ. eigenvalues --   -0.88986  -0.88083  -0.88070  -0.87669  -0.87652
 Alpha  occ. eigenvalues --   -0.87518  -0.87450  -0.86995  -0.86897  -0.84849
 Alpha  occ. eigenvalues --   -0.84778  -0.83745  -0.83736  -0.82724  -0.82700
 Alpha  occ. eigenvalues --   -0.82485  -0.82437  -0.81516  -0.81449  -0.80403
 Alpha  occ. eigenvalues --   -0.80312  -0.78545  -0.78444  -0.77007  -0.76986
 Alpha  occ. eigenvalues --   -0.76785  -0.76766  -0.75749  -0.75716  -0.74710
 Alpha  occ. eigenvalues --   -0.74669  -0.72561  -0.72541  -0.71476  -0.71440
 Alpha  occ. eigenvalues --   -0.69700  -0.69601  -0.68677  -0.68667  -0.67451
 Alpha  occ. eigenvalues --   -0.67432  -0.67029  -0.66998  -0.65134  -0.65092
 Alpha  occ. eigenvalues --   -0.64670  -0.64638  -0.64524  -0.64433  -0.64064
 Alpha  occ. eigenvalues --   -0.64056  -0.62209  -0.62176  -0.60191  -0.60146
 Alpha  occ. eigenvalues --   -0.59642  -0.59596  -0.58848  -0.58787  -0.58307
 Alpha  occ. eigenvalues --   -0.58291  -0.57477  -0.57447  -0.57107  -0.57082
 Alpha  occ. eigenvalues --   -0.56107  -0.56060  -0.55860  -0.55807  -0.55304
 Alpha  occ. eigenvalues --   -0.55291  -0.55175  -0.55130  -0.54391  -0.54379
 Alpha  occ. eigenvalues --   -0.53765  -0.53695  -0.53087  -0.53074  -0.53001
 Alpha  occ. eigenvalues --   -0.52999  -0.52776  -0.52745  -0.52486  -0.52444
 Alpha  occ. eigenvalues --   -0.52245  -0.52233  -0.51770  -0.51737  -0.51494
 Alpha  occ. eigenvalues --   -0.51399  -0.51078  -0.51015  -0.50259  -0.50230
 Alpha  occ. eigenvalues --   -0.49809  -0.49800  -0.49702  -0.49675  -0.49316
 Alpha  occ. eigenvalues --   -0.49299  -0.49054  -0.49012  -0.48980  -0.48913
 Alpha  occ. eigenvalues --   -0.48447  -0.48431  -0.48288  -0.48259  -0.48201
 Alpha  occ. eigenvalues --   -0.48146  -0.47483  -0.47439  -0.47075  -0.46950
 Alpha  occ. eigenvalues --   -0.46592  -0.46563  -0.46405  -0.46362  -0.46150
 Alpha  occ. eigenvalues --   -0.46118  -0.45983  -0.45962  -0.45731  -0.45676
 Alpha  occ. eigenvalues --   -0.45068  -0.45004  -0.44416  -0.44403  -0.44323
 Alpha  occ. eigenvalues --   -0.44273  -0.44001  -0.43944  -0.43928  -0.43897
 Alpha  occ. eigenvalues --   -0.43798  -0.43755  -0.43483  -0.43354  -0.43249
 Alpha  occ. eigenvalues --   -0.43181  -0.42878  -0.42834  -0.42772  -0.42610
 Alpha  occ. eigenvalues --   -0.42455  -0.42387  -0.41820  -0.41814  -0.41541
 Alpha  occ. eigenvalues --   -0.41513  -0.41337  -0.41313  -0.40943  -0.40847
 Alpha  occ. eigenvalues --   -0.40668  -0.40566  -0.40563  -0.40506  -0.40376
 Alpha  occ. eigenvalues --   -0.40349  -0.40057  -0.40020  -0.39282  -0.39213
 Alpha  occ. eigenvalues --   -0.38269  -0.38204  -0.37560  -0.37520  -0.37117
 Alpha  occ. eigenvalues --   -0.37109  -0.37058  -0.37046  -0.36742  -0.36616
 Alpha  occ. eigenvalues --   -0.36094  -0.36027  -0.34102  -0.34073  -0.33836
 Alpha  occ. eigenvalues --   -0.33687  -0.33015  -0.32973  -0.31087  -0.31070
 Alpha  occ. eigenvalues --   -0.30822  -0.30813  -0.29883  -0.29869  -0.29211
 Alpha  occ. eigenvalues --   -0.29147  -0.29101  -0.29049  -0.23874  -0.23861
 Alpha  occ. eigenvalues --   -0.20946  -0.20901
 Alpha virt. eigenvalues --   -0.08620  -0.08543  -0.01522  -0.01512   0.00160
 Alpha virt. eigenvalues --    0.00187   0.02336   0.02387   0.02968   0.03878
 Alpha virt. eigenvalues --    0.04875   0.04923   0.05179   0.05187   0.06262

 Mulliken charges:
               1
     1  Mg   0.839819
     2  C   -0.003125
     3  C   -0.092193
     4  C   -0.046135
     5  C   -0.063852
     6  N   -0.256816
     7  C   -0.052532
     8  C   -0.014315
     9  C   -0.087362
    10  C    0.047015
    11  C    0.104867
    12  C    0.052877
    13  C   -0.070968
    14  H    0.033543
    15  N   -0.433364
    16  C    0.169887
    17  C   -0.175099
    18  C   -0.003154
    19  C    0.149194
    20  C    0.109917
    21  C    0.012998
    22  O   -0.250743
    23  C    0.061451
    24  N   -0.341212
    25  C    0.041586
    26  C   -0.028068
    27  C   -0.023739
    28  C    0.074496
    29  C    0.076380
    30  C    0.035172
    31  C   -0.004850
    32  N   -0.310161
    33  C    0.079859
    34  C   -0.170397
    35  C    0.007541
    36  C    0.082560
    37  C    0.127599
    38  C    0.045106
    39  O   -0.190467
    40  C   -0.005115
    41  C    0.212689
    42  O   -0.258166
    43  O   -0.304442
    44  C    0.158443
    45  H   -0.017597
    46  H   -0.017286
    47  H   -0.041897
    48  H    0.000033
    49  H   -0.003388
    50  H    0.025030
    51  H    0.016441
    52  H    0.016368
    53  H    0.014723
    54  H    0.043309
    55  H    0.017180
    56  H    0.018718
    57  H    0.005864
    58  H    0.025980
    59  H    0.044098
    60  H    0.036875
    61  H    0.034973
    62  H    0.035647
    63  H    0.016013
    64  H    0.008967
    65  H    0.022687
    66  H    0.012498
    67  H    0.004468
    68  H    0.005463
    69  H    0.004896
    70  H    0.007914
    71  H    0.019713
    72  H    0.029271
    73  H    0.046160
    74  H    0.009256
    75  H    0.045413
    76  H    0.034779
    77  H    0.042253
    78  H    0.046635
    79  H    0.051810
    80  Mg   0.838979
    81  C   -0.017062
    82  C   -0.086178
    83  C   -0.045648
    84  C   -0.064699
    85  N   -0.254656
    86  C   -0.049867
    87  C   -0.015384
    88  C   -0.090848
    89  C    0.046482
    90  C    0.114414
    91  C    0.061917
    92  C   -0.077096
    93  H    0.032410
    94  N   -0.423747
    95  C    0.164588
    96  C   -0.172950
    97  C   -0.006853
    98  C    0.152594
    99  C    0.099192
   100  C    0.016366
   101  O   -0.254114
   102  C    0.060198
   103  N   -0.350097
   104  C    0.037807
   105  C   -0.019762
   106  C   -0.034584
   107  C    0.088550
   108  C    0.073851
   109  C    0.034769
   110  C   -0.008105
   111  N   -0.323811
   112  C    0.077911
   113  C   -0.163861
   114  C    0.001371
   115  C    0.095788
   116  C    0.131796
   117  C    0.041270
   118  O   -0.189988
   119  C    0.001172
   120  C    0.211044
   121  O   -0.252171
   122  O   -0.305228
   123  C    0.152773
   124  H   -0.019598
   125  H   -0.015902
   126  H   -0.040754
   127  H   -0.001529
   128  H   -0.003679
   129  H    0.022033
   130  H    0.014423
   131  H    0.016049
   132  H    0.017351
   133  H    0.036894
   134  H    0.020101
   135  H    0.020422
   136  H    0.008763
   137  H    0.025418
   138  H    0.043983
   139  H    0.037794
   140  H    0.035911
   141  H    0.037786
   142  H    0.013988
   143  H    0.011950
   144  H    0.024696
   145  H    0.011579
   146  H    0.005424
   147  H    0.005423
   148  H    0.003895
   149  H    0.010113
   150  H    0.019663
   151  H    0.030307
   152  H    0.044469
   153  H    0.008775
   154  H    0.046386
   155  H    0.034688
   156  H    0.043225
   157  H    0.049833
   158  H    0.051591
 Sum of Mulliken charges =  -0.00000

 Dipole moment (field-independent basis, Debye):
    X=              0.0946    Y=              3.1286    Z=             -0.2075  Tot=              3.1369
 Quadrupole moment (field-independent basis, Debye-Ang):
   XX=           -490.8886   YY=           -461.9217   ZZ=           -536.5696
   XY=              0.6652   XZ=             38.5723   YZ=              0.7031

 Normal termination of Gaussian 16 at Thu Sep  9 17:30:23 2021.
