 Gaussian 16, Revision A.03,
 Gaussian 16:  ES64L-G16RevA.03 25-Dec-2016

 -----------------------------------
 #p cam-b3lyp/Def2SVP td=(nstates=5)
 -----------------------------------

 --------------------------------
 TDDFT excited states in gaussian
 --------------------------------
 Symbolic Z-matrix:
 Charge =  0 Multiplicity = 1

                         Standard orientation:
 ---------------------------------------------------------------------
 Center     Atomic      Atomic             Coordinates (Angstroms)
 Number     Number       Type             X           Y           Z
 ---------------------------------------------------------------------
      1         12           0        7.801403   -0.943649    0.136322
      2          6           0        8.378825    2.358582   -1.118296
      3          6           0        8.855330    0.188370    3.177841
      4          6           0        7.733542   -3.945790    1.155718
      5          6           0        7.890975   -2.054489   -3.165749
      6          7           0        8.500888    1.042952    0.818072
      7          6           0        8.618452    2.240255    0.252551
      8          6           0        8.947243    3.374126    1.269216
      9          6           0        9.616475    2.495183    2.418819
     10          6           0        8.924577    1.171216    2.146216
     11          6           0       11.120318    2.308331    2.245490
     12          6           0        7.660570    4.104359    1.782014
     13          6           0        7.907902    5.424537    2.517752
     14          1           0        6.950398    6.507839    2.353462
     15          7           0        7.758947   -1.672730    1.971939
     16          6           0        8.216654   -1.067813    3.094377
     17          6           0        7.958532   -2.013706    4.201328
     18          6           0        7.487161   -3.294400    3.604901
     19          6           0        7.668357   -3.027382    2.200890
     20          6           0        8.114943   -1.651619    5.646381
     21          6           0        6.967331   -4.562127    4.205548
     22          8           0        6.832713   -5.633745    3.521380
     23          6           0        6.699853   -4.540916    5.655047
     24          7           0        8.028886   -2.778118   -0.833530
     25          6           0        7.895943   -3.931201   -0.168917
     26          6           0        7.818327   -5.097453   -1.109008
     27          6           0        7.681422   -4.476289   -2.573646
     28          6           0        7.792666   -2.976254   -2.205149
     29          6           0        9.009127   -6.065342   -1.074424
     30          6           0        6.471564   -4.939251   -3.423545
     31          6           0        5.187358   -4.429611   -2.808581
     32          7           0        7.905238   -0.019756   -1.824974
     33          6           0        7.953660   -0.674779   -3.064036
     34          6           0        8.127678    0.364380   -4.095509
     35          6           0        8.185401    1.558056   -3.378815
     36          6           0        8.082007    1.279680   -1.985937
     37          6           0        8.269441    0.136204   -5.492746
     38          6           0        8.335104    3.001725   -3.464052
     39          8           0        8.369726    3.816956   -4.386924
     40          6           0        8.588653    3.566670   -1.996954
     41          6           0        7.675977    4.746330   -1.800147
     42          8           0        6.437941    4.596535   -1.753302
     43          8           0        8.405089    5.821064   -1.462679
     44          6           0        7.557239    7.019543   -1.224035
     45          1           0        9.386766    0.367940    4.114468
     46          1           0        7.602329   -4.987522    1.455743
     47          1           0        7.842506   -2.318378   -4.223797
     48          1           0        9.658081    4.117130    0.907168
     49          1           0        9.358120    2.860185    3.412674
     50          1           0       11.463164    2.702735    1.289027
     51          1           0       11.287586    1.232221    2.295519
     52          1           0       11.663478    2.735519    3.088856
     53          1           0        7.214815    3.522902    2.589028
     54          1           0        6.960754    4.273723    0.962930
     55          1           0        8.924270    5.785575    2.357887
     56          1           0        7.853712    5.233564    3.589569
     57          1           0        8.632303   -0.700685    5.767250
     58          1           0        8.789112   -2.385603    6.087372
     59          1           0        7.162882   -1.661298    6.177247
     60          1           0        7.618540   -4.292599    6.186932
     61          1           0        6.249989   -5.504427    5.891943
     62          1           0        5.993639   -3.738975    5.872079
     63          1           0        6.943970   -5.711939   -0.898456
     64          1           0        8.546668   -4.703577   -3.196835
     65          1           0        8.728774   -7.097011   -0.860498
     66          1           0        9.723929   -5.694134   -0.340562
     67          1           0        9.614877   -6.077318   -1.980150
     68          1           0        6.411382   -6.026980   -3.436561
     69          1           0        6.515922   -4.597150   -4.457590
     70          1           0        4.971517   -5.174438   -2.043416
     71          1           0        4.394282   -4.396948   -3.556361
     72          1           0        5.339505   -3.476463   -2.301781
     73          1           0        7.647667    0.881783   -5.988202
     74          1           0        7.965375   -0.875148   -5.761661
     75          1           0        9.340346    0.296941   -5.615968
     76          1           0        9.639692    3.849456   -1.947249
     77          1           0        7.924003    7.808185   -1.881122
     78          1           0        7.578383    7.205198   -0.150028
     79          1           0        6.518602    6.947628   -1.548689
     80         12           0       -7.970623    0.916554    0.331009
     81          6           0       -8.184133   -2.557846   -0.541950
     82          6           0       -7.057791    1.518546   -2.899925
     83          6           0       -7.337682    3.909813    1.171987
     84          6           0       -7.775808   -0.076279    3.665982
     85          7           0       -7.692493   -0.428075   -1.403022
     86          6           0       -7.862017   -1.721719   -1.631252
     87          6           0       -7.754687   -2.130816   -3.124801
     88          6           0       -6.852083   -0.908553   -3.644648
     89          6           0       -7.246007    0.143551   -2.609973
     90          6           0       -5.359746   -1.166532   -3.519202
     91          6           0       -9.151521   -2.157763   -3.839030
     92          6           0       -9.161228   -2.843635   -5.206964
     93          1           0      -10.345220   -3.605044   -5.595437
     94          7           0       -7.776030    2.549060   -0.780582
     95          6           0       -7.420131    2.610443   -2.080906
     96          6           0       -7.401523    4.040415   -2.425857
     97          6           0       -7.614870    4.826257   -1.180199
     98          6           0       -7.562574    3.769664   -0.189760
     99          6           0       -7.274895    4.535383   -3.837383
    100          6           0       -7.817924    6.288517   -0.921843
    101          8           0       -7.745691    6.779925    0.259741
    102          6           0       -8.011093    7.142316   -2.103034
    103          7           0       -7.396742    1.784048    2.131139
    104          6           0       -7.238614    3.115049    2.237745
    105          6           0       -7.095833    3.533485    3.681664
    106          6           0       -7.434460    2.228932    4.542515
    107          6           0       -7.636243    1.214311    3.395684
    108          6           0       -5.722202    4.067772    4.086718
    109          6           0       -8.549834    2.363508    5.615133
    110          6           0       -9.887609    2.577996    4.944512
    111          7           0       -8.160606   -0.943453    1.413757
    112          6           0       -8.017142   -1.139124    2.804875
    113          6           0       -8.120681   -2.591727    3.053178
    114          6           0       -8.295575   -3.146876    1.776581
    115          6           0       -8.280451   -2.115111    0.799484
    116          6           0       -8.003311   -3.229521    4.320287
    117          6           0       -8.478896   -4.372125    1.032363
    118          8           0       -8.656523   -5.552155    1.331923
    119          6           0       -8.288293   -4.057499   -0.513946
    120          6           0       -9.427419   -4.694785   -1.261472
    121          8           0      -10.594267   -4.299202   -1.092393
    122          8           0       -8.930898   -5.512476   -2.207627
    123          6           0      -10.022413   -6.159625   -2.983277
    124          1           0       -6.545834    1.788563   -3.823986
    125          1           0       -7.224060    4.936404    1.527904
    126          1           0       -7.823256   -0.456735    4.688564
    127          1           0       -7.246070   -3.070695   -3.302930
    128          1           0       -7.150017   -0.593474   -4.641304
    129          1           0       -5.152719   -2.084777   -2.989958
    130          1           0       -4.959246   -0.319358   -2.977968
    131          1           0       -4.888940   -1.143533   -4.506181
    132          1           0       -9.420089   -1.136647   -4.138930
    133          1           0       -9.894459   -2.603031   -3.206270
    134          1           0       -8.252057   -3.432408   -5.379329
    135          1           0       -9.132615   -2.073422   -5.981544
    136          1           0       -6.967381    3.732780   -4.519031
    137          1           0       -6.438004    5.241910   -3.854611
    138          1           0       -8.175064    5.045207   -4.187312
    139          1           0       -7.149328    7.050473   -2.759836
    140          1           0       -8.228788    8.137912   -1.711522
    141          1           0       -8.875852    6.771905   -2.664810
    142          1           0       -7.805717    4.312747    3.930489
    143          1           0       -6.563353    1.883257    5.118283
    144          1           0       -5.759704    5.086007    4.517863
    145          1           0       -5.077793    4.046204    3.217919
    146          1           0       -5.175854    3.447327    4.795059
    147          1           0       -8.371015    3.242542    6.239215
    148          1           0       -8.617870    1.506861    6.277344
    149          1           0       -9.895534    3.654332    4.748269
    150          1           0      -10.699843    2.292091    5.609778
    151          1           0       -9.928961    2.066051    3.976080
    152          1           0       -8.786619   -3.974284    4.367723
    153          1           0       -8.084928   -2.513124    5.135068
    154          1           0       -6.994959   -3.643815    4.237433
    155          1           0       -7.322373   -4.465166   -0.814568
    156          1           0       -9.863311   -7.240418   -2.918007
    157          1           0       -9.983200   -5.704657   -3.990856
    158          1           0      -11.031546   -6.070778   -2.598315
 ---------------------------------------------------------------------

 SCF Done:  E(RCAM-B3LYP) =  -4069.81184495     A.U. after   19 cycles

 Excitation energies and oscillator strengths:

 Excited State   1:      Singlet-A      1.6712 eV  741.91 nm  f=0.0905  <S**2>=0.000
     309 -> 315        0.10042
     310 -> 316        0.14055
     311 -> 313        0.39732
     312 -> 314        0.55956
 This state for optimization and/or second-order correction.
 Total Energy, E(TD-HF/TD-DFT) =  -4069.75043123
 Copying the excited state density for this state as the 1-particle RhoCI density.

 Excited State   2:      Singlet-A      1.6842 eV  736.14 nm  f=0.6630  <S**2>=0.000
     309 -> 315        0.14405
     310 -> 316       -0.10180
     311 -> 313        0.55886
     312 -> 314       -0.39692

 Excited State   3:      Singlet-A      2.1861 eV  567.16 nm  f=0.0724  <S**2>=0.000
     309 -> 313        0.11350
     310 -> 314        0.63253
     312 -> 316       -0.26860

 Excited State   4:      Singlet-A      2.1930 eV  565.36 nm  f=0.1231  <S**2>=0.000
     309 -> 313        0.63070
     310 -> 314       -0.11263
     311 -> 315       -0.27405

 Excited State   5:      Singlet-A      2.7645 eV  448.48 nm  f=0.0000  <S**2>=0.000
     312 -> 313        0.70710

 The electronic state is 1-A.
 Alpha  occ. eigenvalues --  -46.87837 -46.87588 -19.26331 -19.26293 -19.19103
 Alpha  occ. eigenvalues --  -19.19070 -19.18839 -19.18640 -19.18217 -19.17985
 Alpha  occ. eigenvalues --  -14.42489 -14.42423 -14.41489 -14.41290 -14.39441
 Alpha  occ. eigenvalues --  -14.39278 -14.38629 -14.38530 -10.39129 -10.39031
 Alpha  occ. eigenvalues --  -10.35471 -10.35316 -10.34437 -10.34163 -10.31724
 Alpha  occ. eigenvalues --  -10.31705 -10.31447 -10.31234 -10.30945 -10.30944
 Alpha  occ. eigenvalues --  -10.30613 -10.30548 -10.30330 -10.30289 -10.30244
 Alpha  occ. eigenvalues --  -10.30072 -10.29963 -10.29832 -10.29671 -10.29362
 Alpha  occ. eigenvalues --  -10.29330 -10.29292 -10.28783 -10.28640 -10.28587
 Alpha  occ. eigenvalues --  -10.28567 -10.28404 -10.28330 -10.28151 -10.28052
 Alpha  occ. eigenvalues --  -10.27929 -10.27835 -10.27766 -10.27622 -10.27589
 Alpha  occ. eigenvalues --  -10.27543 -10.27509 -10.27486 -10.27470 -10.27443
 Alpha  occ. eigenvalues --  -10.27412 -10.27392 -10.27368 -10.27325 -10.27203
 Alpha  occ. eigenvalues --  -10.26984 -10.26738 -10.26621 -10.26423 -10.26332
 Alpha  occ. eigenvalues --  -10.26266 -10.26234 -10.26103 -10.26062 -10.25916
 Alpha  occ. eigenvalues --  -10.25902 -10.25869 -10.25799 -10.25466 -10.25349
 Alpha  occ. eigenvalues --  -10.24876 -10.24826 -10.24802 -10.24745 -10.24696
 Alpha  occ. eigenvalues --  -10.24621  -3.16580  -3.16338  -1.91461  -1.91221
 Alpha  occ. eigenvalues --   -1.91048  -1.90890  -1.90809  -1.90646  -1.16680
 Alpha  occ. eigenvalues --   -1.16586  -1.08676  -1.08593  -1.07239  -1.06891
 Alpha  occ. eigenvalues --   -1.06887  -1.06692  -1.04620  -1.04420  -1.03800
 Alpha  occ. eigenvalues --   -1.03592  -1.03274  -1.02969  -1.02451  -1.02041
 Alpha  occ. eigenvalues --   -0.92014  -0.91917  -0.89562  -0.89435  -0.89223
 Alpha  occ. eigenvalues --   -0.89070  -0.88327  -0.88164  -0.87917  -0.87729
 Alpha  occ. eigenvalues --   -0.87711  -0.87611  -0.87306  -0.87040  -0.85018
 Alpha  occ. eigenvalues --   -0.84924  -0.83979  -0.83824  -0.82996  -0.82858
 Alpha  occ. eigenvalues --   -0.82683  -0.82577  -0.81629  -0.81533  -0.80635
 Alpha  occ. eigenvalues --   -0.80374  -0.78834  -0.78560  -0.77258  -0.77073
 Alpha  occ. eigenvalues --   -0.76973  -0.76833  -0.75962  -0.75763  -0.74937
 Alpha  occ. eigenvalues --   -0.74743  -0.72816  -0.72630  -0.71710  -0.71510
 Alpha  occ. eigenvalues --   -0.69952  -0.69708  -0.68909  -0.68753  -0.67679
 Alpha  occ. eigenvalues --   -0.67533  -0.67252  -0.67126  -0.65324  -0.65198
 Alpha  occ. eigenvalues --   -0.64895  -0.64703  -0.64660  -0.64586  -0.64311
 Alpha  occ. eigenvalues --   -0.64145  -0.62342  -0.62217  -0.60476  -0.60267
 Alpha  occ. eigenvalues --   -0.59841  -0.59719  -0.59028  -0.58925  -0.58544
 Alpha  occ. eigenvalues --   -0.58358  -0.57630  -0.57490  -0.57349  -0.57172
 Alpha  occ. eigenvalues --   -0.56350  -0.56134  -0.56020  -0.55822  -0.55555
 Alpha  occ. eigenvalues --   -0.55383  -0.55380  -0.55191  -0.54568  -0.54432
 Alpha  occ. eigenvalues --   -0.53930  -0.53833  -0.53337  -0.53256  -0.53160
 Alpha  occ. eigenvalues --   -0.53069  -0.52956  -0.52834  -0.52786  -0.52585
 Alpha  occ. eigenvalues --   -0.52486  -0.52355  -0.51966  -0.51826  -0.51651
 Alpha  occ. eigenvalues --   -0.51582  -0.51239  -0.51137  -0.50598  -0.50394
 Alpha  occ. eigenvalues --   -0.50071  -0.49950  -0.49903  -0.49804  -0.49548
 Alpha  occ. eigenvalues --   -0.49412  -0.49254  -0.49133  -0.49127  -0.49030
 Alpha  occ. eigenvalues --   -0.48634  -0.48499  -0.48488  -0.48478  -0.48319
 Alpha  occ. eigenvalues --   -0.48264  -0.47731  -0.47522  -0.47332  -0.47045
 Alpha  occ. eigenvalues --   -0.46838  -0.46643  -0.46590  -0.46478  -0.46400
 Alpha  occ. eigenvalues --   -0.46205  -0.46202  -0.46025  -0.45868  -0.45760
 Alpha  occ. eigenvalues --   -0.45240  -0.45148  -0.44622  -0.44540  -0.44448
 Alpha  occ. eigenvalues --   -0.44402  -0.44185  -0.44124  -0.44057  -0.44054
 Alpha  occ. eigenvalues --   -0.44015  -0.43865  -0.43539  -0.43493  -0.43423
 Alpha  occ. eigenvalues --   -0.43315  -0.43068  -0.42868  -0.42837  -0.42743
 Alpha  occ. eigenvalues --   -0.42700  -0.42494  -0.42053  -0.41905  -0.41745
 Alpha  occ. eigenvalues --   -0.41601  -0.41569  -0.41389  -0.41178  -0.40916
 Alpha  occ. eigenvalues --   -0.40906  -0.40849  -0.40650  -0.40626  -0.40612
 Alpha  occ. eigenvalues --   -0.40434  -0.40266  -0.40153  -0.39487  -0.39378
 Alpha  occ. eigenvalues --   -0.38508  -0.38292  -0.37783  -0.37583  -0.37360
 Alpha  occ. eigenvalues --   -0.37301  -0.37204  -0.37125  -0.36759  -0.36714
 Alpha  occ. eigenvalues --   -0.36235  -0.36155  -0.34327  -0.34184  -0.33819
 Alpha  occ. eigenvalues --   -0.33801  -0.33227  -0.33105  -0.31369  -0.31199
 Alpha  occ. eigenvalues --   -0.31074  -0.30902  -0.30077  -0.29890  -0.29487
 Alpha  occ. eigenvalues --   -0.29365  -0.29252  -0.29141  -0.24121  -0.23965
 Alpha  occ. eigenvalues --   -0.21168  -0.21045
 Alpha virt. eigenvalues --   -0.08813  -0.08719  -0.01788  -0.01613  -0.00091
 Alpha virt. eigenvalues --    0.00048   0.02156   0.02273   0.03073   0.03291
 Alpha virt. eigenvalues --    0.04681   0.04804   0.05050   0.05226   0.06145

 Mulliken charges:
               1
     1  Mg   0.838639
     2  C   -0.002986
     3  C   -0.094076
     4  C   -0.045841
     5  C   -0.064030
     6  N   -0.256798
     7  C   -0.052490
     8  C   -0.014019
     9  C   -0.087012
    10  C    0.046361
    11  C    0.104786
    12  C    0.053456
    13  C   -0.071894
    14  H    0.036247
    15  N   -0.433210
    16  C    0.168492
    17  C   -0.177061
    18  C   -0.003889
    19  C    0.148767
    20  C    0.110149
    21  C    0.012400
    22  O   -0.249374
    23  C    0.062427
    24  N   -0.341131
    25  C    0.041300
    26  C   -0.028254
    27  C   -0.023931
    28  C    0.074755
    29  C    0.076114
    30  C    0.035156
    31  C   -0.004477
    32  N   -0.310396
    33  C    0.080261
    34  C   -0.170017
    35  C    0.008273
    36  C    0.082832
    37  C    0.127395
    38  C    0.045932
    39  O   -0.188709
    40  C   -0.005262
    41  C    0.212859
    42  O   -0.257317
    43  O   -0.304737
    44  C    0.157721
    45  H   -0.017462
    46  H   -0.016647
    47  H   -0.041689
    48  H    0.000952
    49  H   -0.003938
    50  H    0.025482
    51  H    0.016477
    52  H    0.016776
    53  H    0.011219
    54  H    0.044017
    55  H    0.017907
    56  H    0.018043
    57  H    0.005930
    58  H    0.026997
    59  H    0.039683
    60  H    0.037376
    61  H    0.035988
    62  H    0.031514
    63  H    0.016694
    64  H    0.009472
    65  H    0.023410
    66  H    0.012619
    67  H    0.004765
    68  H    0.006516
    69  H    0.004473
    70  H    0.009107
    71  H    0.017601
    72  H    0.028909
    73  H    0.047160
    74  H    0.008922
    75  H    0.046072
    76  H    0.035211
    77  H    0.042928
    78  H    0.046570
    79  H    0.053537
    80  Mg   0.837921
    81  C   -0.016839
    82  C   -0.087541
    83  C   -0.045393
    84  C   -0.064968
    85  N   -0.254575
    86  C   -0.049792
    87  C   -0.015112
    88  C   -0.090513
    89  C    0.045707
    90  C    0.114231
    91  C    0.062522
    92  C   -0.077834
    93  H    0.034638
    94  N   -0.423589
    95  C    0.162935
    96  C   -0.174154
    97  C   -0.007731
    98  C    0.152248
    99  C    0.099152
   100  C    0.015694
   101  O   -0.253324
   102  C    0.061167
   103  N   -0.350037
   104  C    0.037636
   105  C   -0.019855
   106  C   -0.034674
   107  C    0.088861
   108  C    0.073657
   109  C    0.034776
   110  C   -0.007608
   111  N   -0.324046
   112  C    0.078353
   113  C   -0.163314
   114  C    0.002231
   115  C    0.096125
   116  C    0.131509
   117  C    0.042287
   118  O   -0.188128
   119  C    0.000961
   120  C    0.211218
   121  O   -0.251107
   122  O   -0.305586
   123  C    0.152078
   124  H   -0.019027
   125  H   -0.015633
   126  H   -0.040804
   127  H   -0.000685
   128  H   -0.004271
   129  H    0.022388
   130  H    0.015027
   131  H    0.016646
   132  H    0.013904
   133  H    0.037537
   134  H    0.020810
   135  H    0.019679
   136  H    0.009063
   137  H    0.026881
   138  H    0.039696
   139  H    0.038709
   140  H    0.036264
   141  H    0.033777
   142  H    0.014249
   143  H    0.012131
   144  H    0.024876
   145  H    0.012176
   146  H    0.005328
   147  H    0.005968
   148  H    0.003432
   149  H    0.010879
   150  H    0.017729
   151  H    0.030267
   152  H    0.045818
   153  H    0.008232
   154  H    0.046871
   155  H    0.035104
   156  H    0.043788
   157  H    0.049525
   158  H    0.053477
 Sum of Mulliken charges =  -0.00000

 Dipole moment (field-independent basis, Debye):
    X=              4.2887    Y=              1.6992    Z=              0.7775  Tot=              4.6781
 Quadrupole moment (field-independent basis, Debye-Ang):
   XX=           -520.6761   YY=           -541.5880   ZZ=           -456.5397
   XY=            -21.6560   XZ=             64.4078   YZ=             37.8433

 Normal termination of Gaussian 16 at Sat Sep 11 20:48:34 2021.
