 Gaussian 16, Revision A.03,
 Gaussian 16:  ES64L-G16RevA.03 25-Dec-2016

 -----------------------------------
 #p cam-b3lyp/Def2SVP td=(nstates=5)
 -----------------------------------

 --------------------------------
 TDDFT excited states in gaussian
 --------------------------------
 Symbolic Z-matrix:
 Charge =  0 Multiplicity = 1

                         Standard orientation:
 ---------------------------------------------------------------------
 Center     Atomic      Atomic             Coordinates (Angstroms)
 Number     Number       Type             X           Y           Z
 ---------------------------------------------------------------------
      1         12           0        3.440496   -1.469778    0.426109
      2          6           0        4.486822    1.523122   -1.235206
      3          6           0        4.370405    0.009396    3.357043
      4          6           0        2.951586   -4.255256    1.860927
      5          6           0        3.666206   -3.083016   -2.654830
      6          7           0        4.304259    0.518468    0.874924
      7          6           0        4.601533    1.595631    0.154841
      8          6           0        4.974785    2.834898    1.022177
      9          6           0        5.446304    2.082542    2.346423
     10          6           0        4.632627    0.808278    2.204629
     11          6           0        6.928245    1.721501    2.347177
     12          6           0        3.742512    3.760931    1.297312
     13          6           0        4.078598    5.147848    1.853065
     14          1           0        3.266291    6.282837    1.441596
     15          7           0        3.169556   -1.897146    2.335768
     16          6           0        3.602059   -1.174217    3.396711
     17          6           0        3.150978   -1.906188    4.599801
     18          6           0        2.586398   -3.210255    4.153987
     19          6           0        2.907956   -3.183893    2.749963
     20          6           0        3.231855   -1.341683    5.984916
     21          6           0        1.879956   -4.310921    4.880351
     22          8           0        1.679581   -5.456829    4.349956
     23          6           0        1.502017   -4.038317    6.278883
     24          7           0        3.534957   -3.445995   -0.239684
     25          6           0        3.219576   -4.462778    0.570051
     26          6           0        3.085304   -5.747121   -0.193084
     27          6           0        3.136828   -5.350280   -1.738922
     28          6           0        3.387788   -3.829984   -1.584040
     29          6           0        4.152076   -6.812162    0.096216
     30          6           0        1.953826   -5.816122   -2.624313
     31          6           0        0.690840   -5.091277   -2.216192
     32          7           0        3.804330   -0.876599   -1.629812
     33          6           0        3.876677   -1.717526   -2.749759
     34          6           0        4.249033   -0.873761   -3.900186
     35          6           0        4.384508    0.404849   -3.362927
     36          6           0        4.139600    0.357810   -1.960750
     37          6           0        4.474832   -1.329077   -5.229146
     38          6           0        4.703301    1.795472   -3.642918
     39          8           0        4.903558    2.449968   -4.667137
     40          6           0        4.901632    2.553046   -2.256349
     41          6           0        4.115890    3.834298   -2.322005
     42          8           0        2.869081    3.818248   -2.372750
     43          8           0        4.932988    4.869960   -2.076446
     44          6           0        4.210249    6.169714   -2.097433
     45          1           0        4.842481    0.278076    4.304089
     46          1           0        2.679586   -5.219367    2.295603
     47          1           0        3.672543   -3.501745   -3.662837
     48          1           0        5.791873    3.437787    0.625545
     49          1           0        5.152685    2.621385    3.247067
     50          1           0        7.388696    1.926350    1.380770
     51          1           0        6.967858    0.654929    2.569320
     52          1           0        7.447445    2.217890    3.167425
     53          1           0        3.170833    3.359348    2.133957
     54          1           0        3.133897    3.870278    0.399005
     55          1           0        5.138840    5.376147    1.740481
     56          1           0        3.917904    5.131948    2.931084
     57          1           0        3.842454   -0.440121    6.014938
     58          1           0        3.781144   -2.062059    6.590762
     59          1           0        2.245603   -1.173517    6.417767
     60          1           0        2.397641   -3.803652    6.854505
     61          1           0        0.928343   -4.903463    6.609444
     62          1           0        0.876293   -3.145809    6.307991
     63          1           0        2.132918   -6.230853    0.019967
     64          1           0        4.017578   -5.756979   -2.236465
     65          1           0        3.740374   -7.764823    0.430347
     66          1           0        4.843635   -6.404965    0.833257
     67          1           0        4.822759   -7.025139   -0.735795
     68          1           0        1.771887   -6.881137   -2.484363
     69          1           0        2.118916   -5.644847   -3.688108
     70          1           0        0.331658   -5.682923   -1.374898
     71          1           0       -0.031320   -5.095878   -3.033305
     72          1           0        0.909262   -4.091086   -1.841497
     73          1           0        3.983085   -0.611002   -5.885289
     74          1           0        4.080407   -2.334342   -5.375686
     75          1           0        5.563447   -1.297402   -5.271226
     76          1           0        5.970644    2.733499   -2.147847
     77          1           0        4.715258    6.806093   -2.824222
     78          1           0        4.166706    6.516765   -1.064929
     79          1           0        3.199336    6.152585   -2.506213
     80         12           0       -4.271242    0.257780   -0.370244
     81          6           0       -1.353754    2.269388    0.196152
     82          6           0       -6.035388    2.585954    1.391004
     83          6           0       -6.762581   -1.704871   -0.462880
     84          6           0       -2.131129   -2.403672   -1.064714
     85          7           0       -3.661697    2.141523    0.615779
     86          6           0       -2.537881    2.835833    0.712314
     87          6           0       -2.706618    4.250176    1.329336
     88          6           0       -4.054952    3.990005    2.161908
     89          6           0       -4.645735    2.858633    1.323068
     90          6           0       -3.803691    3.463252    3.565027
     91          6           0       -2.910623    5.358257    0.237303
     92          6           0       -2.773178    6.795101    0.745568
     93          1           0       -2.179599    7.792930   -0.140138
     94          7           0       -6.201416    0.618105   -0.081903
     95          6           0       -6.742878    1.620023    0.642168
     96          6           0       -8.199869    1.434347    0.559411
     97          6           0       -8.469893    0.146484   -0.135727
     98          6           0       -7.125553   -0.385017   -0.237554
     99          6           0       -9.180068    2.465033    1.039348
    100          6           0       -9.730896   -0.505459   -0.616379
    101          8           0       -9.757104   -1.734023   -0.980788
    102          6           0      -10.953144    0.309630   -0.559543
    103          7           0       -4.432499   -1.810521   -0.506013
    104          6           0       -5.635336   -2.406696   -0.581424
    105          6           0       -5.499250   -3.864983   -0.949224
    106          6           0       -3.962624   -4.067022   -1.343590
    107          6           0       -3.433946   -2.648729   -1.036415
    108          6           0       -5.879893   -4.864732    0.142559
    109          6           0       -3.669190   -4.678680   -2.740890
    110          6           0       -4.083191   -3.710313   -3.825438
    111          7           0       -2.140084   -0.001974   -0.612675
    112          6           0       -1.452069   -1.206861   -0.875279
    113          6           0       -0.007434   -0.899964   -0.839603
    114          6           0        0.045677    0.468250   -0.533548
    115          6           0       -1.272244    0.973650   -0.368796
    116          6           0        1.047093   -1.837873   -1.025148
    117          6           0        0.917282    1.597567   -0.301917
    118          8           0        2.128822    1.792439   -0.390900
    119          6           0        0.054015    2.785963    0.305427
    120          6           0        0.399627    4.042306   -0.446039
    121          8           0        0.120636    4.153962   -1.652813
    122          8           0        0.802366    4.982167    0.428509
    123          6           0        1.145753    6.250483   -0.268112
    124          1           0       -6.636794    3.134148    2.116742
    125          1           0       -7.589921   -2.402407   -0.612661
    126          1           0       -1.401705   -3.157928   -1.367570
    127          1           0       -1.909309    4.552244    1.997788
    128          1           0       -4.706047    4.860070    2.141217
    129          1           0       -2.760509    3.238161    3.730061
    130          1           0       -4.402938    2.566615    3.654332
    131          1           0       -4.197388    4.163987    4.306855
    132          1           0       -3.964104    5.367860   -0.070640
    133          1           0       -2.247470    5.203128   -0.591427
    134          1           0       -2.309679    6.838463    1.738661
    135          1           0       -3.773948    7.206241    0.898700
    136          1           0       -8.690127    3.231127    1.652907
    137          1           0       -9.863073    1.959371    1.730485
    138          1           0       -9.761553    2.904263    0.225946
    139          1           0      -11.128185    0.627033    0.465673
    140          1           0      -11.730916   -0.296925   -1.027560
    141          1           0      -10.794156    1.220103   -1.148087
    142          1           0       -6.116597   -4.107061   -1.805607
    143          1           0       -3.450471   -4.750287   -0.650280
    144          1           0       -6.668400   -5.574559   -0.171263
    145          1           0       -6.192877   -4.311398    1.018006
    146          1           0       -5.056047   -5.462204    0.529225
    147          1           0       -4.262603   -5.584081   -2.890156
    148          1           0       -2.628244   -4.948603   -2.884286
    149          1           0       -5.156152   -3.898388   -3.927777
    150          1           0       -3.554785   -3.924406   -4.752262
    151          1           0       -3.960553   -2.672562   -3.494259
    152          1           0        1.775482   -1.363932   -1.669610
    153          1           0        0.680857   -2.768098   -1.454461
    154          1           0        1.378752   -1.965511    0.008766
    155          1           0        0.300753    2.861786    1.365117
    156          1           0        2.171389    6.504140    0.017211
    157          1           0        0.352692    6.969172    0.011670
    158          1           0        1.227485    6.222705   -1.348393
 ---------------------------------------------------------------------

 SCF Done:  E(RCAM-B3LYP) =  -4069.77648791     A.U. after   19 cycles

 Excitation energies and oscillator strengths:

 Excited State   1:      Singlet-A      1.6284 eV  761.37 nm  f=0.3593  <S**2>=0.000
     309 -> 315        0.12220
     310 -> 316       -0.10711
     311 -> 313        0.51747
     312 -> 314       -0.45075
 This state for optimization and/or second-order correction.
 Total Energy, E(TD-HF/TD-DFT) =  -4069.71664364
 Copying the excited state density for this state as the 1-particle RhoCI density.

 Excited State   2:      Singlet-A      1.6673 eV  743.61 nm  f=0.4369  <S**2>=0.000
     309 -> 315        0.11004
     310 -> 316        0.12518
     311 -> 313        0.42063
     312 -> 313        0.26862
     312 -> 314        0.46495

 Excited State   3:      Singlet-A      1.8599 eV  666.62 nm  f=0.0195  <S**2>=0.000
     311 -> 313       -0.15385
     312 -> 313        0.64102
     312 -> 314       -0.21358

 Excited State   4:      Singlet-A      2.0936 eV  592.22 nm  f=0.0356  <S**2>=0.000
     309 -> 313       -0.18435
     310 -> 313        0.19322
     310 -> 314        0.59433
     312 -> 316       -0.21150

 Excited State   5:      Singlet-A      2.1718 eV  570.87 nm  f=0.1275  <S**2>=0.000
     309 -> 313        0.61536
     310 -> 314        0.17989
     311 -> 315       -0.25138

 The electronic state is 1-A.
 Alpha  occ. eigenvalues --  -46.87794 -46.86579 -19.26306 -19.25698 -19.18865
 Alpha  occ. eigenvalues --  -19.18613 -19.18602 -19.18086 -19.18040 -19.17362
 Alpha  occ. eigenvalues --  -14.42634 -14.41471 -14.41142 -14.40193 -14.39512
 Alpha  occ. eigenvalues --  -14.38766 -14.38312 -14.37267 -10.38693 -10.38121
 Alpha  occ. eigenvalues --  -10.35537 -10.34696 -10.34644 -10.33536 -10.31617
 Alpha  occ. eigenvalues --  -10.31613 -10.31505 -10.31128 -10.30598 -10.30584
 Alpha  occ. eigenvalues --  -10.30193 -10.30181 -10.30054 -10.29622 -10.29573
 Alpha  occ. eigenvalues --  -10.29521 -10.29434 -10.29421 -10.29392 -10.28986
 Alpha  occ. eigenvalues --  -10.28824 -10.28713 -10.28631 -10.28580 -10.28403
 Alpha  occ. eigenvalues --  -10.28281 -10.28162 -10.27833 -10.27678 -10.27667
 Alpha  occ. eigenvalues --  -10.27622 -10.27605 -10.27529 -10.27505 -10.27408
 Alpha  occ. eigenvalues --  -10.27242 -10.27093 -10.27075 -10.27026 -10.26925
 Alpha  occ. eigenvalues --  -10.26899 -10.26756 -10.26722 -10.26710 -10.26593
 Alpha  occ. eigenvalues --  -10.26531 -10.26204 -10.26196 -10.26179 -10.26171
 Alpha  occ. eigenvalues --  -10.26125 -10.26015 -10.25974 -10.25832 -10.25380
 Alpha  occ. eigenvalues --  -10.25316 -10.25241 -10.25203 -10.25183 -10.25164
 Alpha  occ. eigenvalues --  -10.25016 -10.24946 -10.24837 -10.24741 -10.23941
 Alpha  occ. eigenvalues --  -10.23790  -3.16542  -3.15333  -1.91424  -1.91013
 Alpha  occ. eigenvalues --   -1.90852  -1.90228  -1.89794  -1.89649  -1.16458
 Alpha  occ. eigenvalues --   -1.15993  -1.09511  -1.07805  -1.07111  -1.06477
 Alpha  occ. eigenvalues --   -1.06465  -1.05759  -1.04643  -1.03816  -1.03378
 Alpha  occ. eigenvalues --   -1.03181  -1.02667  -1.02273  -1.02251  -1.01402
 Alpha  occ. eigenvalues --   -0.92155  -0.90970  -0.89584  -0.89280  -0.89018
 Alpha  occ. eigenvalues --   -0.88398  -0.88279  -0.88034  -0.87811  -0.87624
 Alpha  occ. eigenvalues --   -0.87296  -0.87018  -0.86663  -0.86406  -0.85129
 Alpha  occ. eigenvalues --   -0.84023  -0.83925  -0.83577  -0.83049  -0.82770
 Alpha  occ. eigenvalues --   -0.82328  -0.81901  -0.81724  -0.80912  -0.80600
 Alpha  occ. eigenvalues --   -0.79723  -0.78931  -0.77914  -0.77403  -0.77017
 Alpha  occ. eigenvalues --   -0.76629  -0.76154  -0.75901  -0.75143  -0.74887
 Alpha  occ. eigenvalues --   -0.74273  -0.73041  -0.71903  -0.71717  -0.70790
 Alpha  occ. eigenvalues --   -0.69892  -0.69683  -0.68984  -0.67997  -0.67824
 Alpha  occ. eigenvalues --   -0.67332  -0.66807  -0.66240  -0.65421  -0.64920
 Alpha  occ. eigenvalues --   -0.64765  -0.64537  -0.64262  -0.64035  -0.63937
 Alpha  occ. eigenvalues --   -0.63424  -0.62363  -0.61632  -0.60512  -0.60083
 Alpha  occ. eigenvalues --   -0.59653  -0.59227  -0.58931  -0.58495  -0.58223
 Alpha  occ. eigenvalues --   -0.57970  -0.57630  -0.57377  -0.57013  -0.56667
 Alpha  occ. eigenvalues --   -0.56465  -0.56360  -0.55868  -0.55549  -0.55426
 Alpha  occ. eigenvalues --   -0.55174  -0.54788  -0.54692  -0.54552  -0.54154
 Alpha  occ. eigenvalues --   -0.54065  -0.53783  -0.53380  -0.53237  -0.52995
 Alpha  occ. eigenvalues --   -0.52860  -0.52803  -0.52674  -0.52493  -0.52371
 Alpha  occ. eigenvalues --   -0.52278  -0.52197  -0.52044  -0.51697  -0.51677
 Alpha  occ. eigenvalues --   -0.51078  -0.50779  -0.50620  -0.50549  -0.50258
 Alpha  occ. eigenvalues --   -0.50075  -0.49915  -0.49793  -0.49700  -0.49498
 Alpha  occ. eigenvalues --   -0.49434  -0.49139  -0.49000  -0.48786  -0.48618
 Alpha  occ. eigenvalues --   -0.48361  -0.48305  -0.48168  -0.48071  -0.47840
 Alpha  occ. eigenvalues --   -0.47754  -0.47606  -0.47578  -0.47064  -0.46958
 Alpha  occ. eigenvalues --   -0.46848  -0.46657  -0.46613  -0.46197  -0.46179
 Alpha  occ. eigenvalues --   -0.45952  -0.45731  -0.45411  -0.45318  -0.45282
 Alpha  occ. eigenvalues --   -0.45106  -0.44765  -0.44576  -0.44481  -0.44429
 Alpha  occ. eigenvalues --   -0.44183  -0.44102  -0.43826  -0.43613  -0.43463
 Alpha  occ. eigenvalues --   -0.43409  -0.43346  -0.43211  -0.43121  -0.42943
 Alpha  occ. eigenvalues --   -0.42745  -0.42658  -0.42570  -0.42354  -0.42181
 Alpha  occ. eigenvalues --   -0.42035  -0.41944  -0.41876  -0.41687  -0.41458
 Alpha  occ. eigenvalues --   -0.41243  -0.41035  -0.40845  -0.40815  -0.40640
 Alpha  occ. eigenvalues --   -0.40503  -0.40436  -0.40312  -0.40120  -0.40044
 Alpha  occ. eigenvalues --   -0.39914  -0.39536  -0.39470  -0.39264  -0.38936
 Alpha  occ. eigenvalues --   -0.38394  -0.37767  -0.37720  -0.37333  -0.37317
 Alpha  occ. eigenvalues --   -0.37017  -0.36478  -0.36362  -0.36305  -0.35993
 Alpha  occ. eigenvalues --   -0.35733  -0.35122  -0.34407  -0.33629  -0.33238
 Alpha  occ. eigenvalues --   -0.33084  -0.32704  -0.32168  -0.31410  -0.31088
 Alpha  occ. eigenvalues --   -0.30733  -0.30550  -0.29631  -0.29460  -0.29341
 Alpha  occ. eigenvalues --   -0.29155  -0.28474  -0.28285  -0.24158  -0.22651
 Alpha  occ. eigenvalues --   -0.21289  -0.20120
 Alpha virt. eigenvalues --   -0.09031  -0.07726  -0.01823  -0.01015  -0.00228
 Alpha virt. eigenvalues --    0.00788   0.01990   0.03012   0.03168   0.04590
 Alpha virt. eigenvalues --    0.05081   0.05669   0.05859   0.06198   0.06512

 Mulliken charges:
               1
     1  Mg   0.601162
     2  C    0.076335
     3  C   -0.097379
     4  C   -0.049648
     5  C   -0.068703
     6  N   -0.240969
     7  C   -0.030380
     8  C   -0.020205
     9  C   -0.082430
    10  C    0.048356
    11  C    0.107050
    12  C    0.052753
    13  C   -0.066130
    14  H    0.022361
    15  N   -0.418058
    16  C    0.167850
    17  C   -0.180193
    18  C   -0.007250
    19  C    0.150047
    20  C    0.111379
    21  C    0.009722
    22  O   -0.253694
    23  C    0.063696
    24  N   -0.320604
    25  C    0.040039
    26  C   -0.024267
    27  C   -0.023840
    28  C    0.062853
    29  C    0.077951
    30  C    0.062103
    31  C    0.003021
    32  N   -0.324368
    33  C    0.064721
    34  C   -0.168310
    35  C    0.011317
    36  C    0.074194
    37  C    0.128270
    38  C    0.050331
    39  O   -0.189727
    40  C   -0.021749
    41  C    0.210724
    42  O   -0.240141
    43  O   -0.306172
    44  C    0.152584
    45  H   -0.021983
    46  H   -0.021750
    47  H   -0.050104
    48  H   -0.007815
    49  H   -0.009250
    50  H    0.023930
    51  H    0.014925
    52  H    0.012221
    53  H    0.004924
    54  H    0.056039
    55  H    0.013781
    56  H    0.012656
    57  H    0.004147
    58  H    0.024039
    59  H    0.035259
    60  H    0.036423
    61  H    0.032454
    62  H    0.029443
    63  H    0.011110
    64  H    0.008349
    65  H    0.020426
    66  H    0.013811
    67  H    0.002961
    68  H    0.003791
    69  H    0.002817
    70  H    0.010069
    71  H    0.028933
    72  H   -0.005727
    73  H    0.045665
    74  H    0.005851
    75  H    0.044241
    76  H    0.031363
    77  H    0.041512
    78  H    0.048596
    79  H    0.052653
    80  Mg   0.841233
    81  C   -0.019692
    82  C   -0.087949
    83  C   -0.045821
    84  C   -0.063822
    85  N   -0.254750
    86  C   -0.052848
    87  C   -0.014794
    88  C   -0.090528
    89  C    0.046868
    90  C    0.114466
    91  C    0.062790
    92  C   -0.077555
    93  H    0.035343
    94  N   -0.423705
    95  C    0.164188
    96  C   -0.174017
    97  C   -0.007083
    98  C    0.153002
    99  C    0.099188
   100  C    0.016130
   101  O   -0.252162
   102  C    0.060954
   103  N   -0.349715
   104  C    0.039956
   105  C   -0.020923
   106  C   -0.033424
   107  C    0.086888
   108  C    0.072980
   109  C    0.034288
   110  C   -0.007049
   111  N   -0.323863
   112  C    0.077779
   113  C   -0.160756
   114  C    0.012387
   115  C    0.101039
   116  C    0.175856
   117  C    0.079395
   118  O   -0.182787
   119  C    0.012490
   120  C    0.218378
   121  O   -0.227568
   122  O   -0.315737
   123  C    0.169357
   124  H   -0.019369
   125  H   -0.014761
   126  H   -0.045315
   127  H   -0.001647
   128  H   -0.003971
   129  H    0.021717
   130  H    0.014623
   131  H    0.016247
   132  H    0.013719
   133  H    0.040488
   134  H    0.019623
   135  H    0.019304
   136  H    0.009157
   137  H    0.026777
   138  H    0.040635
   139  H    0.038388
   140  H    0.037044
   141  H    0.034241
   142  H    0.014538
   143  H    0.015720
   144  H    0.025161
   145  H    0.011638
   146  H    0.008190
   147  H    0.005638
   148  H    0.001810
   149  H    0.010900
   150  H    0.016833
   151  H    0.030157
   152  H    0.114841
   153  H   -0.030912
   154  H    0.129071
   155  H    0.029504
   156  H    0.007640
   157  H    0.045282
   158  H    0.058325
 Sum of Mulliken charges =  -0.00000

 Dipole moment (field-independent basis, Debye):
    X=             -2.8372    Y=              3.2153    Z=              5.6066  Tot=              7.0584
 Quadrupole moment (field-independent basis, Debye-Ang):
   XX=           -502.4321   YY=           -481.2691   ZZ=           -511.4350
   XY=            -25.4985   XZ=              7.2249   YZ=             45.9523

 Normal termination of Gaussian 16 at Thu Sep  9 02:10:45 2021.
