 Gaussian 16, Revision A.03,
 Gaussian 16:  ES64L-G16RevA.03 25-Dec-2016

 -----------------------------------
 #p cam-b3lyp/Def2SVP td=(nstates=5)
 -----------------------------------

 --------------------------------
 TDDFT excited states in gaussian
 --------------------------------
 Symbolic Z-matrix:
 Charge =  0 Multiplicity = 1

                         Standard orientation:
 ---------------------------------------------------------------------
 Center     Atomic      Atomic             Coordinates (Angstroms)
 Number     Number       Type             X           Y           Z
 ---------------------------------------------------------------------
      1         12           0        4.566052   -0.507245    0.957878
      2          6           0        5.081446    2.470279   -0.960699
      3          6           0        4.808006    1.431638    3.755245
      4          6           0        4.567831   -3.173997    2.673992
      5          6           0        5.489266   -2.315481   -1.874721
      6          7           0        4.901094    1.663637    1.232953
      7          6           0        5.023269    2.704379    0.414968
      8          6           0        5.007757    4.075998    1.153746
      9          6           0        5.489383    3.591458    2.594321
     10          6           0        5.006950    2.152610    2.540481
     11          6           0        7.005300    3.595248    2.763090
     12          6           0        3.574829    4.704696    1.210227
     13          6           0        3.524057    6.179493    1.619799
     14          1           0        2.525498    7.042479    1.007032
     15          7           0        4.191118   -0.796809    2.875801
     16          6           0        4.328918    0.109020    3.873684
     17          6           0        3.926462   -0.587245    5.114621
     18          6           0        3.725239   -2.025534    4.784580
     19          6           0        4.184661   -2.061674    3.419661
     20          6           0        3.724367    0.113731    6.422879
     21          6           0        3.211774   -3.185719    5.577333
     22          8           0        3.336357   -4.392849    5.174975
     23          6           0        2.630511   -2.874646    6.895820
     24          7           0        5.179352   -2.459865    0.547058
     25          6           0        5.016096   -3.437751    1.444871
     26          6           0        5.261646   -4.785817    0.834656
     27          6           0        5.391222   -4.542165   -0.738111
     28          6           0        5.271830   -2.998173   -0.748346
     29          6           0        6.503981   -5.532688    1.339433
     30          6           0        4.449529   -5.360863   -1.656461
     31          6           0        3.017955   -4.920795   -1.446613
     32          7           0        5.009293   -0.049745   -1.117038
     33          6           0        5.393293   -0.955284   -2.116646
     34          6           0        5.688399   -0.164543   -3.325658
     35          6           0        5.470129    1.156050   -2.938052
     36          6           0        5.089775    1.190264   -1.566027
     37          6           0        6.156289   -0.681522   -4.565918
     38          6           0        5.493598    2.548099   -3.356985
     39          8           0        5.651283    3.127421   -4.432631
     40          6           0        5.361158    3.463723   -2.060869
     41          6           0        4.317100    4.508381   -2.347124
     42          8           0        3.119831    4.191237   -2.499875
     43          8           0        4.845624    5.727691   -2.161417
     44          6           0        3.853423    6.809611   -2.400455
     45          1           0        5.099760    1.896741    4.698908
     46          1           0        4.475797   -4.127563    3.198092
     47          1           0        5.701223   -2.817747   -2.820372
     48          1           0        5.705095    4.813948    0.756791
     49          1           0        4.983956    4.130878    3.395128
     50          1           0        7.510516    3.807673    1.820990
     51          1           0        7.261417    2.595908    3.115532
     52          1           0        7.304878    4.279123    3.557662
     53          1           0        3.020911    4.262940    2.038531
     54          1           0        3.059756    4.577185    0.257459
     55          1           0        4.510540    6.641275    1.569617
     56          1           0        3.253736    6.231945    2.674491
     57          1           0        4.107200    1.133129    6.394367
     58          1           0        4.352911   -0.392074    7.155547
     59          1           0        2.684270    0.084158    6.747925
     60          1           0        3.380645   -2.378178    7.511748
     61          1           0        2.235524   -3.814599    7.279649
     62          1           0        1.819158   -2.158235    6.763872
     63          1           0        4.426497   -5.458877    1.024239
     64          1           0        6.390501   -4.774549   -1.107044
     65          1           0        6.285209   -6.518318    1.750988
     66          1           0        6.999737   -4.902176    2.076976
     67          1           0        7.292743   -5.660764    0.598576
     68          1           0        4.499936   -6.419496   -1.404073
     69          1           0        4.687259   -5.260733   -2.715569
     70          1           0        2.712310   -5.495193   -0.572839
     71          1           0        2.409964   -5.177440   -2.314767
     72          1           0        2.961032   -3.865494   -1.179061
     73          1           0        5.589474   -0.169197   -5.343230
     74          1           0        6.018988   -1.761157   -4.621948
     75          1           0        7.207129   -0.396050   -4.520132
     76          1           0        6.342702    3.903107   -1.885842
     77          1           0        4.277442    7.473194   -3.154180
     78          1           0        3.619048    7.236174   -1.424998
     79          1           0        2.924001    6.512329   -2.887423
     80         12           0       -4.225512   -0.785777   -0.892548
     81          6           0       -6.649221    1.445257    0.531235
     82          6           0       -2.802129    1.940861   -2.367016
     83          6           0       -2.353722   -2.765837   -2.518346
     84          6           0       -6.457943   -3.387769   -0.266805
     85          7           0       -4.748969    1.362762   -0.847643
     86          6           0       -5.653988    2.101076   -0.222993
     87          6           0       -5.435158    3.632413   -0.352102
     88          6           0       -4.583963    3.639727   -1.713826
     89          6           0       -3.974311    2.241965   -1.628485
     90          6           0       -5.447046    3.708929   -2.962684
     91          6           0       -4.608975    4.221167    0.844896
     92          6           0       -4.621197    5.748095    0.945302
     93          1           0       -4.615744    6.358461    2.271904
     94          7           0       -2.514572   -0.448472   -1.839913
     95          6           0       -2.085982    0.723787   -2.353126
     96          6           0       -0.778247    0.441058   -2.964748
     97          6           0       -0.544990   -1.027903   -2.915232
     98          6           0       -1.832695   -1.483098   -2.430773
     99          6           0        0.144028    1.521724   -3.449514
    100          6           0        0.636657   -1.882721   -3.260482
    101          8           0        0.538369   -3.156261   -3.366625
    102          6           0        1.890604   -1.176938   -3.562113
    103          7           0       -4.464054   -2.752152   -1.524049
    104          6           0       -3.474950   -3.396263   -2.168032
    105          6           0       -3.766842   -4.873834   -2.277423
    106          6           0       -5.049388   -5.127735   -1.356438
    107          6           0       -5.343535   -3.673956   -0.925861
    108          6           0       -4.042169   -5.394916   -3.687761
    109          6           0       -4.919822   -6.213521   -0.253280
    110          6           0       -3.936179   -5.762092    0.802209
    111          7           0       -6.113971   -1.001749    0.134636
    112          6           0       -6.890403   -2.175134    0.254603
    113          6           0       -8.143842   -1.799564    0.940377
    114          6           0       -8.018632   -0.418395    1.152925
    115          6           0       -6.783824    0.038462    0.618105
    116          6           0       -9.223956   -2.677256    1.238898
    117          6           0       -8.654966    0.758875    1.698656
    118          8           0       -9.674787    0.970458    2.353588
    119          6           0       -7.852826    2.040320    1.207888
    120          6           0       -7.619324    2.926963    2.400303
    121          8           0       -6.892033    2.549539    3.335820
    122          8           0       -8.112811    4.151773    2.142043
    123          6           0       -7.895319    5.070463    3.291180
    124          1           0       -2.415447    2.692533   -3.055750
    125          1           0       -1.697193   -3.511400   -2.972859
    126          1           0       -7.161919   -4.159296    0.052325
    127          1           0       -6.341958    4.211909   -0.477334
    128          1           0       -3.805230    4.397546   -1.688783
    129          1           0       -6.498266    3.622315   -2.731228
    130          1           0       -5.127894    2.884570   -3.586878
    131          1           0       -5.221886    4.618690   -3.526563
    132          1           0       -3.540272    4.053649    0.659014
    133          1           0       -4.930179    3.795259    1.775514
    134          1           0       -5.402511    6.196097    0.319357
    135          1           0       -3.688285    6.131014    0.524499
    136          1           0       -0.367040    2.490676   -3.507423
    137          1           0        0.395697    1.284836   -4.488944
    138          1           0        1.066104    1.581046   -2.867345
    139          1           0        1.731563   -0.499109   -4.397403
    140          1           0        2.640661   -1.958612   -3.697330
    141          1           0        2.158889   -0.556328   -2.699865
    142          1           0       -2.939590   -5.460624   -1.897386
    143          1           0       -5.915211   -5.461934   -1.946773
    144          1           0       -3.361876   -6.212881   -3.991408
    145          1           0       -3.970936   -4.565013   -4.378225
    146          1           0       -5.056621   -5.751154   -3.858607
    147          1           0       -4.518469   -7.137547   -0.676652
    148          1           0       -5.862966   -6.460398    0.222675
    149          1           0       -2.968445   -6.033539    0.369885
    150          1           0       -4.111369   -6.287489    1.738851
    151          1           0       -3.952676   -4.671830    0.914966
    152          1           0       -9.540764   -2.449121    2.247905
    153          1           0       -8.928114   -3.719631    1.140357
    154          1           0       -9.937454   -2.378275    0.466372
    155          1           0       -8.456486    2.532005    0.444070
    156          1           0       -8.875038    5.470239    3.570491
    157          1           0       -7.132719    5.796856    2.952757
    158          1           0       -7.570469    4.633097    4.228004
 ---------------------------------------------------------------------

 SCF Done:  E(RCAM-B3LYP) =  -4069.81771143     A.U. after   17 cycles

 Excitation energies and oscillator strengths:

 Excited State   1:      Singlet-A      1.6374 eV  757.20 nm  f=0.1712  <S**2>=0.000
     309 -> 315       -0.11767
     310 -> 316       -0.11579
     311 -> 313        0.48697
     312 -> 314       -0.48507
 This state for optimization and/or second-order correction.
 Total Energy, E(TD-HF/TD-DFT) =  -4069.75753775
 Copying the excited state density for this state as the 1-particle RhoCI density.

 Excited State   2:      Singlet-A      1.7046 eV  727.35 nm  f=0.5775  <S**2>=0.000
     309 -> 315       -0.12954
     310 -> 316        0.12744
     311 -> 313        0.48269
     312 -> 314        0.48501

 Excited State   3:      Singlet-A      2.1866 eV  567.02 nm  f=0.0042  <S**2>=0.000
     309 -> 313       -0.40539
     310 -> 314        0.50041
     311 -> 315       -0.16976
     312 -> 316       -0.21154

 Excited State   4:      Singlet-A      2.1999 eV  563.60 nm  f=0.1679  <S**2>=0.000
     309 -> 313        0.49693
     310 -> 314        0.40081
     311 -> 315        0.22007
     312 -> 316       -0.17662

 Excited State   5:      Singlet-A      2.2926 eV  540.80 nm  f=0.0000  <S**2>=0.000
     312 -> 313        0.70609

 The electronic state is 1-A.
 Alpha  occ. eigenvalues --  -46.88004 -46.87337 -19.26867 -19.26199 -19.19768
 Alpha  occ. eigenvalues --  -19.18991 -19.18917 -19.18516 -19.18446 -19.17756
 Alpha  occ. eigenvalues --  -14.42664 -14.42180 -14.41588 -14.41032 -14.39591
 Alpha  occ. eigenvalues --  -14.39015 -14.38900 -14.38274 -10.39720 -10.38913
 Alpha  occ. eigenvalues --  -10.35542 -10.35009 -10.34751 -10.33943 -10.32214
 Alpha  occ. eigenvalues --  -10.31662 -10.31655 -10.31138 -10.30995 -10.30817
 Alpha  occ. eigenvalues --  -10.30711 -10.30662 -10.30266 -10.30102 -10.30063
 Alpha  occ. eigenvalues --  -10.30000 -10.29847 -10.29782 -10.29634 -10.29440
 Alpha  occ. eigenvalues --  -10.29044 -10.29021 -10.28994 -10.28861 -10.28650
 Alpha  occ. eigenvalues --  -10.28519 -10.28451 -10.28356 -10.28041 -10.28031
 Alpha  occ. eigenvalues --  -10.27924 -10.27844 -10.27779 -10.27662 -10.27626
 Alpha  occ. eigenvalues --  -10.27592 -10.27553 -10.27348 -10.27299 -10.27297
 Alpha  occ. eigenvalues --  -10.27259 -10.27169 -10.27146 -10.27034 -10.27033
 Alpha  occ. eigenvalues --  -10.26794 -10.26487 -10.26443 -10.26434 -10.26219
 Alpha  occ. eigenvalues --  -10.26138 -10.26059 -10.25909 -10.25742 -10.25635
 Alpha  occ. eigenvalues --  -10.25612 -10.25597 -10.25576 -10.25379 -10.25206
 Alpha  occ. eigenvalues --  -10.25127 -10.24945 -10.24524 -10.24500 -10.24383
 Alpha  occ. eigenvalues --  -10.23586  -3.16751  -3.16088  -1.91633  -1.91217
 Alpha  occ. eigenvalues --   -1.91063  -1.90971  -1.90559  -1.90395  -1.17226
 Alpha  occ. eigenvalues --   -1.16487  -1.09005  -1.08382  -1.07312  -1.07310
 Alpha  occ. eigenvalues --   -1.06773  -1.06659  -1.04810  -1.04170  -1.03919
 Alpha  occ. eigenvalues --   -1.03451  -1.03341  -1.02710  -1.02614  -1.01778
 Alpha  occ. eigenvalues --   -0.92260  -0.91676  -0.89540  -0.89397  -0.89197
 Alpha  occ. eigenvalues --   -0.88874  -0.88208  -0.88106  -0.87947  -0.87860
 Alpha  occ. eigenvalues --   -0.87475  -0.87421  -0.87349  -0.86501  -0.85211
 Alpha  occ. eigenvalues --   -0.84708  -0.83862  -0.83620  -0.82959  -0.82794
 Alpha  occ. eigenvalues --   -0.82503  -0.82154  -0.81903  -0.81348  -0.80817
 Alpha  occ. eigenvalues --   -0.80127  -0.78969  -0.78121  -0.77364  -0.77097
 Alpha  occ. eigenvalues --   -0.76769  -0.76648  -0.76150  -0.75492  -0.74882
 Alpha  occ. eigenvalues --   -0.74501  -0.72945  -0.72347  -0.71855  -0.71278
 Alpha  occ. eigenvalues --   -0.69592  -0.69489  -0.69064  -0.68508  -0.67855
 Alpha  occ. eigenvalues --   -0.67443  -0.67281  -0.66851  -0.65540  -0.65115
 Alpha  occ. eigenvalues --   -0.64990  -0.64788  -0.64472  -0.64375  -0.64174
 Alpha  occ. eigenvalues --   -0.63920  -0.62614  -0.62041  -0.60559  -0.60045
 Alpha  occ. eigenvalues --   -0.59851  -0.59490  -0.59180  -0.58712  -0.58684
 Alpha  occ. eigenvalues --   -0.58103  -0.57990  -0.57400  -0.57298  -0.56881
 Alpha  occ. eigenvalues --   -0.56577  -0.56319  -0.55841  -0.55724  -0.55597
 Alpha  occ. eigenvalues --   -0.55483  -0.55068  -0.54968  -0.54591  -0.54253
 Alpha  occ. eigenvalues --   -0.54149  -0.53633  -0.53451  -0.53436  -0.53199
 Alpha  occ. eigenvalues --   -0.52923  -0.52905  -0.52786  -0.52619  -0.52315
 Alpha  occ. eigenvalues --   -0.52144  -0.52010  -0.51957  -0.51848  -0.51592
 Alpha  occ. eigenvalues --   -0.51349  -0.51243  -0.50901  -0.50638  -0.50125
 Alpha  occ. eigenvalues --   -0.49915  -0.49836  -0.49699  -0.49545  -0.49483
 Alpha  occ. eigenvalues --   -0.49347  -0.49310  -0.49081  -0.48887  -0.48830
 Alpha  occ. eigenvalues --   -0.48758  -0.48633  -0.48475  -0.48256  -0.48114
 Alpha  occ. eigenvalues --   -0.47903  -0.47823  -0.47455  -0.47187  -0.46928
 Alpha  occ. eigenvalues --   -0.46777  -0.46650  -0.46552  -0.46396  -0.46274
 Alpha  occ. eigenvalues --   -0.46219  -0.46120  -0.45876  -0.45743  -0.45571
 Alpha  occ. eigenvalues --   -0.45171  -0.44923  -0.44849  -0.44624  -0.44386
 Alpha  occ. eigenvalues --   -0.44233  -0.44225  -0.44164  -0.44046  -0.43829
 Alpha  occ. eigenvalues --   -0.43764  -0.43741  -0.43472  -0.43434  -0.43313
 Alpha  occ. eigenvalues --   -0.43222  -0.43127  -0.43075  -0.42701  -0.42581
 Alpha  occ. eigenvalues --   -0.42567  -0.42212  -0.41966  -0.41854  -0.41696
 Alpha  occ. eigenvalues --   -0.41534  -0.41365  -0.41325  -0.41161  -0.41016
 Alpha  occ. eigenvalues --   -0.40935  -0.40684  -0.40492  -0.40430  -0.40391
 Alpha  occ. eigenvalues --   -0.40301  -0.40230  -0.39922  -0.39169  -0.39056
 Alpha  occ. eigenvalues --   -0.38429  -0.38094  -0.38001  -0.37536  -0.37416
 Alpha  occ. eigenvalues --   -0.37320  -0.37161  -0.36975  -0.36872  -0.36582
 Alpha  occ. eigenvalues --   -0.36292  -0.35957  -0.34539  -0.34375  -0.33938
 Alpha  occ. eigenvalues --   -0.33663  -0.33401  -0.32852  -0.31453  -0.31243
 Alpha  occ. eigenvalues --   -0.30920  -0.30657  -0.30388  -0.29698  -0.29673
 Alpha  occ. eigenvalues --   -0.29561  -0.28944  -0.28840  -0.24296  -0.23716
 Alpha  occ. eigenvalues --   -0.21319  -0.20767
 Alpha virt. eigenvalues --   -0.08981  -0.08424  -0.01928  -0.01372  -0.00252
 Alpha virt. eigenvalues --    0.00347   0.01938   0.02503   0.02630   0.03613
 Alpha virt. eigenvalues --    0.04491   0.04517   0.05011   0.05358   0.05877

 Mulliken charges:
               1
     1  Mg   0.835232
     2  C   -0.007729
     3  C   -0.093995
     4  C   -0.044682
     5  C   -0.061056
     6  N   -0.257269
     7  C   -0.053467
     8  C   -0.013974
     9  C   -0.087152
    10  C    0.047158
    11  C    0.104609
    12  C    0.053332
    13  C   -0.071710
    14  H    0.034162
    15  N   -0.433392
    16  C    0.169413
    17  C   -0.176232
    18  C   -0.002840
    19  C    0.149678
    20  C    0.109862
    21  C    0.013363
    22  O   -0.248079
    23  C    0.061931
    24  N   -0.342110
    25  C    0.043675
    26  C   -0.028104
    27  C   -0.023075
    28  C    0.074943
    29  C    0.076251
    30  C    0.032707
    31  C    0.000529
    32  N   -0.309074
    33  C    0.072414
    34  C   -0.169803
    35  C    0.007421
    36  C    0.077235
    37  C    0.128257
    38  C    0.041009
    39  O   -0.189221
    40  C   -0.004580
    41  C    0.216523
    42  O   -0.262030
    43  O   -0.302822
    44  C    0.157744
    45  H   -0.016931
    46  H   -0.015297
    47  H   -0.039425
    48  H    0.000730
    49  H   -0.003406
    50  H    0.025548
    51  H    0.017091
    52  H    0.017348
    53  H    0.012422
    54  H    0.040940
    55  H    0.018574
    56  H    0.019386
    57  H    0.006154
    58  H    0.027635
    59  H    0.041624
    60  H    0.037318
    61  H    0.036800
    62  H    0.032953
    63  H    0.018742
    64  H    0.008303
    65  H    0.023590
    66  H    0.011372
    67  H    0.005047
    68  H    0.003943
    69  H    0.004280
    70  H    0.000604
    71  H    0.034636
    72  H    0.022819
    73  H    0.044861
    74  H    0.011450
    75  H    0.046464
    76  H    0.036379
    77  H    0.044371
    78  H    0.047788
    79  H    0.051188
    80  Mg   0.835881
    81  C   -0.016889
    82  C   -0.084692
    83  C   -0.046412
    84  C   -0.065235
    85  N   -0.254250
    86  C   -0.051312
    87  C   -0.014964
    88  C   -0.090379
    89  C    0.044626
    90  C    0.114393
    91  C    0.062392
    92  C   -0.077032
    93  H    0.032155
    94  N   -0.423668
    95  C    0.161291
    96  C   -0.173599
    97  C   -0.009748
    98  C    0.152894
    99  C    0.100615
   100  C    0.015844
   101  O   -0.257414
   102  C    0.056496
   103  N   -0.350219
   104  C    0.038332
   105  C   -0.019853
   106  C   -0.034326
   107  C    0.088203
   108  C    0.073993
   109  C    0.034988
   110  C   -0.007290
   111  N   -0.323659
   112  C    0.077100
   113  C   -0.164371
   114  C    0.001716
   115  C    0.095053
   116  C    0.131755
   117  C    0.041401
   118  O   -0.189869
   119  C    0.001093
   120  C    0.211172
   121  O   -0.251992
   122  O   -0.305467
   123  C    0.152448
   124  H   -0.017030
   125  H   -0.016893
   126  H   -0.041635
   127  H   -0.001475
   128  H   -0.003366
   129  H    0.021813
   130  H    0.014891
   131  H    0.016217
   132  H    0.014497
   133  H    0.036634
   134  H    0.020722
   135  H    0.019540
   136  H    0.011267
   137  H    0.025579
   138  H    0.056386
   139  H    0.041120
   140  H    0.031183
   141  H    0.047738
   142  H    0.013523
   143  H    0.011667
   144  H    0.023806
   145  H    0.011860
   146  H    0.005350
   147  H    0.005210
   148  H    0.003141
   149  H    0.010674
   150  H    0.017535
   151  H    0.030351
   152  H    0.044770
   153  H    0.007725
   154  H    0.046011
   155  H    0.034462
   156  H    0.043377
   157  H    0.049142
   158  H    0.052654
 Sum of Mulliken charges =  -0.00000

 Dipole moment (field-independent basis, Debye):
    X=              4.0474    Y=              3.1937    Z=              1.3382  Tot=              5.3265
 Quadrupole moment (field-independent basis, Debye-Ang):
   XX=           -541.2378   YY=           -464.7208   ZZ=           -514.8078
   XY=              8.0541   XZ=             45.3026   YZ=             24.3168

 Normal termination of Gaussian 16 at Thu Sep  9 14:34:10 2021.
