 Gaussian 16, Revision A.03,
 Gaussian 16:  ES64L-G16RevA.03 25-Dec-2016

 -----------------------------------
 #p cam-b3lyp/Def2SVP td=(nstates=5)
 -----------------------------------

 --------------------------------
 TDDFT excited states in gaussian
 --------------------------------
 Symbolic Z-matrix:
 Charge =  0 Multiplicity = 1

                         Standard orientation:
 ---------------------------------------------------------------------
 Center     Atomic      Atomic             Coordinates (Angstroms)
 Number     Number       Type             X           Y           Z
 ---------------------------------------------------------------------
      1         12           0        3.908042    1.613698    0.737850
      2          6           0        4.967297   -1.768220    0.235035
      3          6           0        5.092779    2.292737   -2.389188
      4          6           0        3.398177    4.687091    1.330227
      5          6           0        3.859659    0.934747    4.155794
      6          7           0        4.883197    0.339591   -0.787395
      7          6           0        5.177240   -0.953533   -0.879799
      8          6           0        5.659545   -1.377553   -2.299292
      9          6           0        6.185868    0.034966   -2.818689
     10          6           0        5.311318    0.945340   -1.974707
     11          6           0        7.647949    0.303499   -2.477059
     12          6           0        4.488648   -1.915102   -3.189108
     13          6           0        4.919418   -2.649254   -4.462219
     14          1           0        4.130329   -3.783995   -4.917245
     15          7           0        3.746948    3.147018   -0.497394
     16          6           0        4.279337    3.245985   -1.739188
     17          6           0        3.878735    4.574741   -2.249682
     18          6           0        3.231009    5.315377   -1.131646
     19          6           0        3.459232    4.411093   -0.033665
     20          6           0        4.075460    5.003552   -3.671361
     21          6           0        2.528495    6.634347   -1.061479
     22          8           0        2.244908    7.195559    0.051712
     23          6           0        2.256364    7.302900   -2.346790
     24          7           0        3.874193    2.733858    2.499023
     25          6           0        3.570624    4.036379    2.482652
     26          6           0        3.331579    4.558770    3.868258
     27          6           0        3.296863    3.279424    4.823151
     28          6           0        3.621741    2.190651    3.770869
     29          6           0        4.369172    5.560154    4.394224
     30          6           0        2.038888    3.097041    5.708958
     31          6           0        0.837702    2.799852    4.839515
     32          7           0        4.159029   -0.141314    1.990041
     33          6           0        4.120991   -0.189873    3.391066
     34          6           0        4.451354   -1.571939    3.784540
     35          6           0        4.676321   -2.231598    2.577856
     36          6           0        4.523509   -1.313049    1.500263
     37          6           0        4.568712   -2.053237    5.118337
     38          6           0        5.034384   -3.492854    1.949460
     39          8           0        5.193568   -4.646849    2.350021
     40          6           0        5.356471   -3.214493    0.414989
     41          6           0        4.623076   -4.246380   -0.397814
     42          8           0        3.376095   -4.254738   -0.446144
     43          8           0        5.497836   -4.905898   -1.172651
     44          6           0        4.831003   -5.924719   -2.026754
     45          1           0        5.637797    2.673582   -3.255129
     46          1           0        3.115121    5.712896    1.575262
     47          1           0        3.781150    0.628270    5.200477
     48          1           0        6.473223   -2.103034   -2.304961
     49          1           0        5.975932    0.183086   -3.877796
     50          1           0        8.051319   -0.466409   -1.819446
     51          1           0        7.657049    1.272987   -1.978559
     52          1           0        8.241149    0.427072   -3.383492
     53          1           0        3.957427   -1.072449   -3.631602
     54          1           0        3.826771   -2.558505   -2.608352
     55          1           0        5.978532   -2.906992   -4.434681
     56          1           0        4.830302   -1.959079   -5.301216
     57          1           0        4.724339    4.315032   -4.211213
     58          1           0        4.632849    5.939741   -3.647330
     59          1           0        3.128214    5.152886   -4.189778
     60          1           0        3.197447    7.473455   -2.870071
     61          1           0        1.669836    8.188980   -2.106590
     62          1           0        1.672329    6.631746   -2.977191
     63          1           0        2.375854    5.077480    3.931149
     64          1           0        4.124527    3.276157    5.532824
     65          1           0        3.940643    6.515189    4.699144
     66          1           0        5.124878    5.699449    3.621698
     67          1           0        4.973367    5.198048    5.225635
     68          1           0        1.821723    4.015699    6.252881
     69          1           0        2.139913    2.294772    6.439991
     70          1           0        0.510575    3.791538    4.529065
     71          1           0        0.063213    2.297116    5.419717
     72          1           0        1.122746    2.254249    3.939763
     73          1           0        4.065240   -3.019697    5.139278
     74          1           0        4.123185   -1.358982    5.830459
     75          1           0        5.652474   -2.113891    5.216498
     76          1           0        6.437016   -3.296338    0.301645
     77          1           0        5.313018   -6.880676   -1.821713
     78          1           0        4.871017   -5.546736   -3.048484
     79          1           0        3.795308   -6.158957   -1.778143
     80         12           0       -4.778355   -0.391875   -0.480418
     81          6           0       -2.428240   -3.097699   -0.294598
     82          6           0       -2.639881    1.117928   -2.667213
     83          6           0       -6.602827    2.199162   -0.321363
     84          6           0       -6.134629   -1.547674    2.514634
     85          7           0       -2.818417   -1.009815   -1.298372
     86          6           0       -2.053007   -2.086629   -1.203644
     87          6           0       -0.858348   -2.115740   -2.194355
     88          6           0       -0.715587   -0.536045   -2.445397
     89          6           0       -2.153674   -0.111457   -2.155042
     90          6           0        0.197083    0.152380   -1.444174
     91          6           0       -1.200860   -2.879613   -3.521458
     92          6           0        0.006110   -3.214472   -4.400574
     93          1           0       -0.002915   -4.469956   -5.146324
     94          7           0       -4.906873    1.165405   -1.703906
     95          6           0       -3.951623    1.625120   -2.539030
     96          6           0       -4.531213    2.802377   -3.204096
     97          6           0       -5.846172    3.097725   -2.572921
     98          6           0       -5.826378    2.157595   -1.470263
     99          6           0       -3.880636    3.477060   -4.376694
    100          6           0       -6.934924    4.074627   -2.899219
    101          8           0       -7.884877    4.324003   -2.075671
    102          6           0       -6.805481    4.799659   -4.171646
    103          7           0       -6.029533    0.362944    0.998487
    104          6           0       -6.748550    1.480187    0.791809
    105          6           0       -7.776798    1.676258    1.880220
    106          6           0       -7.761108    0.324480    2.734643
    107          6           0       -6.613110   -0.416615    2.014722
    108          6           0       -7.543579    2.867721    2.808881
    109          6           0       -9.117655   -0.410594    2.913872
    110          6           0       -9.588108   -0.956958    1.585134
    111          7           0       -4.502600   -2.119273    0.787683
    112          6           0       -5.155249   -2.393325    2.009581
    113          6           0       -4.552482   -3.625381    2.558350
    114          6           0       -3.567408   -3.972646    1.621588
    115          6           0       -3.543271   -3.012833    0.573883
    116          6           0       -4.897615   -4.241154    3.794399
    117          6           0       -2.535279   -4.927075    1.286209
    118          8           0       -2.157866   -5.999555    1.756413
    119          6           0       -1.666017   -4.333723    0.095126
    120          6           0       -1.501386   -5.411274   -0.941362
    121          8           0       -2.485280   -5.838626   -1.570588
    122          8           0       -0.189906   -5.604074   -1.172069
    123          6           0        0.024231   -6.656113   -2.201239
    124          1           0       -1.940994    1.778665   -3.180884
    125          1           0       -7.328006    3.014702   -0.271634
    126          1           0       -6.568653   -2.026543    3.394968
    127          1           0        0.062736   -2.511725   -1.783764
    128          1           0       -0.456192   -0.322213   -3.479006
    129          1           0        0.506661   -0.516516   -0.654948
    130          1           0       -0.377804    0.974916   -1.039203
    131          1           0        1.048889    0.605069   -1.959742
    132          1           0       -1.741769   -2.202462   -4.194968
    133          1           0       -1.755976   -3.773734   -3.314006
    134          1           0        0.954147   -3.093971   -3.862378
    135          1           0        0.061324   -2.480643   -5.208324
    136          1           0       -2.844867    3.141253   -4.510194
    137          1           0       -3.791466    4.539468   -4.125275
    138          1           0       -4.462878    3.378963   -5.295403
    139          1           0       -5.868363    5.351218   -4.179286
    140          1           0       -7.722408    5.384056   -4.269585
    141          1           0       -6.747333    4.069115   -4.986219
    142          1           0       -8.764869    1.813977    1.458500
    143          1           0       -7.423930    0.498859    3.766988
    144          1           0       -8.395209    3.573473    2.835688
    145          1           0       -6.640246    3.373580    2.494822
    146          1           0       -7.316971    2.610458    3.842157
    147          1           0       -9.886019    0.289394    3.251202
    148          1           0       -9.078764   -1.218882    3.636471
    149          1           0      -10.075211   -0.093710    1.121873
    150          1           0      -10.291198   -1.773964    1.734184
    151          1           0       -8.738402   -1.235567    0.951079
    152          1           0       -4.953415   -5.305284    3.607234
    153          1           0       -5.838064   -3.855039    4.182009
    154          1           0       -4.045230   -3.937799    4.408133
    155          1           0       -0.709330   -4.018311    0.513274
    156          1           0        0.678752   -7.411152   -1.754931
    157          1           0        0.402843   -6.126458   -3.095590
    158          1           0       -0.829841   -7.258882   -2.487047
 ---------------------------------------------------------------------

 SCF Done:  E(RCAM-B3LYP) =  -4069.81187551     A.U. after   19 cycles

 Excitation energies and oscillator strengths:

 Excited State   1:      Singlet-A      1.6440 eV  754.16 nm  f=0.0010  <S**2>=0.000
     309 -> 315       -0.11759
     310 -> 316        0.11696
     311 -> 313       -0.48477
     312 -> 314        0.48809
 This state for optimization and/or second-order correction.
 Total Energy, E(TD-HF/TD-DFT) =  -4069.75145975
 Copying the excited state density for this state as the 1-particle RhoCI density.

 Excited State   2:      Singlet-A      1.7052 eV  727.08 nm  f=0.6886  <S**2>=0.000
     309 -> 315        0.12972
     310 -> 316        0.12725
     311 -> 313        0.48524
     312 -> 314        0.48200

 Excited State   3:      Singlet-A      2.1794 eV  568.88 nm  f=0.0470  <S**2>=0.000
     309 -> 313        0.26572
     310 -> 314        0.58758
     311 -> 315       -0.10966
     312 -> 316       -0.24448

 Excited State   4:      Singlet-A      2.1951 eV  564.81 nm  f=0.1385  <S**2>=0.000
     309 -> 313        0.58105
     310 -> 314       -0.26178
     311 -> 315       -0.25549
     312 -> 316        0.11669

 Excited State   5:      Singlet-A      2.2537 eV  550.14 nm  f=0.0006  <S**2>=0.000
     312 -> 313        0.70444

 The electronic state is 1-A.
 Alpha  occ. eigenvalues --  -46.88106 -46.87369 -19.26560 -19.25595 -19.19303
 Alpha  occ. eigenvalues --  -19.19089 -19.18564 -19.18478 -19.18375 -19.17601
 Alpha  occ. eigenvalues --  -14.42762 -14.42203 -14.41728 -14.41068 -14.39703
 Alpha  occ. eigenvalues --  -14.39065 -14.38876 -14.38295 -10.39349 -10.38463
 Alpha  occ. eigenvalues --  -10.35725 -10.35163 -10.34602 -10.33754 -10.31973
 Alpha  occ. eigenvalues --  -10.31710 -10.31244 -10.31232 -10.30987 -10.30859
 Alpha  occ. eigenvalues --  -10.30774 -10.30687 -10.30483 -10.30165 -10.30096
 Alpha  occ. eigenvalues --  -10.30043 -10.29901 -10.29901 -10.29601 -10.29546
 Alpha  occ. eigenvalues --  -10.29181 -10.29137 -10.29108 -10.28992 -10.28667
 Alpha  occ. eigenvalues --  -10.28460 -10.28384 -10.28252 -10.28078 -10.28060
 Alpha  occ. eigenvalues --  -10.28037 -10.27868 -10.27863 -10.27817 -10.27704
 Alpha  occ. eigenvalues --  -10.27704 -10.27702 -10.27649 -10.27414 -10.27401
 Alpha  occ. eigenvalues --  -10.27309 -10.27308 -10.27244 -10.27180 -10.27152
 Alpha  occ. eigenvalues --  -10.27137 -10.26720 -10.26519 -10.26422 -10.26357
 Alpha  occ. eigenvalues --  -10.26345 -10.26285 -10.26246 -10.25991 -10.25955
 Alpha  occ. eigenvalues --  -10.25820 -10.25664 -10.25611 -10.25582 -10.25199
 Alpha  occ. eigenvalues --  -10.25094 -10.25056 -10.24833 -10.24552 -10.24551
 Alpha  occ. eigenvalues --  -10.24394  -3.16834  -3.16119  -1.91715  -1.91303
 Alpha  occ. eigenvalues --   -1.91144  -1.91002  -1.90590  -1.90427  -1.16905
 Alpha  occ. eigenvalues --   -1.15938  -1.08827  -1.08178  -1.07488  -1.06909
 Alpha  occ. eigenvalues --   -1.06735  -1.06334  -1.04892  -1.04185  -1.04043
 Alpha  occ. eigenvalues --   -1.03517  -1.03366  -1.02751  -1.02694  -1.01815
 Alpha  occ. eigenvalues --   -0.92252  -0.91600  -0.89757  -0.89547  -0.89219
 Alpha  occ. eigenvalues --   -0.88829  -0.88517  -0.88109  -0.87984  -0.87968
 Alpha  occ. eigenvalues --   -0.87572  -0.87499  -0.87387  -0.86881  -0.85326
 Alpha  occ. eigenvalues --   -0.84700  -0.84150  -0.83615  -0.83246  -0.82960
 Alpha  occ. eigenvalues --   -0.82712  -0.82348  -0.81863  -0.81167  -0.80886
 Alpha  occ. eigenvalues --   -0.80075  -0.79080  -0.78373  -0.77504  -0.77228
 Alpha  occ. eigenvalues --   -0.76870  -0.76563  -0.76214  -0.75499  -0.75130
 Alpha  occ. eigenvalues --   -0.74522  -0.73039  -0.72411  -0.71946  -0.71280
 Alpha  occ. eigenvalues --   -0.70110  -0.69534  -0.69195  -0.68535  -0.67921
 Alpha  occ. eigenvalues --   -0.67593  -0.67291  -0.66910  -0.65625  -0.65132
 Alpha  occ. eigenvalues --   -0.64915  -0.64900  -0.64508  -0.64460  -0.64274
 Alpha  occ. eigenvalues --   -0.63922  -0.62567  -0.61770  -0.60719  -0.60133
 Alpha  occ. eigenvalues --   -0.60085  -0.59456  -0.59258  -0.58771  -0.58665
 Alpha  occ. eigenvalues --   -0.58078  -0.57840  -0.57560  -0.57101  -0.56867
 Alpha  occ. eigenvalues --   -0.56578  -0.56276  -0.55914  -0.55801  -0.55567
 Alpha  occ. eigenvalues --   -0.55420  -0.55121  -0.54904  -0.54758  -0.54256
 Alpha  occ. eigenvalues --   -0.54078  -0.53601  -0.53577  -0.53532  -0.53187
 Alpha  occ. eigenvalues --   -0.53075  -0.52944  -0.52819  -0.52629  -0.52520
 Alpha  occ. eigenvalues --   -0.52423  -0.52156  -0.52121  -0.51963  -0.51589
 Alpha  occ. eigenvalues --   -0.51451  -0.51358  -0.50883  -0.50853  -0.50291
 Alpha  occ. eigenvalues --   -0.50275  -0.50193  -0.49824  -0.49732  -0.49630
 Alpha  occ. eigenvalues --   -0.49490  -0.49385  -0.49215  -0.48884  -0.48841
 Alpha  occ. eigenvalues --   -0.48783  -0.48728  -0.48674  -0.48217  -0.48126
 Alpha  occ. eigenvalues --   -0.48025  -0.47980  -0.47570  -0.47295  -0.47069
 Alpha  occ. eigenvalues --   -0.46898  -0.46845  -0.46621  -0.46430  -0.46411
 Alpha  occ. eigenvalues --   -0.46262  -0.46066  -0.45994  -0.45749  -0.45444
 Alpha  occ. eigenvalues --   -0.45429  -0.44940  -0.44846  -0.44786  -0.44417
 Alpha  occ. eigenvalues --   -0.44387  -0.44281  -0.44201  -0.44160  -0.43848
 Alpha  occ. eigenvalues --   -0.43815  -0.43759  -0.43685  -0.43592  -0.43293
 Alpha  occ. eigenvalues --   -0.43194  -0.43065  -0.42935  -0.42875  -0.42601
 Alpha  occ. eigenvalues --   -0.42326  -0.42268  -0.42262  -0.41968  -0.41853
 Alpha  occ. eigenvalues --   -0.41675  -0.41416  -0.41304  -0.41184  -0.41150
 Alpha  occ. eigenvalues --   -0.41139  -0.40804  -0.40710  -0.40645  -0.40462
 Alpha  occ. eigenvalues --   -0.40428  -0.40209  -0.39867  -0.39639  -0.39206
 Alpha  occ. eigenvalues --   -0.38721  -0.38132  -0.38099  -0.37600  -0.37575
 Alpha  occ. eigenvalues --   -0.37362  -0.36995  -0.36969  -0.36891  -0.36457
 Alpha  occ. eigenvalues --   -0.36275  -0.35805  -0.34569  -0.34040  -0.33949
 Alpha  occ. eigenvalues --   -0.33469  -0.33329  -0.32855  -0.31617  -0.31322
 Alpha  occ. eigenvalues --   -0.31036  -0.30655  -0.30235  -0.29736  -0.29582
 Alpha  occ. eigenvalues --   -0.29483  -0.29048  -0.28894  -0.24373  -0.23720
 Alpha  occ. eigenvalues --   -0.21414  -0.20830
 Alpha virt. eigenvalues --   -0.09057  -0.08494  -0.02038  -0.01402  -0.00353
 Alpha virt. eigenvalues --    0.00234   0.01961   0.02541   0.02781   0.03519
 Alpha virt. eigenvalues --    0.04307   0.04694   0.04952   0.05385   0.05763

 Mulliken charges:
               1
     1  Mg   0.828596
     2  C   -0.002466
     3  C   -0.094868
     4  C   -0.044790
     5  C   -0.062876
     6  N   -0.256056
     7  C   -0.056203
     8  C   -0.011233
     9  C   -0.086291
    10  C    0.043731
    11  C    0.104516
    12  C    0.045890
    13  C   -0.073544
    14  H    0.038001
    15  N   -0.433069
    16  C    0.165108
    17  C   -0.178698
    18  C   -0.004817
    19  C    0.148888
    20  C    0.110419
    21  C    0.012037
    22  O   -0.248537
    23  C    0.063085
    24  N   -0.340091
    25  C    0.040948
    26  C   -0.028190
    27  C   -0.024324
    28  C    0.075046
    29  C    0.075932
    30  C    0.034859
    31  C   -0.004698
    32  N   -0.310502
    33  C    0.080927
    34  C   -0.168454
    35  C    0.009655
    36  C    0.080566
    37  C    0.126776
    38  C    0.047730
    39  O   -0.185393
    40  C   -0.007162
    41  C    0.213799
    42  O   -0.256018
    43  O   -0.304514
    44  C    0.156697
    45  H   -0.017899
    46  H   -0.016283
    47  H   -0.040321
    48  H    0.001886
    49  H   -0.004704
    50  H    0.026097
    51  H    0.017532
    52  H    0.017137
    53  H    0.008404
    54  H    0.046598
    55  H    0.019896
    56  H    0.018100
    57  H    0.005692
    58  H    0.027743
    59  H    0.037076
    60  H    0.037889
    61  H    0.036477
    62  H    0.028800
    63  H    0.017136
    64  H    0.010092
    65  H    0.023781
    66  H    0.012579
    67  H    0.005241
    68  H    0.006968
    69  H    0.005326
    70  H    0.009171
    71  H    0.019058
    72  H    0.028726
    73  H    0.050111
    74  H    0.009754
    75  H    0.046533
    76  H    0.035771
    77  H    0.044171
    78  H    0.045329
    79  H    0.053091
    80  Mg   0.836742
    81  C   -0.017894
    82  C   -0.087653
    83  C   -0.045830
    84  C   -0.066133
    85  N   -0.254274
    86  C   -0.049757
    87  C   -0.019431
    88  C   -0.092373
    89  C    0.044685
    90  C    0.092216
    91  C    0.062827
    92  C   -0.078545
    93  H    0.030748
    94  N   -0.423354
    95  C    0.162507
    96  C   -0.175057
    97  C   -0.008371
    98  C    0.151921
    99  C    0.099974
   100  C    0.015236
   101  O   -0.253844
   102  C    0.061384
   103  N   -0.350235
   104  C    0.037190
   105  C   -0.019558
   106  C   -0.034805
   107  C    0.089431
   108  C    0.073887
   109  C    0.034921
   110  C   -0.007559
   111  N   -0.324317
   112  C    0.079091
   113  C   -0.163891
   114  C    0.003269
   115  C    0.095512
   116  C    0.131585
   117  C    0.042381
   118  O   -0.185492
   119  C    0.001902
   120  C    0.208044
   121  O   -0.254748
   122  O   -0.294078
   123  C    0.154628
   124  H   -0.021438
   125  H   -0.016347
   126  H   -0.041181
   127  H    0.015708
   128  H   -0.006905
   129  H    0.036765
   130  H    0.015376
   131  H    0.028856
   132  H    0.011818
   133  H    0.037747
   134  H    0.026755
   135  H    0.015826
   136  H    0.006522
   137  H    0.024894
   138  H    0.038595
   139  H    0.037674
   140  H    0.035675
   141  H    0.033279
   142  H    0.013864
   143  H    0.011746
   144  H    0.024528
   145  H    0.011929
   146  H    0.004800
   147  H    0.005682
   148  H    0.003335
   149  H    0.010683
   150  H    0.017458
   151  H    0.030499
   152  H    0.046091
   153  H    0.007624
   154  H    0.047036
   155  H    0.048741
   156  H    0.043381
   157  H    0.046383
   158  H    0.050349
 Sum of Mulliken charges =  -0.00000

 Dipole moment (field-independent basis, Debye):
    X=              4.6401    Y=              5.2816    Z=             -4.4874  Tot=              8.3404
 Quadrupole moment (field-independent basis, Debye-Ang):
   XX=           -504.9884   YY=           -564.8220   ZZ=           -453.1936
   XY=              9.9502   XZ=            -37.1763   YZ=              9.7337

 Normal termination of Gaussian 16 at Fri Sep 10 02:27:27 2021.
