 Gaussian 16, Revision A.03,
 Gaussian 16:  ES64L-G16RevA.03 25-Dec-2016

 -----------------------------------
 #p cam-b3lyp/Def2SVP td=(nstates=5)
 -----------------------------------

 --------------------------------
 TDDFT excited states in gaussian
 --------------------------------
 Symbolic Z-matrix:
 Charge =  0 Multiplicity = 1

                         Standard orientation:
 ---------------------------------------------------------------------
 Center     Atomic      Atomic             Coordinates (Angstroms)
 Number     Number       Type             X           Y           Z
 ---------------------------------------------------------------------
      1         12           0      -15.866910    0.667196    0.453340
      2          6           0      -16.177963   -1.872640   -2.049597
      3          6           0      -16.841490   -1.673137    2.737218
      4          6           0      -16.039286    2.993422    2.601730
      5          6           0      -16.029527    3.013926   -2.118055
      6          7           0      -16.411106   -1.468742    0.247753
      7          6           0      -16.431911   -2.338267   -0.757565
      8          6           0      -16.674930   -3.807265   -0.298914
      9          6           0      -17.415946   -3.520109    1.083271
     10          6           0      -16.829004   -2.154605    1.394435
     11          6           0      -18.929075   -3.384824    0.946743
     12          6           0      -15.337060   -4.590715   -0.079728
     13          6           0      -15.483060   -6.109686    0.049748
     14          1           0      -14.442766   -6.962953   -0.504393
     15          7           0      -15.889563    0.589093    2.427229
     16          6           0      -16.303078   -0.449927    3.191903
     17          6           0      -16.124690   -0.019486    4.595320
     18          6           0      -15.752831    1.422635    4.585182
     19          6           0      -15.906588    1.736768    3.187663
     20          6           0      -16.258268   -0.947147    5.763803
     21          6           0      -15.336684    2.370244    5.665455
     22          8           0      -15.283748    3.633902    5.478531
     23          6           0      -15.074471    1.781062    6.991031
     24          7           0      -16.233652    2.716568    0.300998
     25          6           0      -16.194461    3.506642    1.379530
     26          6           0      -16.204704    4.956454    0.994981
     27          6           0      -16.013282    4.994808   -0.589835
     28          6           0      -16.007946    3.470617   -0.863848
     29          6           0      -17.467964    5.740888    1.375572
     30          6           0      -14.839945    5.846508   -1.136008
     31          6           0      -13.522286    5.222394   -0.734317
     32          7           0      -15.889620    0.614528   -1.716396
     33          6           0      -15.984109    1.711104   -2.585458
     34          6           0      -16.071648    1.170925   -3.954622
     35          6           0      -16.038480   -0.211768   -3.784603
     36          6           0      -15.963128   -0.516481   -2.395444
     37          6           0      -16.225007    1.936268   -5.144229
     38          6           0      -16.074000   -1.503049   -4.451827
     39          8           0      -16.040615   -1.873529   -5.626188
     40          6           0      -16.288580   -2.631302   -3.348728
     41          6           0      -15.286929   -3.722135   -3.613467
     42          8           0      -14.064686   -3.517942   -3.465839
     43          8           0      -15.930814   -4.889495   -3.765866
     44          6           0      -14.992487   -6.019006   -4.002299
     45          1           0      -17.361123   -2.254315    3.501518
     46          1           0      -15.991541    3.829963    3.301985
     47          1           0      -15.997475    3.687403   -2.976458
     48          1           0      -17.323700   -4.387037   -0.955713
     49          1           0      -17.133915   -4.238155    1.853071
     50          1           0      -19.235863   -3.379817   -0.099095
     51          1           0      -19.180534   -2.436354    1.421787
     52          1           0      -19.440559   -4.154570    1.525233
     53          1           0      -14.941741   -4.357392    0.908879
     54          1           0      -14.622664   -4.363404   -0.871747
     55          1           0      -16.467259   -6.444931   -0.278692
     56          1           0      -15.448547   -6.367112    1.108399
     57          1           0      -16.699866   -1.898918    5.471110
     58          1           0      -16.989840   -0.504673    6.439619
     59          1           0      -15.312151   -1.087199    6.286850
     60          1           0      -15.973054    1.274470    7.343821
     61          1           0      -14.702654    2.594289    7.613337
     62          1           0      -14.308388    1.011714    6.890193
     63          1           0      -15.382192    5.492100    1.467192
     64          1           0      -16.891072    5.394345   -1.098292
     65          1           0      -17.270388    6.613670    1.998404
     66          1           0      -18.154494    5.054589    1.870508
     67          1           0      -18.068965    6.077150    0.531095
     68          1           0      -14.865305    6.847099   -0.705752
     69          1           0      -14.852949    5.951584   -2.220924
     70          1           0      -13.368820    5.605459    0.273920
     71          1           0      -12.725953    5.551838   -1.402546
     72          1           0      -13.601252    4.137476   -0.662182
     73          1           0      -15.544527    1.501675   -5.876380
     74          1           0      -16.000163    2.988264   -4.970005
     75          1           0      -17.279455    1.764828   -5.360108
     76          1           0      -17.314369   -2.982775   -3.455241
     77          1           0      -15.293422   -6.496452   -4.934885
     78          1           0      -15.003509   -6.625765   -3.096691
     79          1           0      -13.961346   -5.748888   -4.232787
     80         12           0       15.848443   -0.670345    0.448281
     81          6           0       16.244537    1.896257   -2.028552
     82          6           0       16.898119    1.607046    2.760474
     83          6           0       15.942698   -3.022215    2.576014
     84          6           0       15.942624   -2.995219   -2.146289
     85          7           0       16.462598    1.446773    0.266977
     86          6           0       16.514091    2.334023   -0.715098
     87          6           0       16.796340    3.788905   -0.253367
     88          6           0       17.534542    3.461700    1.134756
     89          6           0       16.904686    2.102454    1.432088
     90          6           0       19.035021    3.271001    0.988087
     91          6           0       15.478735    4.609399   -0.023784
     92          6           0       15.679263    6.118927    0.127452
     93          1           0       14.660905    7.014126   -0.414805
     94          7           0       15.870206   -0.607627    2.431756
     95          6           0       16.309495    0.404313    3.209111
     96          6           0       16.131484   -0.048389    4.597471
     97          6           0       15.704957   -1.473973    4.574983
     98          6           0       15.845940   -1.769052    3.163200
     99          6           0       16.285919    0.866263    5.777722
    100          6           0       15.257994   -2.419363    5.648599
    101          8           0       15.163386   -3.680269    5.438862
    102          6           0       15.024234   -1.837842    6.978515
    103          7           0       16.142661   -2.720823    0.271344
    104          6           0       16.083329   -3.523250    1.348621
    105          6           0       16.049720   -4.977786    0.944173
    106          6           0       15.854024   -4.977960   -0.643052
    107          6           0       15.899790   -3.456359   -0.903829
    108          6           0       17.288931   -5.797111    1.303987
    109          6           0       14.653441   -5.788246   -1.204042
    110          6           0       13.353155   -5.138211   -0.789191
    111          7           0       15.868767   -0.591587   -1.710750
    112          6           0       15.935335   -1.683641   -2.603540
    113          6           0       16.040528   -1.125328   -3.967241
    114          6           0       16.051127    0.263716   -3.769914
    115          6           0       15.979391    0.550532   -2.379916
    116          6           0       16.159551   -1.880038   -5.168228
    117          6           0       16.117395    1.552400   -4.420746
    118          8           0       16.103335    1.937185   -5.589288
    119          6           0       16.373080    2.664690   -3.314482
    120          6           0       15.406747    3.791630   -3.556843
    121          8           0       14.183168    3.615156   -3.421478
    122          8           0       16.094490    4.939830   -3.694738
    123          6           0       15.178722    6.088607   -3.926044
    124          1           0       17.430218    2.170953    3.527140
    125          1           0       15.868026   -3.870559    3.260282
    126          1           0       15.877769   -3.653008   -3.015644
    127          1           0       17.456949    4.351345   -0.902244
    128          1           0       17.267431    4.182085    1.903561
    129          1           0       19.341753    3.270281   -0.047310
    130          1           0       19.256816    2.317399    1.449049
    131          1           0       19.569778    4.021925    1.576726
    132          1           0       15.078061    4.372569    0.970264
    133          1           0       14.768413    4.415585   -0.803850
    134          1           0       16.679342    6.435971   -0.192351
    135          1           0       15.646202    6.368579    1.190742
    136          1           0       16.765173    1.811422    5.494158
    137          1           0       17.001616    0.392242    6.458120
    138          1           0       15.346468    1.028965    6.310292
    139          1           0       15.936943   -1.362977    7.330526
    140          1           0       14.625368   -2.651598    7.587277
    141          1           0       14.272575   -1.045865    6.886851
    142          1           0       15.210511   -5.487134    1.401777
    143          1           0       16.722251   -5.411743   -1.160587
    144          1           0       17.061026   -6.682380    1.927244
    145          1           0       17.992656   -5.148133    1.808108
    146          1           0       17.869996   -6.152724    0.454816
    147          1           0       14.645657   -6.795704   -0.780808
    148          1           0       14.669605   -5.892656   -2.283778
    149          1           0       13.192780   -5.529179    0.220023
    150          1           0       12.547340   -5.431812   -1.458894
    151          1           0       13.465262   -4.050829   -0.707484
    152          1           0       15.500286   -1.419509   -5.891957
    153          1           0       15.906128   -2.925828   -5.007378
    154          1           0       17.223402   -1.743328   -5.379855
    155          1           0       17.410577    2.987714   -3.408367
    156          1           0       15.498592    6.570115   -4.855305
    157          1           0       15.222744    6.696354   -3.002760
    158          1           0       14.141864    5.865968   -4.149242
 ---------------------------------------------------------------------

 SCF Done:  E(RCAM-B3LYP) =  -4069.81175010     A.U. after   19 cycles

 Excitation energies and oscillator strengths:

 Excited State   1:      Singlet-A      1.6753 eV  740.06 nm  f=0.2140  <S**2>=0.000
     310 -> 316        0.16863
     311 -> 313        0.66669
     312 -> 314       -0.16184
     310 <- 316        0.10166
 This state for optimization and/or second-order correction.
 Total Energy, E(TD-HF/TD-DFT) =  -4069.75018305
 Copying the excited state density for this state as the 1-particle RhoCI density.

 Excited State   2:      Singlet-A      1.6801 eV  737.95 nm  f=0.5635  <S**2>=0.000
     309 -> 315        0.17064
     311 -> 313        0.16179
     312 -> 314        0.66633
     309 <- 315        0.10216

 Excited State   3:      Singlet-A      2.1861 eV  567.15 nm  f=0.0957  <S**2>=0.000
     310 -> 313        0.64214
     311 -> 316       -0.27297

 Excited State   4:      Singlet-A      2.1925 eV  565.49 nm  f=0.1045  <S**2>=0.000
     309 -> 314        0.64037
     312 -> 315       -0.27814

 Excited State   5:      Singlet-A      3.0593 eV  405.27 nm  f=0.0000  <S**2>=0.000
     312 -> 313        0.70711

 The electronic state is 1-A.
 Alpha  occ. eigenvalues --  -46.87755 -46.87661 -19.26344 -19.26238 -19.19156
 Alpha  occ. eigenvalues --  -19.18973 -19.18775 -19.18716 -19.18126 -19.18050
 Alpha  occ. eigenvalues --  -14.42498 -14.42408 -14.41408 -14.41360 -14.39361
 Alpha  occ. eigenvalues --  -14.39352 -14.38600 -14.38544 -10.39086 -10.39034
 Alpha  occ. eigenvalues --  -10.35409 -10.35393 -10.34346 -10.34227 -10.31750
 Alpha  occ. eigenvalues --  -10.31632 -10.31363 -10.31309 -10.31024 -10.30867
 Alpha  occ. eigenvalues --  -10.30528 -10.30466 -10.30398 -10.30360 -10.30166
 Alpha  occ. eigenvalues --  -10.30142 -10.29895 -10.29879 -10.29589 -10.29438
 Alpha  occ. eigenvalues --  -10.29401 -10.29213 -10.28718 -10.28706 -10.28650
 Alpha  occ. eigenvalues --  -10.28493 -10.28405 -10.28323 -10.28140 -10.28075
 Alpha  occ. eigenvalues --  -10.28002 -10.27751 -10.27686 -10.27670 -10.27543
 Alpha  occ. eigenvalues --  -10.27519 -10.27484 -10.27468 -10.27465 -10.27460
 Alpha  occ. eigenvalues --  -10.27441 -10.27410 -10.27378 -10.27361 -10.27115
 Alpha  occ. eigenvalues --  -10.27049 -10.26690 -10.26660 -10.26417 -10.26372
 Alpha  occ. eigenvalues --  -10.26195 -10.26142 -10.26137 -10.26027 -10.25978
 Alpha  occ. eigenvalues --  -10.25935 -10.25850 -10.25801 -10.25402 -10.25398
 Alpha  occ. eigenvalues --  -10.24873 -10.24791 -10.24746 -10.24728 -10.24691
 Alpha  occ. eigenvalues --  -10.24643  -3.16497  -3.16411  -1.91379  -1.91293
 Alpha  occ. eigenvalues --   -1.90966  -1.90881  -1.90808  -1.90718  -1.16638
 Alpha  occ. eigenvalues --   -1.16587  -1.08656  -1.08584  -1.07177  -1.06968
 Alpha  occ. eigenvalues --   -1.06940  -1.06596  -1.04539  -1.04495  -1.03719
 Alpha  occ. eigenvalues --   -1.03664  -1.03192  -1.03039  -1.02369  -1.02112
 Alpha  occ. eigenvalues --   -0.91987  -0.91930  -0.89495  -0.89478  -0.89151
 Alpha  occ. eigenvalues --   -0.89146  -0.88246  -0.88221  -0.87828  -0.87794
 Alpha  occ. eigenvalues --   -0.87684  -0.87631  -0.87233  -0.87121  -0.84999
 Alpha  occ. eigenvalues --   -0.84940  -0.83895  -0.83876  -0.82933  -0.82927
 Alpha  occ. eigenvalues --   -0.82652  -0.82607  -0.81594  -0.81542  -0.80554
 Alpha  occ. eigenvalues --   -0.80442  -0.78756  -0.78636  -0.77177  -0.77145
 Alpha  occ. eigenvalues --   -0.76897  -0.76892  -0.75881  -0.75838  -0.74857
 Alpha  occ. eigenvalues --   -0.74804  -0.72732  -0.72699  -0.71631  -0.71582
 Alpha  occ. eigenvalues --   -0.69865  -0.69758  -0.68831  -0.68827  -0.67602
 Alpha  occ. eigenvalues --   -0.67599  -0.67199  -0.67177  -0.65271  -0.65244
 Alpha  occ. eigenvalues --   -0.64811  -0.64770  -0.64653  -0.64578  -0.64228
 Alpha  occ. eigenvalues --   -0.64204  -0.62276  -0.62254  -0.60401  -0.60341
 Alpha  occ. eigenvalues --   -0.59796  -0.59762  -0.58993  -0.58945  -0.58462
 Alpha  occ. eigenvalues --   -0.58425  -0.57553  -0.57541  -0.57267  -0.57237
 Alpha  occ. eigenvalues --   -0.56268  -0.56204  -0.55934  -0.55884  -0.55479
 Alpha  occ. eigenvalues --   -0.55452  -0.55297  -0.55247  -0.54487  -0.54480
 Alpha  occ. eigenvalues --   -0.53912  -0.53852  -0.53257  -0.53228  -0.53180
 Alpha  occ. eigenvalues --   -0.53141  -0.52901  -0.52872  -0.52715  -0.52669
 Alpha  occ. eigenvalues --   -0.52400  -0.52396  -0.51885  -0.51872  -0.51658
 Alpha  occ. eigenvalues --   -0.51574  -0.51200  -0.51153  -0.50532  -0.50476
 Alpha  occ. eigenvalues --   -0.49990  -0.49980  -0.49878  -0.49868  -0.49488
 Alpha  occ. eigenvalues --   -0.49473  -0.49202  -0.49173  -0.49104  -0.49054
 Alpha  occ. eigenvalues --   -0.48558  -0.48550  -0.48421  -0.48404  -0.48377
 Alpha  occ. eigenvalues --   -0.48339  -0.47653  -0.47594  -0.47256  -0.47119
 Alpha  occ. eigenvalues --   -0.46755  -0.46709  -0.46553  -0.46513  -0.46317
 Alpha  occ. eigenvalues --   -0.46271  -0.46120  -0.46086  -0.45821  -0.45779
 Alpha  occ. eigenvalues --   -0.45210  -0.45161  -0.44535  -0.44513  -0.44476
 Alpha  occ. eigenvalues --   -0.44465  -0.44127  -0.44103  -0.44078  -0.44046
 Alpha  occ. eigenvalues --   -0.43977  -0.43939  -0.43551  -0.43451  -0.43385
 Alpha  occ. eigenvalues --   -0.43344  -0.42985  -0.42928  -0.42900  -0.42655
 Alpha  occ. eigenvalues --   -0.42611  -0.42554  -0.41967  -0.41963  -0.41669
 Alpha  occ. eigenvalues --   -0.41662  -0.41491  -0.41458  -0.41100  -0.40990
 Alpha  occ. eigenvalues --   -0.40827  -0.40783  -0.40723  -0.40698  -0.40530
 Alpha  occ. eigenvalues --   -0.40494  -0.40226  -0.40191  -0.39425  -0.39399
 Alpha  occ. eigenvalues --   -0.38428  -0.38351  -0.37705  -0.37652  -0.37279
 Alpha  occ. eigenvalues --   -0.37266  -0.37221  -0.37199  -0.36768  -0.36669
 Alpha  occ. eigenvalues --   -0.36217  -0.36149  -0.34254  -0.34244  -0.33858
 Alpha  occ. eigenvalues --   -0.33725  -0.33176  -0.33144  -0.31305  -0.31275
 Alpha  occ. eigenvalues --   -0.30994  -0.30973  -0.29986  -0.29954  -0.29408
 Alpha  occ. eigenvalues --   -0.29328  -0.29280  -0.29212  -0.24039  -0.24037
 Alpha  occ. eigenvalues --   -0.21117  -0.21086
 Alpha virt. eigenvalues --   -0.08792  -0.08733  -0.01708  -0.01685  -0.00030
 Alpha virt. eigenvalues --   -0.00017   0.02207   0.02243   0.03168   0.03230
 Alpha virt. eigenvalues --    0.04730   0.04760   0.05144   0.05169   0.06185

 Mulliken charges:
               1
     1  Mg   0.838858
     2  C   -0.002970
     3  C   -0.094109
     4  C   -0.045894
     5  C   -0.063969
     6  N   -0.256794
     7  C   -0.052443
     8  C   -0.014021
     9  C   -0.087018
    10  C    0.046355
    11  C    0.104822
    12  C    0.053464
    13  C   -0.071821
    14  H    0.036208
    15  N   -0.433146
    16  C    0.168414
    17  C   -0.177156
    18  C   -0.004022
    19  C    0.148716
    20  C    0.110178
    21  C    0.012287
    22  O   -0.249664
    23  C    0.062476
    24  N   -0.341173
    25  C    0.041247
    26  C   -0.028158
    27  C   -0.023967
    28  C    0.074856
    29  C    0.076183
    30  C    0.035115
    31  C   -0.004498
    32  N   -0.310487
    33  C    0.080445
    34  C   -0.169687
    35  C    0.008357
    36  C    0.083021
    37  C    0.127301
    38  C    0.046146
    39  O   -0.188409
    40  C   -0.005343
    41  C    0.212876
    42  O   -0.257034
    43  O   -0.304826
    44  C    0.157677
    45  H   -0.017636
    46  H   -0.016871
    47  H   -0.041490
    48  H    0.000928
    49  H   -0.004030
    50  H    0.025457
    51  H    0.016419
    52  H    0.016625
    53  H    0.011233
    54  H    0.044172
    55  H    0.017829
    56  H    0.017943
    57  H    0.005866
    58  H    0.026772
    59  H    0.039569
    60  H    0.037310
    61  H    0.035607
    62  H    0.031542
    63  H    0.016552
    64  H    0.009425
    65  H    0.023170
    66  H    0.012518
    67  H    0.004719
    68  H    0.006327
    69  H    0.004743
    70  H    0.008763
    71  H    0.018211
    72  H    0.029014
    73  H    0.047625
    74  H    0.009121
    75  H    0.045971
    76  H    0.035119
    77  H    0.042935
    78  H    0.046394
    79  H    0.053756
    80  Mg   0.837943
    81  C   -0.016845
    82  C   -0.087779
    83  C   -0.045521
    84  C   -0.064898
    85  N   -0.254578
    86  C   -0.049817
    87  C   -0.015100
    88  C   -0.090511
    89  C    0.045774
    90  C    0.114383
    91  C    0.062503
    92  C   -0.077916
    93  H    0.034987
    94  N   -0.423501
    95  C    0.162907
    96  C   -0.174629
    97  C   -0.007808
    98  C    0.152114
    99  C    0.099361
   100  C    0.015574
   101  O   -0.253200
   102  C    0.061193
   103  N   -0.350105
   104  C    0.037533
   105  C   -0.019836
   106  C   -0.034815
   107  C    0.088938
   108  C    0.073662
   109  C    0.034719
   110  C   -0.007678
   111  N   -0.324123
   112  C    0.078480
   113  C   -0.163100
   114  C    0.002252
   115  C    0.096233
   116  C    0.131482
   117  C    0.042417
   118  O   -0.187824
   119  C    0.000926
   120  C    0.211263
   121  O   -0.250950
   122  O   -0.305659
   123  C    0.152002
   124  H   -0.019668
   125  H   -0.015584
   126  H   -0.040436
   127  H   -0.000645
   128  H   -0.004309
   129  H    0.022445
   130  H    0.014399
   131  H    0.016277
   132  H    0.013942
   133  H    0.037723
   134  H    0.020765
   135  H    0.019592
   136  H    0.008766
   137  H    0.026118
   138  H    0.039817
   139  H    0.038235
   140  H    0.036378
   141  H    0.033927
   142  H    0.014415
   143  H    0.012399
   144  H    0.025127
   145  H    0.011613
   146  H    0.005654
   147  H    0.006252
   148  H    0.003681
   149  H    0.010922
   150  H    0.018019
   151  H    0.030115
   152  H    0.046082
   153  H    0.008540
   154  H    0.046914
   155  H    0.035002
   156  H    0.043928
   157  H    0.049490
   158  H    0.053652
 Sum of Mulliken charges =  -0.00000

 Dipole moment (field-independent basis, Debye):
    X=             -0.0126    Y=             -0.0633    Z=              7.4788  Tot=              7.4791
 Quadrupole moment (field-independent basis, Debye-Ang):
   XX=           -384.3961   YY=           -460.2183   ZZ=           -539.6364
   XY=             55.1134   XZ=             -1.4214   YZ=              0.6945

 Normal termination of Gaussian 16 at Sun Sep 12 12:42:49 2021.
