 Gaussian 16, Revision A.03,
 Gaussian 16:  ES64L-G16RevA.03 25-Dec-2016

 -----------------------------------
 #p cam-b3lyp/Def2SVP td=(nstates=5)
 -----------------------------------

 --------------------------------
 TDDFT excited states in gaussian
 --------------------------------
 Symbolic Z-matrix:
 Charge =  0 Multiplicity = 1

                         Standard orientation:
 ---------------------------------------------------------------------
 Center     Atomic      Atomic             Coordinates (Angstroms)
 Number     Number       Type             X           Y           Z
 ---------------------------------------------------------------------
      1         12           0       -6.433099   -0.821363    0.046474
      2          6           0       -6.712922    2.031943    2.189500
      3          6           0       -7.365208    1.209849   -2.531978
      4          6           0       -6.634451   -3.408903   -1.775809
      5          6           0       -6.639001   -2.804137    2.905123
      6          7           0       -6.945366    1.330740   -0.035268
      7          6           0       -6.955928    2.325987    0.845948
      8          6           0       -7.175224    3.724689    0.195626
      9          6           0       -7.916418    3.267872   -1.140019
     10          6           0       -7.349385    1.864717   -1.264725
     11          6           0       -9.431827    3.174088   -0.994276
     12          6           0       -5.824953    4.452477   -0.118737
     13          6           0       -5.947458    5.942888   -0.448924
     14          1           0       -4.895959    6.846680   -0.007498
     15          7           0       -6.448709   -1.005106   -1.920464
     16          6           0       -6.844110   -0.070583   -2.818022
     17          6           0       -6.668126   -0.685713   -4.151186
     18          6           0       -6.318267   -2.119082   -3.948342
     19          6           0       -6.480926   -2.243027   -2.522314
     20          6           0       -6.784119    0.080844   -5.432859
     21          6           0       -5.913374   -3.207449   -4.891556
     22          8           0       -5.880211   -4.435848   -4.538696
     23          6           0       -5.638304   -2.802972   -6.282159
     24          7           0       -6.831407   -2.826888    0.467015
     25          6           0       -6.801035   -3.753361   -0.497199
     26          6           0       -6.834460   -5.139147    0.075880
     27          6           0       -6.648343   -4.970028    1.652748
     28          6           0       -6.620647   -3.423215    1.722552
     29          6           0       -8.108365   -5.948458   -0.203745
     30          6           0       -5.489715   -5.758999    2.312691
     31          6           0       -4.161535   -5.213004    1.838428
     32          7           0       -6.461439   -0.481407    2.189993
     33          6           0       -6.575167   -1.451688    3.196121
     34          6           0       -6.658543   -0.733670    4.481254
     35          6           0       -6.603852    0.613677    4.129815
     36          6           0       -6.519757    0.730545    2.712931
     37          6           0       -6.827046   -1.332347    5.760952
     38          6           0       -6.621714    1.982347    4.620001
     39          8           0       -6.586182    2.504599    5.735116
     40          6           0       -6.815843    2.957555    3.376172
     41          6           0       -5.798513    4.059026    3.499100
     42          8           0       -4.579083    3.819159    3.385865
     43          8           0       -6.425024    5.245609    3.492395
     44          6           0       -5.470337    6.382591    3.581832
     45          1           0       -7.873676    1.692221   -3.369067
     46          1           0       -6.597354   -4.331444   -2.358886
     47          1           0       -6.619738   -3.358363    3.845290
     48          1           0       -7.817049    4.395817    0.766653
     49          1           0       -7.621221    3.873397   -1.996711
     50          1           0       -9.741756    3.312172    0.041484
     51          1           0       -9.696268    2.174842   -1.340789
     52          1           0       -9.929832    3.867842   -1.672121
     53          1           0       -5.430297    4.084473   -1.065775
     54          1           0       -5.116447    4.321628    0.699935
     55          1           0       -6.927415    6.333095   -0.172644
     56          1           0       -5.905895    6.057271   -1.532155
     57          1           0       -7.212061    1.069378   -5.270959
     58          1           0       -7.520327   -0.436471   -6.047752
     59          1           0       -5.834435    0.136472   -5.965153
     60          1           0       -6.528031   -2.334444   -6.703367
     61          1           0       -5.277051   -3.696837   -6.789456
     62          1           0       -4.860915   -2.038372   -6.280285
     63          1           0       -6.018790   -5.744640   -0.317169
     64          1           0       -7.533610   -5.285761    2.205277
     65          1           0       -7.922236   -6.898861   -0.704542
     66          1           0       -8.782912   -5.323771   -0.788591
     67          1           0       -8.716911   -6.161032    0.674834
     68          1           0       -5.529010   -6.807287    2.018592
     69          1           0       -5.507533   -5.719227    3.401889
     70          1           0       -4.010922   -5.728466    0.890563
     71          1           0       -3.372288   -5.462677    2.548331
     72          1           0       -4.223783   -4.146162    1.622883
     73          1           0       -6.142212   -0.814630    6.432472
     74          1           0       -6.617708   -2.401336    5.728673
     75          1           0       -7.879401   -1.118362    5.947004
     76          1           0       -7.836481    3.335059    3.430127
     77          1           0       -5.766743    6.983735    4.441486
     78          1           0       -5.469448    6.864133    2.603813
     79          1           0       -4.444111    6.130283    3.851161
     80         12           0        6.788171   -0.451909    0.048000
     81          6           0        5.227030    1.839906   -2.230040
     82          6           0        8.916552    2.074728    0.896909
     83          6           0        8.464282   -2.560715    1.724612
     84          6           0        5.326289   -3.039820   -1.771705
     85          7           0        6.950302    1.642080   -0.645664
     86          6           0        6.263563    2.419639   -1.469153
     87          6           0        6.660419    3.919467   -1.418444
     88          6           0        8.157657    3.753354   -0.862068
     89          6           0        7.998652    2.425003   -0.125267
     90          6           0        9.191065    3.569300   -1.960946
     91          6           0        5.766238    4.741099   -0.424774
     92          6           0        5.891695    6.260823   -0.553007
     93          1           0        4.701265    7.078275   -0.335922
     94          7           0        8.116271   -0.176745    1.496789
     95          6           0        8.875807    0.918770    1.707116
     96          6           0        9.702599    0.614951    2.885358
     97          6           0        9.487787   -0.810736    3.254150
     98          6           0        8.679335   -1.253352    2.135844
     99          6           0       10.525958    1.652885    3.591196
    100          6           0        9.946181   -1.641896    4.413998
    101          8           0        9.840167   -2.919221    4.410626
    102          6           0       10.607780   -0.924601    5.513666
    103          7           0        7.057769   -2.505177   -0.135755
    104          6           0        7.794936   -3.188318    0.757458
    105          6           0        7.620878   -4.678151    0.582794
    106          6           0        6.421496   -4.851145   -0.460823
    107          6           0        6.157348   -3.365737   -0.791272
    108          6           0        8.848062   -5.436579    0.077642
    109          6           0        5.223296   -5.733784   -0.015927
    110          6           0        4.479011   -5.061517    1.115218
    111          7           0        5.363152   -0.604646   -1.568798
    112          6           0        4.909496   -1.785013   -2.197310
    113          6           0        4.036277   -1.374584   -3.316004
    114          6           0        4.061081    0.027615   -3.274620
    115          6           0        4.907204    0.460661   -2.218183
    116          6           0        3.389249   -2.251854   -4.231348
    117          6           0        3.572303    1.239963   -3.891058
    118          8           0        2.754307    1.497092   -4.773383
    119          6           0        4.405549    2.467882   -3.321560
    120          6           0        3.433873    3.548575   -2.933637
    121          8           0        2.628913    3.370311   -2.002577
    122          8           0        3.759109    4.685009   -3.576364
    123          6           0        2.830563    5.789311   -3.215609
    124          1           0        9.774761    2.725005    1.068699
    125          1           0        8.932847   -3.331838    2.340486
    126          1           0        4.754844   -3.787811   -2.325454
    127          1           0        6.674298    4.418446   -2.380010
    128          1           0        8.410476    4.548103   -0.165064
    129          1           0        8.731550    3.461992   -2.932267
    130          1           0        9.740324    2.673801   -1.701239
    131          1           0        9.917677    4.386453   -1.935801
    132          1           0        6.147993    4.606490    0.595466
    133          1           0        4.736279    4.454797   -0.513247
    134          1           0        6.396531    6.555907   -1.480916
    135          1           0        6.552674    6.622463    0.238410
    136          1           0       10.616197    2.568909    2.994409
    137          1           0       11.548583    1.264658    3.649226
    138          1           0       10.168044    1.858391    4.602307
    139          1           0       11.480826   -0.401878    5.130249
    140          1           0       10.782430   -1.674018    6.288102
    141          1           0        9.923238   -0.157726    5.893032
    142          1           0        7.342898   -5.147361    1.518567
    143          1           0        6.758717   -5.325547   -1.394121
    144          1           0        9.165268   -6.253112    0.753453
    145          1           0        9.652502   -4.727425   -0.065639
    146          1           0        8.745254   -5.872865   -0.914468
    147          1           0        5.581303   -6.690113    0.373205
    148          1           0        4.526912   -5.953036   -0.818417
    149          1           0        5.062085   -5.344343    1.996766
    150          1           0        3.459568   -5.436558    1.179298
    151          1           0        4.527255   -3.970157    1.024327
    152          1           0        2.380887   -1.880906   -4.358244
    153          1           0        3.393620   -3.277875   -3.869363
    154          1           0        4.028121   -2.123557   -5.109204
    155          1           0        5.087724    2.793642   -4.107748
    156          1           0        2.411683    6.172971   -4.151045
    157          1           0        3.426446    6.493040   -2.604502
    158          1           0        1.930076    5.529394   -2.671543
 ---------------------------------------------------------------------

 SCF Done:  E(RCAM-B3LYP) =  -4069.81174854     A.U. after   19 cycles

 Excitation energies and oscillator strengths:

 Excited State   1:      Singlet-A      1.6669 eV  743.81 nm  f=0.1177  <S**2>=0.000
     309 -> 315        0.13527
     310 -> 316        0.10556
     311 -> 313        0.54159
     312 -> 314        0.42197
 This state for optimization and/or second-order correction.
 Total Energy, E(TD-HF/TD-DFT) =  -4069.75049213
 Copying the excited state density for this state as the 1-particle RhoCI density.

 Excited State   2:      Singlet-A      1.6882 eV  734.41 nm  f=0.6422  <S**2>=0.000
     309 -> 315       -0.10863
     310 -> 316        0.14006
     311 -> 313       -0.42116
     312 -> 314        0.54050

 Excited State   3:      Singlet-A      2.1846 eV  567.55 nm  f=0.0373  <S**2>=0.000
     309 -> 313        0.60611
     310 -> 314       -0.21568
     311 -> 315       -0.25609

 Excited State   4:      Singlet-A      2.1933 eV  565.29 nm  f=0.1506  <S**2>=0.000
     309 -> 313        0.21398
     310 -> 314        0.60352
     312 -> 316       -0.26270

 Excited State   5:      Singlet-A      2.6372 eV  470.14 nm  f=0.0000  <S**2>=0.000
     312 -> 313        0.70690

 The electronic state is 1-A.
 Alpha  occ. eigenvalues --  -46.87583 -46.87494 -19.26320 -19.26024 -19.19106
 Alpha  occ. eigenvalues --  -19.18734 -19.18639 -19.18521 -19.18016 -19.17899
 Alpha  occ. eigenvalues --  -14.42424 -14.42152 -14.41286 -14.41164 -14.39277
 Alpha  occ. eigenvalues --  -14.39099 -14.38526 -14.38291 -10.39038 -10.38797
 Alpha  occ. eigenvalues --  -10.35316 -10.35153 -10.34191 -10.34119 -10.31752
 Alpha  occ. eigenvalues --  -10.31446 -10.31242 -10.31116 -10.30951 -10.30606
 Alpha  occ. eigenvalues --  -10.30327 -10.30292 -10.30278 -10.30221 -10.30065
 Alpha  occ. eigenvalues --  -10.29925 -10.29825 -10.29653 -10.29362 -10.29341
 Alpha  occ. eigenvalues --  -10.29331 -10.28958 -10.28652 -10.28585 -10.28451
 Alpha  occ. eigenvalues --  -10.28335 -10.28248 -10.28078 -10.28066 -10.27936
 Alpha  occ. eigenvalues --  -10.27831 -10.27598 -10.27504 -10.27445 -10.27434
 Alpha  occ. eigenvalues --  -10.27414 -10.27395 -10.27391 -10.27307 -10.27286
 Alpha  occ. eigenvalues --  -10.27267 -10.27219 -10.27148 -10.27112 -10.27004
 Alpha  occ. eigenvalues --  -10.26884 -10.26608 -10.26367 -10.26334 -10.26084
 Alpha  occ. eigenvalues --  -10.26056 -10.25981 -10.25978 -10.25973 -10.25860
 Alpha  occ. eigenvalues --  -10.25799 -10.25740 -10.25601 -10.25340 -10.25230
 Alpha  occ. eigenvalues --  -10.24809 -10.24635 -10.24619 -10.24546 -10.24507
 Alpha  occ. eigenvalues --  -10.24472  -3.16332  -3.16235  -1.91214  -1.91116
 Alpha  occ. eigenvalues --   -1.90803  -1.90703  -1.90640  -1.90546  -1.16609
 Alpha  occ. eigenvalues --   -1.16368  -1.08625  -1.08360  -1.06923  -1.06896
 Alpha  occ. eigenvalues --   -1.06892  -1.06361  -1.04423  -1.04284  -1.03591
 Alpha  occ. eigenvalues --   -1.03473  -1.02966  -1.02941  -1.02121  -1.02040
 Alpha  occ. eigenvalues --   -0.91924  -0.91686  -0.89422  -0.89261  -0.89084
 Alpha  occ. eigenvalues --   -0.88896  -0.88149  -0.88034  -0.87731  -0.87613
 Alpha  occ. eigenvalues --   -0.87595  -0.87381  -0.87046  -0.86966  -0.84931
 Alpha  occ. eigenvalues --   -0.84691  -0.83806  -0.83694  -0.82857  -0.82673
 Alpha  occ. eigenvalues --   -0.82587  -0.82362  -0.81548  -0.81317  -0.80383
 Alpha  occ. eigenvalues --   -0.80314  -0.78566  -0.78500  -0.77076  -0.76945
 Alpha  occ. eigenvalues --   -0.76839  -0.76664  -0.75783  -0.75650  -0.74740
 Alpha  occ. eigenvalues --   -0.74649  -0.72631  -0.72495  -0.71518  -0.71401
 Alpha  occ. eigenvalues --   -0.69681  -0.69669  -0.68761  -0.68586  -0.67536
 Alpha  occ. eigenvalues --   -0.67357  -0.67126  -0.66915  -0.65207  -0.64997
 Alpha  occ. eigenvalues --   -0.64705  -0.64592  -0.64576  -0.64348  -0.64134
 Alpha  occ. eigenvalues --   -0.64008  -0.62230  -0.62032  -0.60267  -0.60150
 Alpha  occ. eigenvalues --   -0.59730  -0.59513  -0.58927  -0.58710  -0.58362
 Alpha  occ. eigenvalues --   -0.58225  -0.57503  -0.57309  -0.57170  -0.57038
 Alpha  occ. eigenvalues --   -0.56140  -0.56027  -0.55838  -0.55709  -0.55391
 Alpha  occ. eigenvalues --   -0.55234  -0.55187  -0.55089  -0.54429  -0.54269
 Alpha  occ. eigenvalues --   -0.53845  -0.53602  -0.53161  -0.53078  -0.53019
 Alpha  occ. eigenvalues --   -0.52928  -0.52838  -0.52636  -0.52596  -0.52453
 Alpha  occ. eigenvalues --   -0.52323  -0.52201  -0.51828  -0.51653  -0.51590
 Alpha  occ. eigenvalues --   -0.51317  -0.51144  -0.50926  -0.50399  -0.50257
 Alpha  occ. eigenvalues --   -0.49910  -0.49798  -0.49778  -0.49623  -0.49419
 Alpha  occ. eigenvalues --   -0.49225  -0.49140  -0.49050  -0.48931  -0.48822
 Alpha  occ. eigenvalues --   -0.48503  -0.48325  -0.48318  -0.48271  -0.48206
 Alpha  occ. eigenvalues --   -0.48156  -0.47531  -0.47414  -0.47053  -0.47017
 Alpha  occ. eigenvalues --   -0.46641  -0.46525  -0.46486  -0.46265  -0.46203
 Alpha  occ. eigenvalues --   -0.46080  -0.46024  -0.45898  -0.45771  -0.45561
 Alpha  occ. eigenvalues --   -0.45142  -0.44952  -0.44459  -0.44410  -0.44309
 Alpha  occ. eigenvalues --   -0.44221  -0.44070  -0.44009  -0.43876  -0.43875
 Alpha  occ. eigenvalues --   -0.43813  -0.43735  -0.43505  -0.43322  -0.43229
 Alpha  occ. eigenvalues --   -0.43107  -0.42883  -0.42845  -0.42755  -0.42479
 Alpha  occ. eigenvalues --   -0.42438  -0.42406  -0.41891  -0.41749  -0.41613
 Alpha  occ. eigenvalues --   -0.41429  -0.41389  -0.41249  -0.40927  -0.40868
 Alpha  occ. eigenvalues --   -0.40649  -0.40625  -0.40594  -0.40524  -0.40424
 Alpha  occ. eigenvalues --   -0.40317  -0.40151  -0.39921  -0.39346  -0.39206
 Alpha  occ. eigenvalues --   -0.38279  -0.38214  -0.37582  -0.37452  -0.37194
 Alpha  occ. eigenvalues --   -0.37129  -0.37055  -0.36965  -0.36722  -0.36446
 Alpha  occ. eigenvalues --   -0.36152  -0.35922  -0.34183  -0.33997  -0.33802
 Alpha  occ. eigenvalues --   -0.33481  -0.33105  -0.32897  -0.31199  -0.31053
 Alpha  occ. eigenvalues --   -0.30903  -0.30749  -0.29921  -0.29760  -0.29256
 Alpha  occ. eigenvalues --   -0.29149  -0.29146  -0.29031  -0.23964  -0.23789
 Alpha  occ. eigenvalues --   -0.21046  -0.20838
 Alpha virt. eigenvalues --   -0.08723  -0.08481  -0.01610  -0.01460   0.00041
 Alpha virt. eigenvalues --    0.00241   0.02264   0.02477   0.03351   0.03517
 Alpha virt. eigenvalues --    0.04799   0.05005   0.05214   0.05379   0.06248

 Mulliken charges:
               1
     1  Mg   0.840686
     2  C   -0.002327
     3  C   -0.093247
     4  C   -0.046106
     5  C   -0.064286
     6  N   -0.256727
     7  C   -0.052140
     8  C   -0.014351
     9  C   -0.087192
    10  C    0.046910
    11  C    0.104938
    12  C    0.053259
    13  C   -0.071380
    14  H    0.035418
    15  N   -0.433090
    16  C    0.169300
    17  C   -0.176279
    18  C   -0.003641
    19  C    0.149103
    20  C    0.110113
    21  C    0.012668
    22  O   -0.250499
    23  C    0.061948
    24  N   -0.341168
    25  C    0.041343
    26  C   -0.028059
    27  C   -0.023806
    28  C    0.074786
    29  C    0.076398
    30  C    0.035300
    31  C   -0.004447
    32  N   -0.310361
    33  C    0.080415
    34  C   -0.170041
    35  C    0.008066
    36  C    0.083286
    37  C    0.127367
    38  C    0.046073
    39  O   -0.189329
    40  C   -0.005445
    41  C    0.212488
    42  O   -0.255911
    43  O   -0.305101
    44  C    0.157950
    45  H   -0.017892
    46  H   -0.017411
    47  H   -0.042192
    48  H    0.000246
    49  H   -0.003817
    50  H    0.025097
    51  H    0.016207
    52  H    0.016177
    53  H    0.013122
    54  H    0.045152
    55  H    0.016926
    56  H    0.017968
    57  H    0.005754
    58  H    0.026053
    59  H    0.041699
    60  H    0.036849
    61  H    0.035023
    62  H    0.033821
    63  H    0.016124
    64  H    0.008932
    65  H    0.022638
    66  H    0.012494
    67  H    0.004305
    68  H    0.005544
    69  H    0.004402
    70  H    0.008197
    71  H    0.017500
    72  H    0.030222
    73  H    0.047218
    74  H    0.008687
    75  H    0.045405
    76  H    0.034541
    77  H    0.042038
    78  H    0.046257
    79  H    0.053833
    80  Mg   0.838777
    81  C   -0.016501
    82  C   -0.087732
    83  C   -0.045457
    84  C   -0.064847
    85  N   -0.254573
    86  C   -0.049718
    87  C   -0.015254
    88  C   -0.090538
    89  C    0.045975
    90  C    0.114440
    91  C    0.062453
    92  C   -0.077873
    93  H    0.034971
    94  N   -0.423466
    95  C    0.163211
    96  C   -0.174567
    97  C   -0.007673
    98  C    0.152276
    99  C    0.099406
   100  C    0.015754
   101  O   -0.253199
   102  C    0.061085
   103  N   -0.350105
   104  C    0.037599
   105  C   -0.019827
   106  C   -0.034774
   107  C    0.088943
   108  C    0.073717
   109  C    0.034681
   110  C   -0.007698
   111  N   -0.324106
   112  C    0.078590
   113  C   -0.162935
   114  C    0.001839
   115  C    0.096646
   116  C    0.131448
   117  C    0.042571
   118  O   -0.189284
   119  C    0.000861
   120  C    0.210609
   121  O   -0.249784
   122  O   -0.305881
   123  C    0.152239
   124  H   -0.019798
   125  H   -0.015607
   126  H   -0.040407
   127  H   -0.001078
   128  H   -0.004267
   129  H    0.022199
   130  H    0.014368
   131  H    0.016092
   132  H    0.014468
   133  H    0.038331
   134  H    0.020248
   135  H    0.019671
   136  H    0.008705
   137  H    0.025974
   138  H    0.040142
   139  H    0.038080
   140  H    0.036402
   141  H    0.034294
   142  H    0.014490
   143  H    0.012224
   144  H    0.025052
   145  H    0.011507
   146  H    0.005521
   147  H    0.006018
   148  H    0.003789
   149  H    0.010849
   150  H    0.018067
   151  H    0.030570
   152  H    0.045628
   153  H    0.009014
   154  H    0.046431
   155  H    0.034545
   156  H    0.042683
   157  H    0.049682
   158  H    0.053816
 Sum of Mulliken charges =  -0.00000

 Dipole moment (field-independent basis, Debye):
    X=              1.9202    Y=              2.9462    Z=             -2.8698  Tot=              4.5391
 Quadrupole moment (field-independent basis, Debye-Ang):
   XX=           -449.6969   YY=           -463.2000   ZZ=           -533.8667
   XY=             22.3129   XZ=             24.1029   YZ=            -16.9486

 Normal termination of Gaussian 16 at Sat Sep 11 08:52:41 2021.
