 Gaussian 16, Revision A.03,
 Gaussian 16:  ES64L-G16RevA.03 25-Dec-2016

 -----------------------------------
 #p cam-b3lyp/Def2SVP td=(nstates=5)
 -----------------------------------

 --------------------------------
 TDDFT excited states in gaussian
 --------------------------------
 Symbolic Z-matrix:
 Charge =  0 Multiplicity = 1

                         Standard orientation:
 ---------------------------------------------------------------------
 Center     Atomic      Atomic             Coordinates (Angstroms)
 Number     Number       Type             X           Y           Z
 ---------------------------------------------------------------------
      1         12           0       -7.770634   -0.936876   -0.034963
      2          6           0       -8.054803    2.615879    0.295782
      3          6           0       -8.610153   -0.548850   -3.319428
      4          6           0       -7.970681   -4.094839   -0.244416
      5          6           0       -8.074419   -1.135710    3.431136
      6          7           0       -8.246589    0.856860   -1.241870
      7          6           0       -8.261810    2.165751   -1.010042
      8          6           0       -8.443669    3.019664   -2.300443
      9          6           0       -9.160785    1.933914   -3.221795
     10          6           0       -8.613383    0.671168   -2.580119
     11          6           0      -10.680472    1.932154   -3.091215
     12          6           0       -7.075058    3.474430   -2.910216
     13          6           0       -7.166148    4.573530   -3.972777
     14          1           0       -6.110960    5.573342   -4.038354
     15          7           0       -7.743440   -2.120251   -1.616650
     16          6           0       -8.102967   -1.791063   -2.880636
     17          6           0       -7.905843   -3.011863   -3.691482
     18          6           0       -7.583622   -4.129101   -2.760866
     19          6           0       -7.781333   -3.490254   -1.484871
     20          6           0       -7.979814   -3.026837   -5.187495
     21          6           0       -7.174266   -5.550342   -2.985884
     22          8           0       -7.168844   -6.413992   -2.043200
     23          6           0       -6.860553   -5.931573   -4.374872
     24          7           0       -8.210439   -2.427446    1.358740
     25          6           0       -8.172394   -3.721024    1.020820
     26          6           0       -8.241154   -4.603879    2.231513
     27          6           0       -8.089076   -3.636823    3.493031
     28          6           0       -8.038425   -2.281048    2.746320
     29          6           0       -9.520920   -5.438331    2.379501
     30          6           0       -6.958788   -3.966975    4.499942
     31          6           0       -5.611432   -3.750703    3.848055
     32          7           0       -7.843383    0.471975    1.614549
     33          6           0       -7.995875    0.169683    2.975446
     34          6           0       -8.097676    1.453041    3.694264
     35          6           0       -8.013421    2.418766    2.693204
     36          6           0       -7.894568    1.778767    1.426489
     37          6           0       -8.305374    1.610586    5.093004
     38          6           0       -8.020913    3.842080    2.396592
     39          8           0       -8.003014    4.869543    3.075923
     40          6           0       -8.170553    4.024943    0.821791
     41          6           0       -7.138974    5.027172    0.380553
     42          8           0       -5.921209    4.761730    0.443441
     43          8           0       -7.746219    6.036682   -0.261852
     44          6           0       -6.775917    7.051811   -0.751936
     45          1           0       -9.091295   -0.573607   -4.299137
     46          1           0       -7.934711   -5.186134   -0.259222
     47          1           0       -8.085826   -1.117740    4.522465
     48          1           0       -9.087844    3.891085   -2.181750
     49          1           0       -8.836167    2.002822   -4.259868
     50          1           0      -11.012158    2.591006   -2.288831
     51          1           0      -10.952637    0.899341   -2.872776
     52          1           0      -11.151496    2.170802   -4.045134
     53          1           0       -6.664396    2.665652   -3.514612
     54          1           0       -6.387942    3.789127   -2.123982
     55          1           0       -8.145936    5.051970   -3.968347
     56          1           0       -7.097605    4.105628   -4.954902
     57          1           0       -8.395636   -2.098535   -5.577228
     58          1           0       -8.709660   -3.787991   -5.462593
     59          1           0       -7.017250   -3.258582   -5.643670
     60          1           0       -7.732689   -5.750522   -5.003480
     61          1           0       -6.501860   -6.959317   -4.330909
     62          1           0       -6.071361   -5.279527   -4.750321
     63          1           0       -7.426297   -5.326665    2.235219
     64          1           0       -8.991853   -3.616470    4.103975
     65          1           0       -9.338332   -6.510655    2.453579
     66          1           0      -10.171675   -5.209799    1.535948
     67          1           0      -10.153025   -5.160194    3.222413
     68          1           0       -7.007894   -5.014583    4.794990
     69          1           0       -7.001283   -3.364504    5.407397
     70          1           0       -5.447040   -4.685341    3.313022
     71          1           0       -4.842967   -3.594248    4.605811
     72          1           0       -5.651686   -2.953141    3.105924
     73          1           0       -7.628190    2.401713    5.414731
     74          1           0       -8.112361    0.681627    5.629086
     75          1           0       -9.358235    1.891722    5.110405
     76          1           0       -9.186039    4.376559    0.642139
     77          1           0       -7.082631    8.013697   -0.340918
     78          1           0       -6.744641    6.952057   -1.837051
     79          1           0       -5.760368    6.975715   -0.361796
     80         12           0        8.107446   -0.587580    0.174462
     81          6           0        7.062062    2.841204    0.346836
     82          6           0        8.035333   -0.283053   -3.222108
     83          6           0        8.587971   -3.718052   -0.017053
     84          6           0        7.006599   -0.943660    3.461867
     85          7           0        7.599042    1.110603   -1.148399
     86          6           0        7.275785    2.382594   -0.969758
     87          6           0        7.254399    3.229574   -2.270420
     88          6           0        7.005695    2.044385   -3.325104
     89          6           0        7.614204    0.885352   -2.538308
     90          6           0        5.534174    1.743931   -3.556799
     91          6           0        8.620394    3.955402   -2.533578
     92          6           0        8.575093    5.039705   -3.612460
     93          1           0        9.405579    6.228400   -3.439902
     94          7           0        8.755765   -1.697210   -1.337804
     95          6           0        8.665400   -1.411910   -2.653751
     96          6           0        9.270445   -2.554491   -3.355605
     97          6           0        9.576512   -3.611685   -2.353914
     98          6           0        8.952602   -3.045971   -1.174596
     99          6           0        9.576978   -2.537230   -4.825016
    100          6           0       10.298686   -4.921745   -2.445539
    101          8           0       10.240027   -5.790198   -1.504700
    102          6           0       10.999940   -5.196865   -3.708094
    103          7           0        7.645841   -2.165380    1.447178
    104          6           0        8.013576   -3.423994    1.149538
    105          6           0        7.820433   -4.342862    2.332228
    106          6           0        7.472308   -3.387227    3.566387
    107          6           0        7.435115   -2.028977    2.832103
    108          6           0        6.725805   -5.399119    2.182217
    109          6           0        8.363280   -3.519185    4.831860
    110          6           0        9.764651   -3.039979    4.528651
    111          7           0        7.369376    0.730666    1.718986
    112          6           0        6.940553    0.369913    3.015152
    113          6           0        6.418726    1.593686    3.657421
    114          6           0        6.560053    2.584657    2.674316
    115          6           0        7.111045    2.014255    1.495098
    116          6           0        5.857950    1.673434    4.963297
    117          6           0        6.358561    3.981347    2.362321
    118          8           0        6.003620    4.971567    3.000456
    119          6           0        6.557226    4.183555    0.798340
    120          6           0        7.453531    5.374108    0.594067
    121          8           0        8.638421    5.345206    0.970634
    122          8           0        6.831110    6.262882   -0.201568
    123          6           0        7.684926    7.456529   -0.442468
    124          1           0        7.826669   -0.363250   -4.289301
    125          1           0        8.835565   -4.781781    0.008405
    126          1           0        6.735802   -0.951278    4.519834
    127          1           0        6.450297    3.953360   -2.328005
    128          1           0        7.558704    2.212290   -4.245616
    129          1           0        4.898657    2.299119   -2.882999
    130          1           0        5.421741    0.680211   -3.392736
    131          1           0        5.274804    1.916216   -4.605316
    132          1           0        9.315805    3.249527   -3.005701
    133          1           0        9.014810    4.366310   -1.624619
    134          1           0        7.547114    5.323058   -3.869173
    135          1           0        8.977933    4.624086   -4.539277
    136          1           0        9.089294   -1.692955   -5.327777
    137          1           0        9.103169   -3.423422   -5.260932
    138          1           0       10.648699   -2.571509   -5.032152
    139          1           0       10.288978   -5.165675   -4.530306
    140          1           0       11.529127   -6.138468   -3.549283
    141          1           0       11.724414   -4.394730   -3.887893
    142          1           0        8.731587   -4.884958    2.553637
    143          1           0        6.455968   -3.566763    3.946716
    144          1           0        7.094738   -6.432836    2.321428
    145          1           0        6.272980   -5.285182    1.206245
    146          1           0        5.873051   -5.278254    2.848091
    147          1           0        8.450731   -4.568055    5.125756
    148          1           0        7.979715   -2.975533    5.688770
    149          1           0       10.229790   -3.915064    4.065022
    150          1           0       10.279715   -2.758089    5.444777
    151          1           0        9.753300   -2.237982    3.781441
    152          1           0        6.263352    2.565324    5.422281
    153          1           0        6.086017    0.785237    5.548844
    154          1           0        4.795212    1.739979    4.715451
    155          1           0        5.570149    4.334139    0.359491
    156          1           0        7.102203    8.332331   -0.140687
    157          1           0        7.990327    7.396058   -1.503990
    158          1           0        8.571246    7.570727    0.170602
 ---------------------------------------------------------------------

 SCF Done:  E(RCAM-B3LYP) =  -4069.81159279     A.U. after   19 cycles

 Excitation energies and oscillator strengths:

 Excited State   1:      Singlet-A      1.6698 eV  742.51 nm  f=0.0343  <S**2>=0.000
     309 -> 315       -0.10499
     310 -> 316        0.13680
     311 -> 313       -0.41644
     312 -> 314        0.54558
 This state for optimization and/or second-order correction.
 Total Energy, E(TD-HF/TD-DFT) =  -4069.75022921
 Copying the excited state density for this state as the 1-particle RhoCI density.

 Excited State   2:      Singlet-A      1.6854 eV  735.62 nm  f=0.7239  <S**2>=0.000
     309 -> 315        0.14064
     310 -> 316        0.10678
     311 -> 313        0.54475
     312 -> 314        0.41592

 Excited State   3:      Singlet-A      2.1855 eV  567.30 nm  f=0.0541  <S**2>=0.000
     309 -> 313        0.15155
     310 -> 314        0.62458
     312 -> 316       -0.26511

 Excited State   4:      Singlet-A      2.1928 eV  565.42 nm  f=0.1389  <S**2>=0.000
     309 -> 313        0.62263
     310 -> 314       -0.15044
     311 -> 315       -0.27071

 Excited State   5:      Singlet-A      2.7718 eV  447.31 nm  f=0.0000  <S**2>=0.000
     312 -> 313        0.70710

 The electronic state is 1-A.
 Alpha  occ. eigenvalues --  -46.87795 -46.87582 -19.26258 -19.26254 -19.19071
 Alpha  occ. eigenvalues --  -19.18989 -19.18822 -19.18650 -19.18150 -19.17948
 Alpha  occ. eigenvalues --  -14.42449 -14.42421 -14.41448 -14.41281 -14.39402
 Alpha  occ. eigenvalues --  -14.39275 -14.38582 -14.38517 -10.39051 -10.39000
 Alpha  occ. eigenvalues --  -10.35456 -10.35329 -10.34370 -10.34125 -10.31671
 Alpha  occ. eigenvalues --  -10.31644 -10.31401 -10.31227 -10.30949 -10.30910
 Alpha  occ. eigenvalues --  -10.30565 -10.30503 -10.30316 -10.30277 -10.30209
 Alpha  occ. eigenvalues --  -10.30069 -10.29916 -10.29812 -10.29627 -10.29362
 Alpha  occ. eigenvalues --  -10.29320 -10.29255 -10.28751 -10.28647 -10.28600
 Alpha  occ. eigenvalues --  -10.28550 -10.28362 -10.28324 -10.28119 -10.28069
 Alpha  occ. eigenvalues --  -10.27917 -10.27788 -10.27727 -10.27594 -10.27584
 Alpha  occ. eigenvalues --  -10.27502 -10.27495 -10.27450 -10.27447 -10.27412
 Alpha  occ. eigenvalues --  -10.27403 -10.27399 -10.27389 -10.27304 -10.27141
 Alpha  occ. eigenvalues --  -10.26950 -10.26712 -10.26629 -10.26428 -10.26367
 Alpha  occ. eigenvalues --  -10.26235 -10.26187 -10.26073 -10.26017 -10.25952
 Alpha  occ. eigenvalues --  -10.25856 -10.25823 -10.25738 -10.25435 -10.25326
 Alpha  occ. eigenvalues --  -10.24825 -10.24786 -10.24785 -10.24694 -10.24670
 Alpha  occ. eigenvalues --  -10.24612  -3.16538  -3.16332  -1.91420  -1.91214
 Alpha  occ. eigenvalues --   -1.91006  -1.90848  -1.90803  -1.90639  -1.16603
 Alpha  occ. eigenvalues --   -1.16552  -1.08606  -1.08553  -1.07224  -1.06904
 Alpha  occ. eigenvalues --   -1.06855  -1.06612  -1.04580  -1.04417  -1.03759
 Alpha  occ. eigenvalues --   -1.03585  -1.03231  -1.02959  -1.02409  -1.02031
 Alpha  occ. eigenvalues --   -0.91965  -0.91901  -0.89519  -0.89419  -0.89189
 Alpha  occ. eigenvalues --   -0.89079  -0.88286  -0.88147  -0.87861  -0.87701
 Alpha  occ. eigenvalues --   -0.87673  -0.87608  -0.87279  -0.87052  -0.84983
 Alpha  occ. eigenvalues --   -0.84928  -0.83935  -0.83803  -0.82975  -0.82869
 Alpha  occ. eigenvalues --   -0.82648  -0.82582  -0.81571  -0.81512  -0.80590
 Alpha  occ. eigenvalues --   -0.80364  -0.78798  -0.78560  -0.77218  -0.77071
 Alpha  occ. eigenvalues --   -0.76930  -0.76823  -0.75916  -0.75760  -0.74895
 Alpha  occ. eigenvalues --   -0.74728  -0.72770  -0.72617  -0.71669  -0.71503
 Alpha  occ. eigenvalues --   -0.69908  -0.69688  -0.68874  -0.68755  -0.67638
 Alpha  occ. eigenvalues --   -0.67523  -0.67225  -0.67133  -0.65285  -0.65196
 Alpha  occ. eigenvalues --   -0.64847  -0.64691  -0.64616  -0.64576  -0.64268
 Alpha  occ. eigenvalues --   -0.64129  -0.62280  -0.62194  -0.60445  -0.60268
 Alpha  occ. eigenvalues --   -0.59804  -0.59721  -0.58983  -0.58913  -0.58498
 Alpha  occ. eigenvalues --   -0.58345  -0.57568  -0.57461  -0.57304  -0.57159
 Alpha  occ. eigenvalues --   -0.56305  -0.56124  -0.55962  -0.55806  -0.55520
 Alpha  occ. eigenvalues --   -0.55377  -0.55331  -0.55168  -0.54511  -0.54409
 Alpha  occ. eigenvalues --   -0.53896  -0.53841  -0.53298  -0.53221  -0.53151
 Alpha  occ. eigenvalues --   -0.53067  -0.52905  -0.52825  -0.52762  -0.52605
 Alpha  occ. eigenvalues --   -0.52438  -0.52332  -0.51900  -0.51783  -0.51617
 Alpha  occ. eigenvalues --   -0.51589  -0.51188  -0.51117  -0.50584  -0.50416
 Alpha  occ. eigenvalues --   -0.50034  -0.49923  -0.49910  -0.49796  -0.49515
 Alpha  occ. eigenvalues --   -0.49418  -0.49208  -0.49123  -0.49093  -0.49023
 Alpha  occ. eigenvalues --   -0.48583  -0.48477  -0.48462  -0.48439  -0.48299
 Alpha  occ. eigenvalues --   -0.48267  -0.47694  -0.47522  -0.47296  -0.47047
 Alpha  occ. eigenvalues --   -0.46795  -0.46633  -0.46556  -0.46484  -0.46355
 Alpha  occ. eigenvalues --   -0.46194  -0.46154  -0.46002  -0.45807  -0.45733
 Alpha  occ. eigenvalues --   -0.45200  -0.45134  -0.44566  -0.44511  -0.44433
 Alpha  occ. eigenvalues --   -0.44402  -0.44144  -0.44089  -0.44050  -0.44012
 Alpha  occ. eigenvalues --   -0.44005  -0.43863  -0.43480  -0.43471  -0.43386
 Alpha  occ. eigenvalues --   -0.43308  -0.43022  -0.42848  -0.42814  -0.42688
 Alpha  occ. eigenvalues --   -0.42642  -0.42483  -0.42007  -0.41892  -0.41697
 Alpha  occ. eigenvalues --   -0.41583  -0.41535  -0.41388  -0.41139  -0.40913
 Alpha  occ. eigenvalues --   -0.40872  -0.40831  -0.40658  -0.40631  -0.40570
 Alpha  occ. eigenvalues --   -0.40420  -0.40241  -0.40163  -0.39444  -0.39357
 Alpha  occ. eigenvalues --   -0.38470  -0.38279  -0.37751  -0.37586  -0.37320
 Alpha  occ. eigenvalues --   -0.37263  -0.37192  -0.37125  -0.36694  -0.36686
 Alpha  occ. eigenvalues --   -0.36182  -0.36140  -0.34282  -0.34173  -0.33774
 Alpha  occ. eigenvalues --   -0.33745  -0.33181  -0.33096  -0.31351  -0.31209
 Alpha  occ. eigenvalues --   -0.31033  -0.30894  -0.30009  -0.29851  -0.29448
 Alpha  occ. eigenvalues --   -0.29315  -0.29250  -0.29123  -0.24078  -0.23956
 Alpha  occ. eigenvalues --   -0.21125  -0.21038
 Alpha virt. eigenvalues --   -0.08772  -0.08712  -0.01749  -0.01607  -0.00059
 Alpha virt. eigenvalues --    0.00045   0.02211   0.02299   0.03121   0.03297
 Alpha virt. eigenvalues --    0.04717   0.04804   0.05124   0.05256   0.06174

 Mulliken charges:
               1
     1  Mg   0.838709
     2  C   -0.002902
     3  C   -0.094262
     4  C   -0.045912
     5  C   -0.063949
     6  N   -0.256767
     7  C   -0.052471
     8  C   -0.013979
     9  C   -0.086969
    10  C    0.046257
    11  C    0.104822
    12  C    0.053518
    13  C   -0.071702
    14  H    0.036043
    15  N   -0.433117
    16  C    0.168323
    17  C   -0.177315
    18  C   -0.004100
    19  C    0.148650
    20  C    0.110228
    21  C    0.012189
    22  O   -0.249667
    23  C    0.062540
    24  N   -0.341157
    25  C    0.041210
    26  C   -0.028172
    27  C   -0.023970
    28  C    0.074859
    29  C    0.076172
    30  C    0.035114
    31  C   -0.004480
    32  N   -0.310542
    33  C    0.080509
    34  C   -0.169507
    35  C    0.008517
    36  C    0.083067
    37  C    0.127242
    38  C    0.046360
    39  O   -0.187953
    40  C   -0.005437
    41  C    0.212963
    42  O   -0.256852
    43  O   -0.304893
    44  C    0.157542
    45  H   -0.017723
    46  H   -0.016899
    47  H   -0.041388
    48  H    0.001032
    49  H   -0.004224
    50  H    0.025541
    51  H    0.016452
    52  H    0.016574
    53  H    0.010935
    54  H    0.044289
    55  H    0.017966
    56  H    0.017668
    57  H    0.005764
    58  H    0.026777
    59  H    0.039194
    60  H    0.037333
    61  H    0.035578
    62  H    0.031246
    63  H    0.016468
    64  H    0.009519
    65  H    0.023169
    66  H    0.012549
    67  H    0.004777
    68  H    0.006321
    69  H    0.004840
    70  H    0.008663
    71  H    0.018065
    72  H    0.029041
    73  H    0.047989
    74  H    0.009132
    75  H    0.046051
    76  H    0.035156
    77  H    0.043142
    78  H    0.046119
    79  H    0.054118
    80  Mg   0.837822
    81  C   -0.016735
    82  C   -0.087881
    83  C   -0.045555
    84  C   -0.064761
    85  N   -0.254531
    86  C   -0.049690
    87  C   -0.015117
    88  C   -0.090527
    89  C    0.045748
    90  C    0.114371
    91  C    0.062572
    92  C   -0.077744
    93  H    0.034744
    94  N   -0.423453
    95  C    0.162814
    96  C   -0.174832
    97  C   -0.007955
    98  C    0.152043
    99  C    0.099472
   100  C    0.015433
   101  O   -0.253335
   102  C    0.061254
   103  N   -0.350004
   104  C    0.037477
   105  C   -0.019822
   106  C   -0.034822
   107  C    0.089000
   108  C    0.073668
   109  C    0.034730
   110  C   -0.007644
   111  N   -0.324224
   112  C    0.078571
   113  C   -0.162890
   114  C    0.002612
   115  C    0.096179
   116  C    0.131430
   117  C    0.042817
   118  O   -0.187148
   119  C    0.000731
   120  C    0.211258
   121  O   -0.251216
   122  O   -0.305444
   123  C    0.152078
   124  H   -0.020019
   125  H   -0.015730
   126  H   -0.040332
   127  H   -0.000422
   128  H   -0.004641
   129  H    0.023051
   130  H    0.014397
   131  H    0.015757
   132  H    0.013796
   133  H    0.037713
   134  H    0.020770
   135  H    0.019343
   136  H    0.008525
   137  H    0.025827
   138  H    0.039556
   139  H    0.038090
   140  H    0.036201
   141  H    0.033807
   142  H    0.014243
   143  H    0.012552
   144  H    0.024953
   145  H    0.011704
   146  H    0.005748
   147  H    0.006134
   148  H    0.003700
   149  H    0.010832
   150  H    0.017846
   151  H    0.030149
   152  H    0.046076
   153  H    0.008319
   154  H    0.047979
   155  H    0.035801
   156  H    0.044095
   157  H    0.049219
   158  H    0.053465
 Sum of Mulliken charges =  -0.00000

 Dipole moment (field-independent basis, Debye):
    X=             -2.6616    Y=             -2.3728    Z=             -8.0603  Tot=              8.8138
 Quadrupole moment (field-independent basis, Debye-Ang):
   XX=           -498.4160   YY=           -547.5776   ZZ=           -451.7124
   XY=              4.5820   XZ=             -4.8435   YZ=            -51.8727

 Normal termination of Gaussian 16 at Sun Sep 12 05:26:14 2021.
