 Gaussian 16, Revision A.03,
 Gaussian 16:  ES64L-G16RevA.03 25-Dec-2016

 -----------------------------------
 #p cam-b3lyp/Def2SVP td=(nstates=5)
 -----------------------------------

 --------------------------------
 TDDFT excited states in gaussian
 --------------------------------
 Symbolic Z-matrix:
 Charge =  0 Multiplicity = 1

                         Standard orientation:
 ---------------------------------------------------------------------
 Center     Atomic      Atomic             Coordinates (Angstroms)
 Number     Number       Type             X           Y           Z
 ---------------------------------------------------------------------
      1         12           0       -7.589431    0.714380   -0.214517
      2          6           0       -7.932458   -2.370391    1.568384
      3          6           0       -8.485138    2.307346    2.667016
      4          6           0       -7.735763    3.410037   -1.878440
      5          6           0       -7.837382   -1.131253   -3.160331
      6          7           0       -8.115691   -0.044600    1.797359
      7          6           0       -8.150966   -1.245367    2.366645
      8          6           0       -8.367560   -1.191939    3.908594
      9          6           0       -9.078815    0.231108    4.013725
     10          6           0       -8.499187    0.884712    2.771648
     11          6           0      -10.596086    0.165856    3.871840
     12          6           0       -7.016686   -1.217083    4.699945
     13          6           0       -7.143518   -1.496054    6.200426
     14          1           0       -6.107594   -2.278924    6.857180
     15          7           0       -7.564763    2.595377    0.388883
     16          6           0       -7.949139    3.062080    1.601207
     17          6           0       -7.742312    4.525674    1.558800
     18          6           0       -7.386072    4.894547    0.160544
     19          6           0       -7.576015    3.635453   -0.513239
     20          6           0       -7.838512    5.405614    2.767188
     21          6           0       -6.954648    6.180568   -0.470451
     22          8           0       -6.919501    6.337707   -1.738775
     23          6           0       -6.655070    7.294580    0.447303
     24          7           0       -7.981321    1.123487   -2.223668
     25          6           0       -7.925101    2.373148   -2.697134
     26          6           0       -7.959736    2.390998   -4.196607
     27          6           0       -7.806108    0.870805   -4.660464
     28          6           0       -7.791102    0.198747   -3.265336
     29          6           0       -9.221910    2.992691   -4.829769
     30          6           0       -6.655036    0.549352   -5.646425
     31          6           0       -5.321753    0.743070   -4.959454
     32          7           0       -7.662677   -1.389381   -0.743543
     33          6           0       -7.789204   -1.931144   -2.030850
     34          6           0       -7.903245   -3.392920   -1.875057
     35          6           0       -7.851455   -3.599917   -0.497990
     36          6           0       -7.740188   -2.344797    0.165777
     37          6           0       -8.092666   -4.330960   -2.927974
     38          6           0       -7.889016   -4.587600    0.568279
     39          8           0       -7.879380   -5.818698    0.610667
     40          6           0       -8.065608   -3.822728    1.953780
     41          6           0       -7.058985   -4.389640    2.917435
     42          8           0       -5.835833   -4.217047    2.740016
     43          8           0       -7.693894   -4.836136    4.012001
     44          6           0       -6.749498   -5.384876    5.021532
     45          1           0       -8.980450    2.898351    3.439882
     46          1           0       -7.680393    4.307572   -2.497959
     47          1           0       -7.832683   -1.778516   -4.039240
     48          1           0       -9.025449   -1.966943    4.302263
     49          1           0       -8.771151    0.774851    4.906703
     50          1           0      -10.927456   -0.834170    3.592441
     51          1           0      -10.846308    0.882347    3.089202
     52          1           0      -11.085632    0.527231    4.776566
     53          1           0       -6.600684   -0.210150    4.732963
     54          1           0       -6.323586   -1.933380    4.257389
     55          1           0       -8.131577   -1.882633    6.451834
     56          1           0       -7.081359   -0.545846    6.730935
     57          1           0       -8.276786    4.877664    3.613196
     58          1           0       -8.558605    6.189602    2.533654
     59          1           0       -6.878910    5.853187    3.026366
     60          1           0       -7.539685    7.516667    1.044531
     61          1           0       -6.277325    8.104348   -0.175942
     62          1           0       -5.883477    6.976287    1.148932
     63          1           0       -7.132044    2.972926   -4.599983
     64          1           0       -8.699807    0.505388   -5.166870
     65          1           0       -9.018965    3.822368   -5.507377
     66          1           0       -9.889294    3.299392   -4.024894
     67          1           0       -9.846157    2.281150   -5.369623
     68          1           0       -6.680841    1.232160   -6.494984
     69          1           0       -6.694698   -0.467366   -6.037530
     70          1           0       -5.148646    1.813798   -5.061468
     71          1           0       -4.544908    0.171731   -5.468664
     72          1           0       -5.387516    0.523716   -3.893600
     73          1           0       -7.425058   -5.166091   -2.716253
     74          1           0       -7.874924   -3.885998   -3.898644
     75          1           0       -9.150033   -4.563865   -2.803128
     76          1           0       -9.089845   -3.999041    2.280849
     77          1           0       -7.067246   -6.405065    5.237138
     78          1           0       -6.732769   -4.674698    5.848438
     79          1           0       -5.726987   -5.555081    4.682651
     80         12           0        8.264173    0.217805    0.175198
     81          6           0        5.950696   -1.784209   -1.700650
     82          6           0        6.534273    2.954940   -0.897242
     83          6           0       10.540223    2.029404    1.442128
     84          6           0       10.430507   -2.512063    0.152221
     85          7           0        6.488865    0.429463   -1.127005
     86          6           0        5.657220   -0.404969   -1.732352
     87          6           0        4.399196    0.269988   -2.341742
     88          6           0        4.986974    1.753169   -2.524926
     89          6           0        6.048270    1.732854   -1.426785
     90          6           0        5.683871    1.963849   -3.858830
     91          6           0        3.176691    0.254008   -1.358248
     92          6           0        1.833521    0.615877   -1.995971
     93          1           0        0.631018   -0.060262   -1.517116
     94          7           0        8.248366    2.138890    0.672919
     95          6           0        7.465815    3.107755    0.153098
     96          6           0        7.853337    4.349646    0.839895
     97          6           0        9.041677    4.064767    1.689254
     98          6           0        9.342065    2.708653    1.275996
     99          6           0        7.070358    5.624702    0.719024
    100          6           0        9.792236    4.882610    2.696228
    101          8           0       10.937997    4.518173    3.140371
    102          6           0        9.189605    6.168484    3.076795
    103          7           0       10.285827   -0.105527    0.536772
    104          6           0       11.036902    0.827924    1.147079
    105          6           0       12.381922    0.269923    1.547029
    106          6           0       12.285803   -1.306168    1.293477
    107          6           0       10.870233   -1.377917    0.679959
    108          6           0       13.586647    0.833740    0.793949
    109          6           0       12.618951   -2.233736    2.494023
    110          6           0       11.565610   -2.085925    3.568271
    111          7           0        8.158803   -1.846170   -0.454845
    112          6           0        9.189943   -2.809248   -0.397413
    113          6           0        8.678561   -4.033851   -1.046451
    114          6           0        7.383276   -3.688120   -1.460210
    115          6           0        7.114273   -2.336667   -1.112770
    116          6           0        9.406078   -5.243275   -1.231217
    117          6           0        6.186255   -4.155823   -2.121334
    118          8           0        5.799694   -5.241396   -2.552416
    119          6           0        5.251774   -2.905006   -2.418951
    120          6           0        3.855392   -3.254060   -1.982156
    121          8           0        3.598674   -3.447312   -0.780753
    122          8           0        3.014936   -3.089214   -3.019857
    123          6           0        1.615818   -3.412656   -2.632967
    124          1           0        6.203846    3.887144   -1.356260
    125          1           0       11.322018    2.575766    1.974816
    126          1           0       11.009252   -3.437355    0.191771
    127          1           0        4.089444   -0.128250   -3.300509
    128          1           0        4.232524    2.506105   -2.312179
    129          1           0        5.772497    1.043583   -4.416863
    130          1           0        6.663261    2.357374   -3.620126
    131          1           0        5.175834    2.746026   -4.430173
    132          1           0        3.277484    1.084930   -0.648207
    133          1           0        3.097988   -0.694560   -0.863635
    134          1           0        1.877566    0.591602   -3.091610
    135          1           0        1.606952    1.658441   -1.759885
    136          1           0        6.345347    5.575158   -0.102744
    137          1           0        7.775365    6.405029    0.412570
    138          1           0        6.601305    5.921716    1.659469
    139          1           0        9.067343    6.786411    2.190417
    140          1           0        9.825115    6.565450    3.870798
    141          1           0        8.184499    5.980847    3.470718
    142          1           0       12.576484    0.445576    2.597933
    143          1           0       12.984602   -1.636315    0.510847
    144          1           0       14.348804    1.279238    1.460827
    145          1           0       13.231326    1.565321    0.080455
    146          1           0       14.106572    0.121722    0.155273
    147          1           0       13.568496   -1.939501    2.947840
    148          1           0       12.703171   -3.280303    2.220888
    149          1           0       11.894592   -1.197704    4.115914
    150          1           0       11.549319   -2.963026    4.212060
    151          1           0       10.586347   -1.859499    3.130750
    152          1           0        8.732544   -6.052770   -0.983108
    153          1           0       10.301641   -5.266801   -0.613814
    154          1           0        9.643293   -5.167493   -2.295764
    155          1           0        5.307236   -2.701911   -3.489122
    156          1           0        1.258713   -4.174318   -3.332996
    157          1           0        1.077714   -2.446181   -2.622558
    158          1           0        1.460784   -3.909653   -1.682485
 ---------------------------------------------------------------------

 SCF Done:  E(RCAM-B3LYP) =  -4069.81171005     A.U. after   19 cycles

 Excitation energies and oscillator strengths:

 Excited State   1:      Singlet-A      1.6692 eV  742.79 nm  f=0.0147  <S**2>=0.000
     309 -> 315       -0.10639
     310 -> 316        0.13519
     311 -> 313       -0.42310
     312 -> 314        0.54051
 This state for optimization and/or second-order correction.
 Total Energy, E(TD-HF/TD-DFT) =  -4069.75036912
 Copying the excited state density for this state as the 1-particle RhoCI density.

 Excited State   2:      Singlet-A      1.6858 eV  735.47 nm  f=0.7389  <S**2>=0.000
     309 -> 315        0.13919
     310 -> 316        0.10845
     311 -> 313        0.53960
     312 -> 314        0.42249

 Excited State   3:      Singlet-A      2.1853 eV  567.35 nm  f=0.0950  <S**2>=0.000
     310 -> 314        0.63690
     312 -> 316       -0.27002

 Excited State   4:      Singlet-A      2.1923 eV  565.55 nm  f=0.1056  <S**2>=0.000
     309 -> 313        0.63495
     311 -> 315       -0.27555

 Excited State   5:      Singlet-A      2.7492 eV  450.98 nm  f=0.0000  <S**2>=0.000
     312 -> 313        0.70697

 The electronic state is 1-A.
 Alpha  occ. eigenvalues --  -46.87877 -46.87570 -19.26269 -19.26129 -19.19016
 Alpha  occ. eigenvalues --  -19.18957 -19.18920 -19.18647 -19.18214 -19.17934
 Alpha  occ. eigenvalues --  -14.42522 -14.42403 -14.41532 -14.41271 -14.39484
 Alpha  occ. eigenvalues --  -14.39263 -14.38664 -14.38507 -10.39080 -10.38895
 Alpha  occ. eigenvalues --  -10.35554 -10.35326 -10.34432 -10.34107 -10.31635
 Alpha  occ. eigenvalues --  -10.31476 -10.31467 -10.31207 -10.30974 -10.30924
 Alpha  occ. eigenvalues --  -10.30641 -10.30588 -10.30308 -10.30298 -10.30264
 Alpha  occ. eigenvalues --  -10.30064 -10.30004 -10.29807 -10.29709 -10.29355
 Alpha  occ. eigenvalues --  -10.29337 -10.29312 -10.28785 -10.28592 -10.28533
 Alpha  occ. eigenvalues --  -10.28463 -10.28437 -10.28309 -10.28159 -10.28028
 Alpha  occ. eigenvalues --  -10.27910 -10.27865 -10.27798 -10.27666 -10.27606
 Alpha  occ. eigenvalues --  -10.27578 -10.27563 -10.27551 -10.27470 -10.27450
 Alpha  occ. eigenvalues --  -10.27399 -10.27383 -10.27380 -10.27308 -10.27192
 Alpha  occ. eigenvalues --  -10.26914 -10.26722 -10.26533 -10.26529 -10.26368
 Alpha  occ. eigenvalues --  -10.26314 -10.26273 -10.26103 -10.26076 -10.25926
 Alpha  occ. eigenvalues --  -10.25904 -10.25849 -10.25762 -10.25527 -10.25339
 Alpha  occ. eigenvalues --  -10.24902 -10.24870 -10.24854 -10.24778 -10.24669
 Alpha  occ. eigenvalues --  -10.24602  -3.16620  -3.16320  -1.91502  -1.91202
 Alpha  occ. eigenvalues --   -1.91088  -1.90930  -1.90790  -1.90627  -1.16620
 Alpha  occ. eigenvalues --   -1.16428  -1.08666  -1.08533  -1.07323  -1.06901
 Alpha  occ. eigenvalues --   -1.06743  -1.06638  -1.04650  -1.04398  -1.03840
 Alpha  occ. eigenvalues --   -1.03572  -1.03313  -1.02951  -1.02489  -1.02021
 Alpha  occ. eigenvalues --   -0.92033  -0.91880  -0.89615  -0.89411  -0.89231
 Alpha  occ. eigenvalues --   -0.89034  -0.88381  -0.88142  -0.87938  -0.87740
 Alpha  occ. eigenvalues --   -0.87701  -0.87585  -0.87361  -0.87044  -0.85033
 Alpha  occ. eigenvalues --   -0.84884  -0.84034  -0.83794  -0.83068  -0.82863
 Alpha  occ. eigenvalues --   -0.82706  -0.82542  -0.81619  -0.81445  -0.80653
 Alpha  occ. eigenvalues --   -0.80318  -0.78876  -0.78552  -0.77292  -0.77044
 Alpha  occ. eigenvalues --   -0.76980  -0.76771  -0.75967  -0.75711  -0.74978
 Alpha  occ. eigenvalues --   -0.74711  -0.72848  -0.72608  -0.71738  -0.71482
 Alpha  occ. eigenvalues --   -0.70019  -0.69684  -0.68930  -0.68715  -0.67712
 Alpha  occ. eigenvalues --   -0.67501  -0.67270  -0.67081  -0.65336  -0.65150
 Alpha  occ. eigenvalues --   -0.64916  -0.64680  -0.64667  -0.64526  -0.64358
 Alpha  occ. eigenvalues --   -0.64116  -0.62326  -0.62119  -0.60530  -0.60261
 Alpha  occ. eigenvalues --   -0.59858  -0.59688  -0.59057  -0.58894  -0.58571
 Alpha  occ. eigenvalues --   -0.58320  -0.57625  -0.57415  -0.57381  -0.57142
 Alpha  occ. eigenvalues --   -0.56379  -0.56108  -0.55995  -0.55725  -0.55594
 Alpha  occ. eigenvalues --   -0.55411  -0.55341  -0.55139  -0.54578  -0.54361
 Alpha  occ. eigenvalues --   -0.53939  -0.53792  -0.53377  -0.53282  -0.53134
 Alpha  occ. eigenvalues --   -0.53028  -0.52968  -0.52831  -0.52773  -0.52584
 Alpha  occ. eigenvalues --   -0.52550  -0.52325  -0.51978  -0.51788  -0.51667
 Alpha  occ. eigenvalues --   -0.51540  -0.51258  -0.51088  -0.50669  -0.50408
 Alpha  occ. eigenvalues --   -0.50130  -0.49999  -0.49889  -0.49791  -0.49576
 Alpha  occ. eigenvalues --   -0.49392  -0.49275  -0.49141  -0.49092  -0.48990
 Alpha  occ. eigenvalues --   -0.48641  -0.48551  -0.48511  -0.48433  -0.48292
 Alpha  occ. eigenvalues --   -0.48245  -0.47762  -0.47490  -0.47367  -0.47024
 Alpha  occ. eigenvalues --   -0.46872  -0.46611  -0.46600  -0.46436  -0.46435
 Alpha  occ. eigenvalues --   -0.46226  -0.46176  -0.45977  -0.45863  -0.45691
 Alpha  occ. eigenvalues --   -0.45290  -0.45125  -0.44629  -0.44589  -0.44397
 Alpha  occ. eigenvalues --   -0.44371  -0.44232  -0.44140  -0.44076  -0.44024
 Alpha  occ. eigenvalues --   -0.43984  -0.43834  -0.43534  -0.43453  -0.43404
 Alpha  occ. eigenvalues --   -0.43270  -0.43092  -0.42813  -0.42784  -0.42730
 Alpha  occ. eigenvalues --   -0.42679  -0.42476  -0.42091  -0.41866  -0.41767
 Alpha  occ. eigenvalues --   -0.41584  -0.41562  -0.41345  -0.41205  -0.40938
 Alpha  occ. eigenvalues --   -0.40913  -0.40892  -0.40654  -0.40633  -0.40594
 Alpha  occ. eigenvalues --   -0.40404  -0.40267  -0.40094  -0.39561  -0.39354
 Alpha  occ. eigenvalues --   -0.38556  -0.38265  -0.37788  -0.37517  -0.37406
 Alpha  occ. eigenvalues --   -0.37312  -0.37176  -0.37082  -0.36743  -0.36599
 Alpha  occ. eigenvalues --   -0.36240  -0.36096  -0.34360  -0.34157  -0.33782
 Alpha  occ. eigenvalues --   -0.33679  -0.33256  -0.33078  -0.31448  -0.31205
 Alpha  occ. eigenvalues --   -0.31108  -0.30878  -0.30071  -0.29834  -0.29531
 Alpha  occ. eigenvalues --   -0.29394  -0.29242  -0.29118  -0.24155  -0.23942
 Alpha  occ. eigenvalues --   -0.21204  -0.21027
 Alpha virt. eigenvalues --   -0.08851  -0.08702  -0.01832  -0.01596  -0.00139
 Alpha virt. eigenvalues --    0.00056   0.02134   0.02307   0.03007   0.03320
 Alpha virt. eigenvalues --    0.04659   0.04842   0.05092   0.05349   0.06153

 Mulliken charges:
               1
     1  Mg   0.838124
     2  C   -0.002753
     3  C   -0.093908
     4  C   -0.046254
     5  C   -0.064247
     6  N   -0.256792
     7  C   -0.052304
     8  C   -0.013984
     9  C   -0.086989
    10  C    0.046287
    11  C    0.104772
    12  C    0.053402
    13  C   -0.072115
    14  H    0.037091
    15  N   -0.433130
    16  C    0.168235
    17  C   -0.177136
    18  C   -0.004273
    19  C    0.148585
    20  C    0.110126
    21  C    0.011852
    22  O   -0.250037
    23  C    0.062649
    24  N   -0.341089
    25  C    0.041204
    26  C   -0.028138
    27  C   -0.023940
    28  C    0.074679
    29  C    0.076135
    30  C    0.035210
    31  C   -0.004448
    32  N   -0.310489
    33  C    0.080246
    34  C   -0.169927
    35  C    0.008604
    36  C    0.082810
    37  C    0.127295
    38  C    0.046262
    39  O   -0.187652
    40  C   -0.005350
    41  C    0.213028
    42  O   -0.256804
    43  O   -0.304919
    44  C    0.157356
    45  H   -0.017421
    46  H   -0.017123
    47  H   -0.041503
    48  H    0.001225
    49  H   -0.003867
    50  H    0.025611
    51  H    0.016331
    52  H    0.016844
    53  H    0.011048
    54  H    0.044454
    55  H    0.017899
    56  H    0.017883
    57  H    0.006130
    58  H    0.026873
    59  H    0.039266
    60  H    0.037672
    61  H    0.035208
    62  H    0.031095
    63  H    0.016007
    64  H    0.009753
    65  H    0.023065
    66  H    0.012765
    67  H    0.004945
    68  H    0.006388
    69  H    0.004984
    70  H    0.008343
    71  H    0.017431
    72  H    0.028766
    73  H    0.047821
    74  H    0.008951
    75  H    0.046341
    76  H    0.035372
    77  H    0.043267
    78  H    0.046417
    79  H    0.054486
    80  Mg   0.837806
    81  C   -0.016502
    82  C   -0.087777
    83  C   -0.045702
    84  C   -0.065112
    85  N   -0.254540
    86  C   -0.049740
    87  C   -0.015002
    88  C   -0.090482
    89  C    0.045752
    90  C    0.114411
    91  C    0.062573
    92  C   -0.078618
    93  H    0.037162
    94  N   -0.423455
    95  C    0.162794
    96  C   -0.174789
    97  C   -0.008019
    98  C    0.152068
    99  C    0.099427
   100  C    0.015387
   101  O   -0.253453
   102  C    0.061296
   103  N   -0.350113
   104  C    0.037460
   105  C   -0.019765
   106  C   -0.034799
   107  C    0.089006
   108  C    0.073746
   109  C    0.034770
   110  C   -0.007638
   111  N   -0.324182
   112  C    0.078613
   113  C   -0.163149
   114  C    0.002406
   115  C    0.096260
   116  C    0.131456
   117  C    0.042518
   118  O   -0.187294
   119  C    0.000938
   120  C    0.211387
   121  O   -0.250393
   122  O   -0.306196
   123  C    0.151415
   124  H   -0.019770
   125  H   -0.015855
   126  H   -0.040583
   127  H   -0.000595
   128  H   -0.004206
   129  H    0.022368
   130  H    0.014164
   131  H    0.016205
   132  H    0.013570
   133  H    0.038375
   134  H    0.020336
   135  H    0.019276
   136  H    0.008791
   137  H    0.025898
   138  H    0.039382
   139  H    0.038167
   140  H    0.036075
   141  H    0.033689
   142  H    0.014224
   143  H    0.012292
   144  H    0.024916
   145  H    0.011591
   146  H    0.005527
   147  H    0.006056
   148  H    0.003635
   149  H    0.010773
   150  H    0.017865
   151  H    0.030288
   152  H    0.046286
   153  H    0.008358
   154  H    0.046837
   155  H    0.034816
   156  H    0.044095
   157  H    0.049620
   158  H    0.055602
 Sum of Mulliken charges =  -0.00000

 Dipole moment (field-independent basis, Debye):
    X=             -2.7456    Y=              7.2680    Z=              1.2083  Tot=              7.8627
 Quadrupole moment (field-independent basis, Debye-Ang):
   XX=           -475.9459   YY=           -544.2717   ZZ=           -474.2261
   XY=            -22.3222   XZ=            -29.4398   YZ=              1.2840

 Normal termination of Gaussian 16 at Sun Sep 12 01:18:49 2021.
