 Gaussian 16, Revision A.03,
 Gaussian 16:  ES64L-G16RevA.03 25-Dec-2016

 -----------------------------------
 #p cam-b3lyp/Def2SVP td=(nstates=5)
 -----------------------------------

 --------------------------------
 TDDFT excited states in gaussian
 --------------------------------
 Symbolic Z-matrix:
 Charge =  0 Multiplicity = 1

                         Standard orientation:
 ---------------------------------------------------------------------
 Center     Atomic      Atomic             Coordinates (Angstroms)
 Number     Number       Type             X           Y           Z
 ---------------------------------------------------------------------
      1         12           0       -4.403625    0.638579    0.430988
      2          6           0       -4.774729   -2.451009   -1.337894
      3          6           0       -4.932437   -1.117221    3.308589
      4          6           0       -4.532335    3.408772    1.969197
      5          6           0       -5.033097    2.269843   -2.583710
      6          7           0       -4.790997   -1.508106    0.808259
      7          6           0       -4.849145   -2.597769    0.049034
      8          6           0       -4.920830   -3.919835    0.870238
      9          6           0       -5.529453   -3.341560    2.225662
     10          6           0       -5.025588   -1.912404    2.127895
     11          6           0       -7.054445   -3.324126    2.250132
     12          6           0       -3.507781   -4.553603    1.101240
     13          6           0       -3.514749   -5.999765    1.605146
     14          1           0       -2.474219   -6.906786    1.144757
     15          7           0       -4.206937    1.046618    2.353920
     16          6           0       -4.449594    0.206892    3.388938
     17          6           0       -4.156627    0.977668    4.616438
     18          6           0       -3.906747    2.390695    4.217678
     19          6           0       -4.235326    2.343361    2.815832
     20          6           0       -4.087458    0.359710    5.979190
     21          6           0       -3.455163    3.595244    4.981396
     22          8           0       -3.525800    4.775253    4.494401
     23          6           0       -3.004471    3.364414    6.365822
     24          7           0       -4.950370    2.565411   -0.157252
     25          6           0       -4.859639    3.597126    0.689103
     26          6           0       -5.029344    4.905437   -0.024663
     27          6           0       -5.013633    4.563410   -1.584318
     28          6           0       -4.913722    3.021088   -1.486692
     29          6           0       -6.303895    5.691420    0.312621
     30          6           0       -3.979309    5.315654   -2.458801
     31          6           0       -2.579593    4.879871   -2.087337
     32          7           0       -4.655719    0.053461   -1.643893
     33          6           0       -4.932349    0.896406   -2.729984
     34          6           0       -5.122669    0.032628   -3.909702
     35          6           0       -4.958842   -1.262198   -3.421408
     36          6           0       -4.709618   -1.211944   -2.020104
     37          6           0       -5.465198    0.473120   -5.218547
     38          6           0       -4.960770   -2.677823   -3.752860
     39          8           0       -5.024100   -3.323105   -4.800282
     40          6           0       -4.962567   -3.510279   -2.395347
     41          6           0       -3.909778   -4.578205   -2.515671
     42          8           0       -2.699463   -4.279698   -2.573963
     43          8           0       -4.469092   -5.779585   -2.304971
     44          6           0       -3.472844   -6.881343   -2.380960
     45          1           0       -5.317576   -1.519492    4.247624
     46          1           0       -4.477691    4.393002    2.439029
     47          1           0       -5.148731    2.712567   -3.574708
     48          1           0       -5.587221   -4.676627    0.455976
     49          1           0       -5.108537   -3.832585    3.102842
     50          1           0       -7.471562   -3.592379    1.279578
     51          1           0       -7.329655   -2.302690    2.513607
     52          1           0       -7.436178   -3.954126    3.053971
     53          1           0       -3.028529   -4.064044    1.949007
     54          1           0       -2.903827   -4.490362    0.195389
     55          1           0       -4.498017   -6.456949    1.490800
     56          1           0       -3.345467   -5.987079    2.681892
     57          1           0       -4.479024   -0.656765    5.978345
     58          1           0       -4.775518    0.915319    6.616043
     59          1           0       -3.082226    0.402631    6.398713
     60          1           0       -3.815519    2.913230    6.937821
     61          1           0       -2.635230    4.324061    6.725807
     62          1           0       -2.193610    2.635467    6.356275
     63          1           0       -4.207107    5.583362    0.200660
     64          1           0       -5.970729    4.778845   -2.059954
     65          1           0       -6.112092    6.699631    0.680623
     66          1           0       -6.874873    5.112416    1.037900
     67          1           0       -7.017806    5.777706   -0.506099
     68          1           0       -4.039567    6.388490   -2.278973
     69          1           0       -4.117700    5.150191   -3.527314
     70          1           0       -2.350058    5.506407   -1.226176
     71          1           0       -1.889429    5.076706   -2.908398
     72          1           0       -2.561681    3.843298   -1.750170
     73          1           0       -4.834476   -0.091399   -5.905189
     74          1           0       -5.309333    1.546049   -5.328697
     75          1           0       -6.519282    0.198420   -5.254653
     76          1           0       -5.961800   -3.930860   -2.286870
     77          1           0       -3.832653   -7.588446   -3.128473
     78          1           0       -3.336720   -7.246782   -1.362957
     79          1           0       -2.498007   -6.622001   -2.795417
     80         12           0        4.540729    0.745116   -0.591608
     81          6           0        4.542954   -2.521657    0.894089
     82          6           0        4.002845    2.002409    2.533221
     83          6           0        4.084898    3.589178   -1.922386
     84          6           0        3.936941   -0.800977   -3.656042
     85          7           0        4.320493   -0.233881    1.379517
     86          6           0        4.401126   -1.476584    1.830649
     87          6           0        4.406118   -1.600066    3.377996
     88          6           0        3.665727   -0.219652    3.731775
     89          6           0        4.044397    0.585877    2.490641
     90          6           0        2.151800   -0.343234    3.777435
     91          6           0        5.858788   -1.640796    3.969683
     92          6           0        5.944057   -2.069416    5.436232
     93          1           0        7.091451   -2.865470    5.863147
     94          7           0        4.595117    2.560701    0.207929
     95          6           0        4.374672    2.888497    1.498367
     96          6           0        4.511360    4.351452    1.570849
     97          6           0        4.667712    4.877074    0.187381
     98          6           0        4.429246    3.671780   -0.581061
     99          6           0        4.565931    5.100188    2.870784
    100          6           0        4.967888    6.241698   -0.354749
    101          8           0        4.822355    6.519511   -1.597517
    102          6           0        5.347481    7.268202    0.626925
    103          7           0        3.869165    1.331695   -2.469710
    104          6           0        3.814916    2.631473   -2.809646
    105          6           0        3.567559    2.798286   -4.289974
    106          6           0        3.708367    1.333761   -4.916793
    107          6           0        3.934546    0.524513   -3.620886
    108          6           0        2.211222    3.388316   -4.675449
    109          6           0        4.720803    1.161345   -6.082093
    110          6           0        6.131130    1.355139   -5.573381
    111          7           0        4.465289   -1.287539   -1.320081
    112          6           0        4.170297   -1.712319   -2.634094
    113          6           0        4.125359   -3.188811   -2.614573
    114          6           0        4.376579   -3.522505   -1.275154
    115          6           0        4.544783   -2.337048   -0.509716
    116          6           0        3.830841   -4.026891   -3.726781
    117          6           0        4.527186   -4.607754   -0.332685
    118          8           0        4.573838   -5.834088   -0.420177
    119          6           0        4.516213   -4.005028    1.138029
    120          6           0        5.664794   -4.611082    1.896956
    121          8           0        6.838842   -4.372294    1.563500
    122          8           0        5.195643   -5.192546    3.015960
    123          6           0        6.298916   -5.798424    3.808107
    124          1           0        3.608553    2.483196    3.428900
    125          1           0        4.024542    4.542088   -2.453222
    126          1           0        3.851629   -1.360326   -4.590133
    127          1           0        3.839446   -2.436703    3.768770
    128          1           0        4.085431    0.236074    4.624817
    129          1           0        1.816781   -1.315284    3.447247
    130          1           0        1.773622    0.430140    3.121765
    131          1           0        1.783494   -0.097180    4.777505
    132          1           0        6.241115   -0.615159    4.051162
    133          1           0        6.495758   -2.264641    3.373263
    134          1           0        5.009433   -2.522824    5.788160
    135          1           0        6.056857   -1.174664    6.053271
    136          1           0        4.259578    4.467218    3.712737
    137          1           0        3.797742    5.879616    2.823345
    138          1           0        5.536034    5.570274    3.045698
    139          1           0        4.549457    7.382665    1.356664
    140          1           0        5.609540    8.150846    0.040291
    141          1           0        6.228498    6.918074    1.176324
    142          1           0        4.313256    3.444725   -4.736227
    143          1           0        2.758912    0.981147   -5.345795
    144          1           0        2.292643    4.304325   -5.290577
    145          1           0        1.655426    3.587281   -3.768788
    146          1           0        1.547494    2.710240   -5.209192
    147          1           0        4.557035    1.928670   -6.842714
    148          1           0        4.650752    0.198021   -6.576158
    149          1           0        6.249554    2.442788   -5.582676
    150          1           0        6.847158    0.874461   -6.236934
    151          1           0        6.223456    1.022382   -4.532989
    152          1           0        4.539700   -4.843691   -3.697467
    153          1           0        3.892860   -3.479120   -4.664788
    154          1           0        2.803936   -4.315428   -3.487044
    155          1           0        3.553237   -4.252573    1.586337
    156          1           0        6.043037   -6.851772    3.958663
    157          1           0        6.397256   -5.169654    4.712944
    158          1           0        7.269426   -5.882322    3.333213
 ---------------------------------------------------------------------

 SCF Done:  E(RCAM-B3LYP) =  -4069.81192728     A.U. after   19 cycles

 Excitation energies and oscillator strengths:

 Excited State   1:      Singlet-A      1.6569 eV  748.27 nm  f=0.1457  <S**2>=0.000
     309 -> 315       -0.11548
     310 -> 316        0.12323
     311 -> 313        0.46849
     312 -> 314        0.50222
 This state for optimization and/or second-order correction.
 Total Energy, E(TD-HF/TD-DFT) =  -4069.75103598
 Copying the excited state density for this state as the 1-particle RhoCI density.

 Excited State   2:      Singlet-A      1.6912 eV  733.09 nm  f=0.5297  <S**2>=0.000
     309 -> 315       -0.12996
     310 -> 316       -0.12163
     311 -> 313        0.50064
     312 -> 314       -0.46725

 Excited State   3:      Singlet-A      2.1843 eV  567.61 nm  f=0.0546  <S**2>=0.000
     309 -> 313       -0.30821
     310 -> 314        0.56457
     311 -> 315       -0.12905
     312 -> 316       -0.23902

 Excited State   4:      Singlet-A      2.1914 eV  565.79 nm  f=0.1360  <S**2>=0.000
     309 -> 313        0.56228
     310 -> 314        0.30578
     311 -> 315        0.24403
     312 -> 316       -0.13388

 Excited State   5:      Singlet-A      2.3491 eV  527.81 nm  f=0.0000  <S**2>=0.000
     312 -> 313        0.70707

 The electronic state is 1-A.
 Alpha  occ. eigenvalues --  -46.87893 -46.87452 -19.26284 -19.26266 -19.19066
 Alpha  occ. eigenvalues --  -19.19029 -19.18996 -19.18526 -19.18259 -19.17864
 Alpha  occ. eigenvalues --  -14.42540 -14.42306 -14.41540 -14.41147 -14.39511
 Alpha  occ. eigenvalues --  -14.39146 -14.38684 -14.38378 -10.39093 -10.38990
 Alpha  occ. eigenvalues --  -10.35635 -10.35206 -10.34473 -10.34044 -10.31729
 Alpha  occ. eigenvalues --  -10.31602 -10.31485 -10.31118 -10.31000 -10.30861
 Alpha  occ. eigenvalues --  -10.30666 -10.30612 -10.30311 -10.30172 -10.30136
 Alpha  occ. eigenvalues --  -10.30006 -10.29922 -10.29746 -10.29669 -10.29372
 Alpha  occ. eigenvalues --  -10.29217 -10.29173 -10.28790 -10.28640 -10.28629
 Alpha  occ. eigenvalues --  -10.28480 -10.28469 -10.28206 -10.28172 -10.28050
 Alpha  occ. eigenvalues --  -10.27906 -10.27823 -10.27778 -10.27711 -10.27654
 Alpha  occ. eigenvalues --  -10.27567 -10.27519 -10.27491 -10.27475 -10.27290
 Alpha  occ. eigenvalues --  -10.27282 -10.27262 -10.27247 -10.27216 -10.27173
 Alpha  occ. eigenvalues --  -10.26895 -10.26711 -10.26669 -10.26626 -10.26287
 Alpha  occ. eigenvalues --  -10.26246 -10.26217 -10.26115 -10.25992 -10.25954
 Alpha  occ. eigenvalues --  -10.25920 -10.25694 -10.25504 -10.25471 -10.25221
 Alpha  occ. eigenvalues --  -10.24940 -10.24885 -10.24691 -10.24642 -10.24539
 Alpha  occ. eigenvalues --  -10.24485  -3.16636  -3.16202  -1.91518  -1.91104
 Alpha  occ. eigenvalues --   -1.91085  -1.90947  -1.90674  -1.90510  -1.16621
 Alpha  occ. eigenvalues --   -1.16571  -1.08710  -1.08478  -1.07401  -1.06850
 Alpha  occ. eigenvalues --   -1.06781  -1.06651  -1.04671  -1.04308  -1.03854
 Alpha  occ. eigenvalues --   -1.03458  -1.03336  -1.02820  -1.02509  -1.01897
 Alpha  occ. eigenvalues --   -0.92057  -0.91795  -0.89595  -0.89282  -0.89238
 Alpha  occ. eigenvalues --   -0.89044  -0.88360  -0.88015  -0.87977  -0.87756
 Alpha  occ. eigenvalues --   -0.87543  -0.87478  -0.87426  -0.86913  -0.85043
 Alpha  occ. eigenvalues --   -0.84868  -0.83997  -0.83679  -0.83134  -0.82743
 Alpha  occ. eigenvalues --   -0.82716  -0.82512  -0.81625  -0.81447  -0.80672
 Alpha  occ. eigenvalues --   -0.80274  -0.78927  -0.78415  -0.77294  -0.76981
 Alpha  occ. eigenvalues --   -0.76971  -0.76755  -0.75976  -0.75696  -0.74964
 Alpha  occ. eigenvalues --   -0.74621  -0.72869  -0.72478  -0.71749  -0.71409
 Alpha  occ. eigenvalues --   -0.69960  -0.69556  -0.68947  -0.68685  -0.67742
 Alpha  occ. eigenvalues --   -0.67414  -0.67286  -0.67066  -0.65342  -0.65139
 Alpha  occ. eigenvalues --   -0.64925  -0.64680  -0.64583  -0.64498  -0.64341
 Alpha  occ. eigenvalues --   -0.64003  -0.62325  -0.62139  -0.60571  -0.60135
 Alpha  occ. eigenvalues --   -0.59875  -0.59652  -0.59070  -0.58798  -0.58588
 Alpha  occ. eigenvalues --   -0.58239  -0.57646  -0.57392  -0.57391  -0.57037
 Alpha  occ. eigenvalues --   -0.56416  -0.56001  -0.55996  -0.55766  -0.55636
 Alpha  occ. eigenvalues --   -0.55392  -0.55283  -0.55065  -0.54561  -0.54328
 Alpha  occ. eigenvalues --   -0.53947  -0.53805  -0.53420  -0.53309  -0.53030
 Alpha  occ. eigenvalues --   -0.52991  -0.52987  -0.52869  -0.52758  -0.52502
 Alpha  occ. eigenvalues --   -0.52487  -0.52200  -0.52017  -0.51693  -0.51574
 Alpha  occ. eigenvalues --   -0.51519  -0.51263  -0.51017  -0.50756  -0.50290
 Alpha  occ. eigenvalues --   -0.50107  -0.50051  -0.49831  -0.49672  -0.49607
 Alpha  occ. eigenvalues --   -0.49326  -0.49312  -0.49156  -0.49049  -0.48942
 Alpha  occ. eigenvalues --   -0.48655  -0.48599  -0.48520  -0.48402  -0.48188
 Alpha  occ. eigenvalues --   -0.48157  -0.47781  -0.47432  -0.47394  -0.46931
 Alpha  occ. eigenvalues --   -0.46872  -0.46610  -0.46530  -0.46447  -0.46421
 Alpha  occ. eigenvalues --   -0.46233  -0.46064  -0.45879  -0.45875  -0.45636
 Alpha  occ. eigenvalues --   -0.45276  -0.45025  -0.44666  -0.44604  -0.44384
 Alpha  occ. eigenvalues --   -0.44296  -0.44231  -0.44150  -0.44106  -0.43973
 Alpha  occ. eigenvalues --   -0.43892  -0.43766  -0.43545  -0.43453  -0.43414
 Alpha  occ. eigenvalues --   -0.43227  -0.43106  -0.42801  -0.42749  -0.42716
 Alpha  occ. eigenvalues --   -0.42666  -0.42355  -0.42061  -0.41798  -0.41787
 Alpha  occ. eigenvalues --   -0.41585  -0.41494  -0.41318  -0.41218  -0.40989
 Alpha  occ. eigenvalues --   -0.40907  -0.40834  -0.40633  -0.40578  -0.40557
 Alpha  occ. eigenvalues --   -0.40303  -0.40264  -0.40130  -0.39484  -0.39217
 Alpha  occ. eigenvalues --   -0.38530  -0.38169  -0.37782  -0.37551  -0.37395
 Alpha  occ. eigenvalues --   -0.37317  -0.37070  -0.37034  -0.36739  -0.36662
 Alpha  occ. eigenvalues --   -0.36237  -0.36043  -0.34378  -0.34052  -0.33799
 Alpha  occ. eigenvalues --   -0.33744  -0.33277  -0.32965  -0.31521  -0.31127
 Alpha  occ. eigenvalues --   -0.31087  -0.30778  -0.30113  -0.29772  -0.29577
 Alpha  occ. eigenvalues --   -0.29429  -0.29111  -0.28973  -0.24173  -0.23826
 Alpha  occ. eigenvalues --   -0.21227  -0.20905
 Alpha virt. eigenvalues --   -0.08885  -0.08576  -0.01852  -0.01477  -0.00192
 Alpha virt. eigenvalues --    0.00161   0.02101   0.02417   0.02852   0.03482
 Alpha virt. eigenvalues --    0.04658   0.04899   0.05077   0.05275   0.06180

 Mulliken charges:
               1
     1  Mg   0.838785
     2  C   -0.002731
     3  C   -0.094479
     4  C   -0.045929
     5  C   -0.064108
     6  N   -0.256854
     7  C   -0.052059
     8  C   -0.014000
     9  C   -0.086876
    10  C    0.046275
    11  C    0.104805
    12  C    0.053591
    13  C   -0.073102
    14  H    0.039790
    15  N   -0.433024
    16  C    0.168057
    17  C   -0.177835
    18  C   -0.004780
    19  C    0.148648
    20  C    0.110273
    21  C    0.011170
    22  O   -0.249751
    23  C    0.063160
    24  N   -0.341287
    25  C    0.041412
    26  C   -0.028154
    27  C   -0.024087
    28  C    0.075374
    29  C    0.076132
    30  C    0.034898
    31  C   -0.005129
    32  N   -0.310541
    33  C    0.080773
    34  C   -0.170074
    35  C    0.008418
    36  C    0.083201
    37  C    0.127365
    38  C    0.045991
    39  O   -0.188046
    40  C   -0.005182
    41  C    0.212870
    42  O   -0.257143
    43  O   -0.304948
    44  C    0.157363
    45  H   -0.017604
    46  H   -0.017033
    47  H   -0.041351
    48  H    0.001324
    49  H   -0.004023
    50  H    0.025623
    51  H    0.016241
    52  H    0.016838
    53  H    0.010139
    54  H    0.044833
    55  H    0.017700
    56  H    0.017468
    57  H    0.006239
    58  H    0.026978
    59  H    0.037462
    60  H    0.038137
    61  H    0.034786
    62  H    0.028901
    63  H    0.016639
    64  H    0.009590
    65  H    0.023240
    66  H    0.012424
    67  H    0.004951
    68  H    0.006924
    69  H    0.004447
    70  H    0.009493
    71  H    0.019847
    72  H    0.028418
    73  H    0.047161
    74  H    0.009143
    75  H    0.046452
    76  H    0.035420
    77  H    0.043120
    78  H    0.047244
    79  H    0.054562
    80  Mg   0.837997
    81  C   -0.016852
    82  C   -0.087999
    83  C   -0.045278
    84  C   -0.061745
    85  N   -0.254419
    86  C   -0.049871
    87  C   -0.014978
    88  C   -0.090594
    89  C    0.045501
    90  C    0.114894
    91  C    0.062712
    92  C   -0.077402
    93  H    0.034498
    94  N   -0.423400
    95  C    0.162417
    96  C   -0.174379
    97  C   -0.008060
    98  C    0.151883
    99  C    0.099293
   100  C    0.015379
   101  O   -0.253940
   102  C    0.061212
   103  N   -0.349761
   104  C    0.037312
   105  C   -0.019970
   106  C   -0.035380
   107  C    0.088830
   108  C    0.073036
   109  C    0.034642
   110  C   -0.007557
   111  N   -0.324597
   112  C    0.078586
   113  C   -0.159945
   114  C    0.002625
   115  C    0.096650
   116  C    0.130371
   117  C    0.043235
   118  O   -0.188754
   119  C    0.000604
   120  C    0.210984
   121  O   -0.251047
   122  O   -0.306024
   123  C    0.152189
   124  H   -0.020412
   125  H   -0.016196
   126  H   -0.038750
   127  H   -0.001906
   128  H   -0.005237
   129  H    0.022237
   130  H    0.015961
   131  H    0.012570
   132  H    0.014120
   133  H    0.037793
   134  H    0.019582
   135  H    0.019236
   136  H    0.008081
   137  H    0.027107
   138  H    0.038969
   139  H    0.038675
   140  H    0.035739
   141  H    0.033546
   142  H    0.013833
   143  H    0.014934
   144  H    0.023631
   145  H    0.011866
   146  H    0.006717
   147  H    0.005784
   148  H    0.004457
   149  H    0.010438
   150  H    0.017609
   151  H    0.029992
   152  H    0.044381
   153  H    0.008569
   154  H    0.053482
   155  H    0.034539
   156  H    0.043171
   157  H    0.048995
   158  H    0.053626
 Sum of Mulliken charges =  -0.00000

 Dipole moment (field-independent basis, Debye):
    X=             -3.3451    Y=              1.8204    Z=              6.8253  Tot=              7.8159
 Quadrupole moment (field-independent basis, Debye-Ang):
   XX=           -519.2291   YY=           -529.2752   ZZ=           -470.0812
   XY=             17.5532   XZ=              0.2973   YZ=            -28.0513

 Normal termination of Gaussian 16 at Fri Sep 10 01:27:13 2021.
