 Gaussian 16, Revision A.03,
 Gaussian 16:  ES64L-G16RevA.03 25-Dec-2016

 -----------------------------------
 #p cam-b3lyp/Def2SVP td=(nstates=5)
 -----------------------------------

 --------------------------------
 TDDFT excited states in gaussian
 --------------------------------
 Symbolic Z-matrix:
 Charge =  0 Multiplicity = 1

                         Standard orientation:
 ---------------------------------------------------------------------
 Center     Atomic      Atomic             Coordinates (Angstroms)
 Number     Number       Type             X           Y           Z
 ---------------------------------------------------------------------
      1         12           0        4.087905   -1.249481    0.302808
      2          6           0        4.820731    1.789718   -1.440307
      3          6           0        5.016794    0.346790    3.171979
      4          6           0        3.884166   -4.041233    1.793187
      5          6           0        4.314448   -2.889746   -2.763766
      6          7           0        4.807100    0.808336    0.688545
      7          6           0        4.986801    1.893847   -0.057476
      8          6           0        5.294989    3.172924    0.777003
      9          6           0        5.879911    2.482274    2.089583
     10          6           0        5.166001    1.145083    1.999163
     11          6           0        7.384810    2.240520    2.031817
     12          6           0        4.004814    4.002200    1.092406
     13          6           0        4.251210    5.420384    1.615280
     14          1           0        3.334027    6.480164    1.224140
     15          7           0        3.931590   -1.665808    2.227668
     16          6           0        4.348277   -0.893473    3.259732
     17          6           0        4.007713   -1.639295    4.490360
     18          6           0        3.531665   -2.991314    4.085985
     19          6           0        3.791560   -2.962365    2.669301
     20          6           0        4.100379   -1.047578    5.863326
     21          6           0        2.946618   -4.132748    4.856036
     22          8           0        2.817077   -5.299494    4.349580
     23          6           0        2.606340   -3.868303    6.265760
     24          7           0        4.313048   -3.222505   -0.340715
     25          6           0        4.114184   -4.247813    0.494857
     26          6           0        4.051938   -5.551072   -0.245130
     27          6           0        4.007275   -5.176707   -1.796778
     28          6           0        4.141558   -3.638921   -1.672476
     29          6           0        5.211862   -6.522858    0.012202
     30          6           0        2.829798   -5.749736   -2.624791
     31          6           0        1.530704   -5.121254   -2.172614
     32          7           0        4.317353   -0.662881   -1.774281
     33          6           0        4.410478   -1.513561   -2.885292
     34          6           0        4.665847   -0.661727   -4.061401
     35          6           0        4.720383    0.632222   -3.547042
     36          6           0        4.538407    0.588743   -2.135204
     37          6           0        4.872164   -1.119264   -5.392764
     38          6           0        4.914597    2.039062   -3.858391
     39          8           0        5.019003    2.690605   -4.898624
     40          6           0        5.108794    2.832591   -2.491487
     41          6           0        4.220665    4.045919   -2.540189
     42          8           0        2.978142    3.929749   -2.537500
     43          8           0        4.961445    5.147267   -2.343158
     44          6           0        4.136428    6.384786   -2.350162
     45          1           0        5.504643    0.667673    4.094465
     46          1           0        3.708720   -5.016718    2.251539
     47          1           0        4.312575   -3.323057   -3.765609
     48          1           0        6.043874    3.832436    0.338095
     49          1           0        5.581581    3.010657    2.994863
     50          1           0        7.786847    2.465582    1.044075
     51          1           0        7.519115    1.184269    2.265885
     52          1           0        7.896046    2.790040    2.822666
     53          1           0        3.502418    3.570073    1.957811
     54          1           0        3.352652    4.048010    0.219530
     55          1           0        5.284112    5.730564    1.454628
     56          1           0        4.137160    5.409353    2.699287
     57          1           0        4.637332   -0.099862    5.855580
     58          1           0        4.730389   -1.711899    6.454488
     59          1           0        3.122612   -0.951478    6.335627
     60          1           0        3.503329   -3.553645    6.799567
     61          1           0        2.118189   -4.770888    6.631682
     62          1           0        1.912718   -3.028132    6.309946
     63          1           0        3.151127   -6.105604    0.014602
     64          1           0        4.896442   -5.520014   -2.326113
     65          1           0        4.892197   -7.499705    0.375918
     66          1           0        5.898462   -6.049861    0.713733
     67          1           0        5.862395   -6.695289   -0.844823
     68          1           0        2.739924   -6.823432   -2.463404
     69          1           0        2.936339   -5.583262   -3.696792
     70          1           0        1.255391   -5.725808   -1.309162
     71          1           0        0.777980   -5.196735   -2.958056
     72          1           0        1.683462   -4.100849   -1.820583
     73          1           0        4.297558   -0.453474   -6.036597
     74          1           0        4.553994   -2.155020   -5.509295
     75          1           0        5.952036   -1.001644   -5.481641
     76          1           0        6.163441    3.099396   -2.431027
     77          1           0        4.558129    7.047415   -3.106022
     78          1           0        4.108019    6.744093   -1.321330
     79          1           0        3.114073    6.280485   -2.715199
     80         12           0       -4.809558   -0.010332   -0.251395
     81          6           0       -2.042558    2.158420    0.469225
     82          6           0       -6.814208    2.283883    1.282419
     83          6           0       -7.192285   -2.094294   -0.468458
     84          6           0       -2.500274   -2.584871   -0.681113
     85          7           0       -4.368257    1.931423    0.711454
     86          6           0       -3.288980    2.682523    0.870719
     87          6           0       -3.571539    4.105899    1.421838
     88          6           0       -4.968538    3.806863    2.155209
     89          6           0       -5.437640    2.621807    1.313633
     90          6           0       -4.805957    3.338041    3.591567
     91          6           0       -3.738713    5.167295    0.278383
     92          6           0       -3.708750    6.624624    0.744288
     93          1           0       -3.093105    7.621490   -0.127334
     94          7           0       -6.771161    0.264289   -0.127852
     95          6           0       -7.414336    1.261142    0.515489
     96          6           0       -8.849956    1.001973    0.325758
     97          6           0       -9.003906   -0.319055   -0.341989
     98          6           0       -7.632632   -0.787223   -0.319410
     99          6           0       -9.911861    1.998332    0.690545
    100          6           0      -10.191093   -1.046823   -0.896191
    101          8           0      -10.131389   -2.286189   -1.217493
    102          6           0      -11.450299   -0.291004   -0.964176
    103          7           0       -4.863800   -2.087322   -0.325526
    104          6           0       -6.027966   -2.743646   -0.473428
    105          6           0       -5.795790   -4.204534   -0.777232
    106          6           0       -4.224910   -4.343741   -1.042809
    107          6           0       -3.788480   -2.892244   -0.746020
    108          6           0       -6.215747   -5.186354    0.316419
    109          6           0       -3.793012   -4.984601   -2.390190
    110          6           0       -4.163444   -4.072698   -3.537628
    111          7           0       -2.656140   -0.173280   -0.317086
    112          6           0       -1.894470   -1.350880   -0.481969
    113          6           0       -0.472999   -0.972804   -0.344443
    114          6           0       -0.507707    0.405434   -0.084158
    115          6           0       -1.856497    0.850853   -0.041051
    116          6           0        0.635138   -1.863519   -0.413429
    117          6           0        0.289558    1.582790    0.174483
    118          8           0        1.494050    1.833679    0.173587
    119          6           0       -0.673356    2.746374    0.669725
    120          6           0       -0.327269    3.993484   -0.096735
    121          8           0       -0.513963    4.052831   -1.324843
    122          8           0       -0.039419    4.979315    0.772539
    123          6           0        0.299528    6.240018    0.060113
    124          1           0       -7.496257    2.824901    1.938901
    125          1           0       -7.971944   -2.835837   -0.657490
    126          1           0       -1.714969   -3.311865   -0.898933
    127          1           0       -2.844898    4.467718    2.139368
    128          1           0       -5.655388    4.642982    2.052669
    129          1           0       -3.769986    3.169551    3.845558
    130          1           0       -5.368384    2.416505    3.665666
    131          1           0       -5.289512    4.042009    4.274890
    132          1           0       -4.763582    5.115601   -0.111106
    133          1           0       -3.005099    5.018397   -0.489913
    134          1           0       -3.328449    6.722223    1.768391
    135          1           0       -4.736456    6.991057    0.803959
    136          1           0       -9.508326    2.806626    1.312821
    137          1           0      -10.623750    1.482220    1.343770
    138          1           0      -10.446250    2.382460   -0.180964
    139          1           0      -11.721049    0.050008    0.032249
    140          1           0      -12.159422   -0.949451   -1.469623
    141          1           0      -11.287082    0.606905   -1.570575
    142          1           0       -6.331012   -4.503672   -1.670070
    143          1           0       -3.738704   -4.978718   -0.287670
    144          1           0       -6.943090   -5.943489   -0.032569
    145          1           0       -6.622788   -4.621319    1.144424
    146          1           0       -5.398673   -5.730230    0.787353
    147          1           0       -4.330178   -5.922202   -2.553007
    148          1           0       -2.732596   -5.207779   -2.442059
    149          1           0       -5.214982   -4.316124   -3.716755
    150          1           0       -3.553458   -4.290169   -4.412087
    151          1           0       -4.115658   -3.020152   -3.235090
    152          1           0        1.389956   -1.375368   -1.015462
    153          1           0        0.347666   -2.823754   -0.836613
    154          1           0        0.888796   -1.941760    0.647145
    155          1           0       -0.515708    2.867923    1.742078
    156          1           0        1.286316    6.552453    0.415513
    157          1           0       -0.545663    6.927678    0.251242
    158          1           0        0.468366    6.181836   -1.008791
 ---------------------------------------------------------------------

 SCF Done:  E(RCAM-B3LYP) =  -4069.81625302     A.U. after   18 cycles

 Excitation energies and oscillator strengths:

 Excited State   1:      Singlet-A      1.6591 eV  747.32 nm  f=0.4081  <S**2>=0.000
     309 -> 315        0.14988
     311 -> 313        0.60602
     312 -> 314       -0.32090
 This state for optimization and/or second-order correction.
 Total Energy, E(TD-HF/TD-DFT) =  -4069.75528394
 Copying the excited state density for this state as the 1-particle RhoCI density.

 Excited State   2:      Singlet-A      1.6792 eV  738.33 nm  f=0.4072  <S**2>=0.000
     310 -> 316        0.15144
     311 -> 313        0.32159
     312 -> 314        0.60346

 Excited State   3:      Singlet-A      2.0813 eV  595.72 nm  f=0.0004  <S**2>=0.000
     312 -> 313        0.69979

 Excited State   4:      Singlet-A      2.1616 eV  573.59 nm  f=0.0031  <S**2>=0.000
     309 -> 313       -0.39802
     310 -> 314        0.51011
     311 -> 315        0.15857
     312 -> 316       -0.20053

 Excited State   5:      Singlet-A      2.1863 eV  567.10 nm  f=0.1654  <S**2>=0.000
     309 -> 313        0.50681
     310 -> 314        0.38981
     311 -> 315       -0.21527
     312 -> 316       -0.16950

 The electronic state is 1-A.
 Alpha  occ. eigenvalues --  -46.87710 -46.86830 -19.26172 -19.25542 -19.18773
 Alpha  occ. eigenvalues --  -19.18763 -19.18691 -19.18238 -19.18042 -19.17422
 Alpha  occ. eigenvalues --  -14.42551 -14.41427 -14.41398 -14.40626 -14.39414
 Alpha  occ. eigenvalues --  -14.38671 -14.38531 -14.37690 -10.38771 -10.38107
 Alpha  occ. eigenvalues --  -10.35448 -10.34885 -10.34526 -10.33620 -10.31582
 Alpha  occ. eigenvalues --  -10.31392 -10.31275 -10.31056 -10.30482 -10.30457
 Alpha  occ. eigenvalues --  -10.30453 -10.30150 -10.29959 -10.29924 -10.29727
 Alpha  occ. eigenvalues --  -10.29697 -10.29574 -10.29515 -10.29497 -10.29199
 Alpha  occ. eigenvalues --  -10.28861 -10.28751 -10.28647 -10.28531 -10.28475
 Alpha  occ. eigenvalues --  -10.28200 -10.28168 -10.27972 -10.27772 -10.27738
 Alpha  occ. eigenvalues --  -10.27551 -10.27532 -10.27530 -10.27494 -10.27485
 Alpha  occ. eigenvalues --  -10.27377 -10.27233 -10.27143 -10.27101 -10.27038
 Alpha  occ. eigenvalues --  -10.27007 -10.26898 -10.26891 -10.26830 -10.26664
 Alpha  occ. eigenvalues --  -10.26506 -10.26456 -10.26321 -10.26317 -10.26119
 Alpha  occ. eigenvalues --  -10.26108 -10.26054 -10.25972 -10.25952 -10.25503
 Alpha  occ. eigenvalues --  -10.25410 -10.25379 -10.25316 -10.25246 -10.25034
 Alpha  occ. eigenvalues --  -10.25028 -10.24814 -10.24747 -10.24700 -10.24065
 Alpha  occ. eigenvalues --  -10.24025  -3.16459  -3.15506  -1.91340  -1.90929
 Alpha  occ. eigenvalues --   -1.90767  -1.90387  -1.89974  -1.89826  -1.16396
 Alpha  occ. eigenvalues --   -1.15850  -1.09079  -1.07867  -1.07023  -1.06657
 Alpha  occ. eigenvalues --   -1.06586  -1.05680  -1.04553  -1.03723  -1.03618
 Alpha  occ. eigenvalues --   -1.03097  -1.02915  -1.02419  -1.02177  -1.01579
 Alpha  occ. eigenvalues --   -0.92056  -0.91121  -0.89520  -0.89199  -0.89014
 Alpha  occ. eigenvalues --   -0.88253  -0.88237  -0.88072  -0.87733  -0.87724
 Alpha  occ. eigenvalues --   -0.87193  -0.87138  -0.86836  -0.86594  -0.85044
 Alpha  occ. eigenvalues --   -0.84168  -0.83875  -0.83528  -0.82971  -0.82683
 Alpha  occ. eigenvalues --   -0.82432  -0.81930  -0.81613  -0.80900  -0.80471
 Alpha  occ. eigenvalues --   -0.79849  -0.78764  -0.78082  -0.77240  -0.76907
 Alpha  occ. eigenvalues --   -0.76647  -0.76214  -0.75887  -0.75199  -0.74820
 Alpha  occ. eigenvalues --   -0.74344  -0.72842  -0.72044  -0.71629  -0.70942
 Alpha  occ. eigenvalues --   -0.69759  -0.69592  -0.68883  -0.68119  -0.67676
 Alpha  occ. eigenvalues --   -0.67239  -0.66922  -0.66368  -0.65313  -0.64812
 Alpha  occ. eigenvalues --   -0.64655  -0.64471  -0.64215  -0.64119  -0.63948
 Alpha  occ. eigenvalues --   -0.63603  -0.62217  -0.61610  -0.60401  -0.59885
 Alpha  occ. eigenvalues --   -0.59779  -0.59054  -0.58900  -0.58479  -0.58242
 Alpha  occ. eigenvalues --   -0.57779  -0.57604  -0.57267  -0.56812  -0.56632
 Alpha  occ. eigenvalues --   -0.56340  -0.55854  -0.55601  -0.55549  -0.55300
 Alpha  occ. eigenvalues --   -0.55242  -0.54891  -0.54772  -0.54452  -0.53959
 Alpha  occ. eigenvalues --   -0.53897  -0.53362  -0.53180  -0.52991  -0.52860
 Alpha  occ. eigenvalues --   -0.52725  -0.52681  -0.52562  -0.52429  -0.52310
 Alpha  occ. eigenvalues --   -0.52250  -0.52073  -0.51940  -0.51704  -0.51372
 Alpha  occ. eigenvalues --   -0.51235  -0.50816  -0.50526  -0.50497  -0.50060
 Alpha  occ. eigenvalues --   -0.50013  -0.49953  -0.49641  -0.49508  -0.49373
 Alpha  occ. eigenvalues --   -0.49246  -0.49217  -0.48751  -0.48669  -0.48475
 Alpha  occ. eigenvalues --   -0.48459  -0.48425  -0.48329  -0.47975  -0.47828
 Alpha  occ. eigenvalues --   -0.47779  -0.47638  -0.47226  -0.47042  -0.46780
 Alpha  occ. eigenvalues --   -0.46635  -0.46604  -0.46427  -0.46280  -0.46062
 Alpha  occ. eigenvalues --   -0.45982  -0.45689  -0.45572  -0.45471  -0.45227
 Alpha  occ. eigenvalues --   -0.45121  -0.44783  -0.44609  -0.44534  -0.44271
 Alpha  occ. eigenvalues --   -0.44159  -0.44030  -0.43920  -0.43861  -0.43575
 Alpha  occ. eigenvalues --   -0.43505  -0.43432  -0.43343  -0.43269  -0.42983
 Alpha  occ. eigenvalues --   -0.42852  -0.42768  -0.42599  -0.42577  -0.42411
 Alpha  occ. eigenvalues --   -0.42144  -0.42002  -0.41949  -0.41777  -0.41510
 Alpha  occ. eigenvalues --   -0.41371  -0.41048  -0.40930  -0.40768  -0.40748
 Alpha  occ. eigenvalues --   -0.40726  -0.40521  -0.40395  -0.40242  -0.40234
 Alpha  occ. eigenvalues --   -0.40197  -0.39881  -0.39417  -0.39288  -0.39052
 Alpha  occ. eigenvalues --   -0.38361  -0.37889  -0.37675  -0.37278  -0.37252
 Alpha  occ. eigenvalues --   -0.36991  -0.36660  -0.36564  -0.36385  -0.36054
 Alpha  occ. eigenvalues --   -0.35948  -0.35393  -0.34324  -0.33566  -0.33426
 Alpha  occ. eigenvalues --   -0.33164  -0.32778  -0.32368  -0.31326  -0.31015
 Alpha  occ. eigenvalues --   -0.30769  -0.30384  -0.30162  -0.29439  -0.29334
 Alpha  occ. eigenvalues --   -0.29258  -0.28691  -0.28525  -0.24079  -0.23170
 Alpha  occ. eigenvalues --   -0.21186  -0.20328
 Alpha virt. eigenvalues --   -0.08882  -0.07968  -0.01730  -0.00986  -0.00118
 Alpha virt. eigenvalues --    0.00709   0.02012   0.02937   0.03250   0.04640
 Alpha virt. eigenvalues --    0.04878   0.05513   0.05885   0.06051   0.06299

 Mulliken charges:
               1
     1  Mg   0.767951
     2  C    0.018097
     3  C   -0.093492
     4  C   -0.050732
     5  C   -0.065526
     6  N   -0.248968
     7  C   -0.029430
     8  C   -0.025022
     9  C   -0.089657
    10  C    0.054597
    11  C    0.105800
    12  C    0.069400
    13  C   -0.071793
    14  H    0.026668
    15  N   -0.426750
    16  C    0.170647
    17  C   -0.179683
    18  C   -0.006418
    19  C    0.144532
    20  C    0.111237
    21  C    0.009836
    22  O   -0.252847
    23  C    0.063481
    24  N   -0.335273
    25  C    0.041385
    26  C   -0.027181
    27  C   -0.022957
    28  C    0.071815
    29  C    0.077022
    30  C    0.048757
    31  C   -0.035442
    32  N   -0.312249
    33  C    0.076600
    34  C   -0.171882
    35  C    0.006871
    36  C    0.087302
    37  C    0.127798
    38  C    0.049606
    39  O   -0.190157
    40  C   -0.013112
    41  C    0.209731
    42  O   -0.242964
    43  O   -0.306310
    44  C    0.157460
    45  H   -0.021091
    46  H   -0.021245
    47  H   -0.046509
    48  H   -0.003774
    49  H   -0.006834
    50  H    0.024206
    51  H    0.015362
    52  H    0.013555
    53  H    0.012299
    54  H    0.050508
    55  H    0.014840
    56  H    0.016339
    57  H    0.005046
    58  H    0.024557
    59  H    0.036597
    60  H    0.036836
    61  H    0.033096
    62  H    0.030039
    63  H    0.012633
    64  H    0.008806
    65  H    0.021039
    66  H    0.013436
    67  H    0.003478
    68  H    0.004460
    69  H    0.003630
    70  H    0.008356
    71  H    0.017126
    72  H    0.043069
    73  H    0.046884
    74  H    0.006770
    75  H    0.044537
    76  H    0.032489
    77  H    0.041230
    78  H    0.040502
    79  H    0.054309
    80  Mg   0.840029
    81  C   -0.018295
    82  C   -0.087830
    83  C   -0.045564
    84  C   -0.067865
    85  N   -0.254702
    86  C   -0.050292
    87  C   -0.014979
    88  C   -0.090556
    89  C    0.046306
    90  C    0.114528
    91  C    0.062609
    92  C   -0.077591
    93  H    0.035480
    94  N   -0.423575
    95  C    0.163631
    96  C   -0.174335
    97  C   -0.007427
    98  C    0.152617
    99  C    0.099315
   100  C    0.015906
   101  O   -0.252658
   102  C    0.061045
   103  N   -0.350073
   104  C    0.038352
   105  C   -0.020171
   106  C   -0.034415
   107  C    0.087840
   108  C    0.073356
   109  C    0.033117
   110  C   -0.007387
   111  N   -0.324538
   112  C    0.080584
   113  C   -0.147182
   114  C    0.004198
   115  C    0.100352
   116  C    0.059726
   117  C    0.063544
   118  O   -0.176158
   119  C   -0.001549
   120  C    0.220434
   121  O   -0.238813
   122  O   -0.311561
   123  C    0.163432
   124  H   -0.019637
   125  H   -0.015179
   126  H   -0.036944
   127  H   -0.001477
   128  H   -0.004101
   129  H    0.021586
   130  H    0.014431
   131  H    0.016123
   132  H    0.013881
   133  H    0.039937
   134  H    0.019718
   135  H    0.019261
   136  H    0.008912
   137  H    0.026365
   138  H    0.040313
   139  H    0.038239
   140  H    0.036724
   141  H    0.034179
   142  H    0.014558
   143  H    0.014125
   144  H    0.025179
   145  H    0.011474
   146  H    0.006912
   147  H    0.006063
   148  H    0.005181
   149  H    0.010809
   150  H    0.017558
   151  H    0.030547
   152  H    0.093572
   153  H    0.016702
   154  H    0.082717
   155  H    0.032894
   156  H    0.019842
   157  H    0.046159
   158  H    0.059159
 Sum of Mulliken charges =  -0.00000

 Dipole moment (field-independent basis, Debye):
    X=             -2.6159    Y=              2.6841    Z=              6.0273  Tot=              7.0976
 Quadrupole moment (field-independent basis, Debye-Ang):
   XX=           -490.8100   YY=           -480.1916   ZZ=           -512.4839
   XY=            -27.4996   XZ=              6.2313   YZ=             44.6384

 Normal termination of Gaussian 16 at Thu Sep  9 23:23:32 2021.
