 Gaussian 16, Revision A.03,
 Gaussian 16:  ES64L-G16RevA.03 25-Dec-2016

 -----------------------------------
 #p cam-b3lyp/Def2SVP td=(nstates=5)
 -----------------------------------

 --------------------------------
 TDDFT excited states in gaussian
 --------------------------------
 Symbolic Z-matrix:
 Charge =  0 Multiplicity = 1

                         Standard orientation:
 ---------------------------------------------------------------------
 Center     Atomic      Atomic             Coordinates (Angstroms)
 Number     Number       Type             X           Y           Z
 ---------------------------------------------------------------------
      1         12           0       16.034273   -0.634043    0.180219
      2          6           0       16.226906    2.567123   -1.409638
      3          6           0       16.890752    0.926109    3.091479
      4          6           0       16.314833   -3.500673    1.506996
      5          6           0       16.314486   -2.059743   -2.987513
      6          7           0       16.475167    1.482995    0.653937
      7          6           0       16.455794    2.620987   -0.032919
      8          6           0       16.626850    3.885315    0.861278
      9          6           0       17.378390    3.218344    2.099154
     10          6           0       16.857449    1.798460    1.963239
     11          6           0       18.896525    3.200679    1.952670
     12          6           0       15.252357    4.500974    1.289604
     13          6           0       15.324683    5.910255    1.884625
     14          1           0       14.245429    6.845070    1.604126
     15          7           0       16.049614   -1.169783    2.081691
     16          6           0       16.411164   -0.400846    3.136823
     17          6           0       16.251246   -1.252149    4.335318
     18          6           0       15.949404   -2.635609    3.873773
     19          6           0       16.120626   -2.494455    2.450349
     20          6           0       16.337837   -0.726653    5.735356
     21          6           0       15.577529   -3.888882    4.601198
     22          8           0       15.585945   -5.033665    4.032010
     23          6           0       15.284837   -3.751439    6.039421
     24          7           0       16.499718   -2.516792   -0.591954
     25          6           0       16.496762   -3.602814    0.188772
     26          6           0       16.577616   -4.860377   -0.624823
     27          6           0       16.391092   -4.414956   -2.146848
     28          6           0       16.312726   -2.882689   -1.936406
     29          6           0       17.876564   -5.665992   -0.484370
     30          6           0       15.261180   -5.108037   -2.948944
     31          6           0       13.914236   -4.699290   -2.395985
     32          7           0       16.058283    0.088579   -1.866312
     33          6           0       16.207108   -0.679694   -3.030048
     34          6           0       16.270928    0.261121   -4.163566
     35          6           0       16.170796    1.520294   -3.575093
     36          6           0       16.078357    1.376334   -2.161225
     37          6           0       16.463147   -0.090661   -5.528753
     38          6           0       16.145174    2.954897   -3.809860
     39          8           0       16.096049    3.668755   -4.812600
     40          6           0       16.303112    3.694825   -2.408650
     41          6           0       15.250481    4.767461   -2.339890
     42          8           0       14.039250    4.472432   -2.282941
     43          8           0       15.837575    5.952585   -2.113301
     44          6           0       14.846277    7.056066   -2.004620
     45          1           0       17.380382    1.265106    4.006511
     46          1           0       16.306249   -4.514135    1.913516
     47          1           0       16.316489   -2.435184   -4.012448
     48          1           0       17.248067    4.668682    0.426710
     49          1           0       17.060679    3.649307    3.048391
     50          1           0       19.205061    3.533531    0.961743
     51          1           0       19.192597    2.164172    2.115418
     52          1           0       19.369250    3.775923    2.749163
     53          1           0       14.866991    3.955456    2.150978
     54          1           0       14.551170    4.497838    0.454348
     55          1           0       16.292147    6.374936    1.692289
     56          1           0       15.275904    5.825529    2.970278
     57          1           0       16.733529    0.287957    5.758545
     58          1           0       17.088696   -1.322943    6.253389
     59          1           0       15.385135   -0.798399    6.260277
     60          1           0       16.157307   -3.338742    6.546399
     61          1           0       14.951574   -4.733317    6.373639
     62          1           0       14.482715   -3.024208    6.168585
     63          1           0       15.781060   -5.552573   -0.355028
     64          1           0       17.288037   -4.597285   -2.739232
     65          1           0       17.720211   -6.696703   -0.165162
     66          1           0       18.528306   -5.136214    0.209791
     67          1           0       18.494591   -5.696763   -1.381316
     68          1           0       15.334011   -6.190434   -2.848652
     69          1           0       15.281171   -4.871452   -4.012842
     70          1           0       13.777630   -5.382150   -1.558207
     71          1           0       13.135913   -4.841462   -3.146460
     72          1           0       13.940646   -3.687568   -1.990759
     73          1           0       15.763801    0.517895   -6.101940
     74          1           0       16.289002   -1.153975   -5.691967
     75          1           0       17.508480    0.186780   -5.663514
     76          1           0       17.310941    4.108115   -2.384249
     77          1           0       15.125492    7.811840   -2.738840
     78          1           0       14.826403    7.352574   -0.955766
     79          1           0       13.829779    6.824114   -2.324416
     80         12           0      -15.714413   -0.787428    0.069966
     81          6           0      -18.030264    1.951092   -0.058206
     82          6           0      -13.258129    1.511137    0.633747
     83          6           0      -13.591357   -3.122430   -0.258398
     84          6           0      -18.097742   -2.699994   -1.605613
     85          7           0      -15.762652    1.416982    0.244639
     86          6           0      -16.708780    2.343890    0.239851
     87          6           0      -16.224189    3.759756    0.652230
     88          6           0      -14.670637    3.600654    0.278039
     89          6           0      -14.537269    2.086440    0.426556
     90          6           0      -14.357909    3.968620   -1.162847
     91          6           0      -16.420641    4.036091    2.184241
     92          6           0      -16.258180    5.499915    2.599678
     93          1           0      -17.103891    6.017070    3.671970
     94          7           0      -13.817195   -0.888194    0.643530
     95          6           0      -12.972426    0.144558    0.846223
     96          6           0      -11.688370   -0.456946    1.238076
     97          6           0      -11.797694   -1.933758    1.090411
     98          6           0      -13.094533   -2.039589    0.452346
     99          6           0      -10.541455    0.350113    1.773477
    100          6           0      -10.880547   -3.063026    1.450690
    101          8           0      -11.074108   -4.252827    1.015123
    102          6           0       -9.697394   -2.716619    2.251708
    103          7           0      -15.738966   -2.576884   -0.988127
    104          6           0      -14.706681   -3.435620   -0.918150
    105          6           0      -15.062485   -4.767636   -1.534225
    106          6           0      -16.635224   -4.703786   -1.817054
    107          6           0      -16.912349   -3.249040   -1.378508
    108          6           0      -14.327092   -5.120327   -2.826962
    109          6           0      -17.506110   -5.837525   -1.209697
    110          6           0      -17.515936   -5.729294    0.298141
    111          7           0      -17.770492   -0.525227   -0.539828
    112          6           0      -18.572354   -1.443096   -1.253001
    113          6           0      -19.857502   -0.771225   -1.534802
    114          6           0      -19.704380    0.509060   -0.981721
    115          6           0      -18.407464    0.633641   -0.414289
    116          6           0      -20.947080   -1.330471   -2.260185
    117          6           0      -20.341117    1.787078   -0.758240
    118          8           0      -21.470845    2.238609   -0.941499
    119          6           0      -19.240050    2.820328   -0.261843
    120          6           0      -19.790496    3.546483    0.934914
    121          8           0      -20.021317    2.936037    1.993547
    122          8           0      -19.748662    4.871373    0.704085
    123          6           0      -20.274083    5.634887    1.867179
    124          1           0      -12.383546    2.160669    0.588004
    125          1           0      -12.937361   -3.996297   -0.304496
    126          1           0      -18.928405   -3.262259   -2.037501
    127          1           0      -16.661829    4.572682    0.085308
    128          1           0      -14.036614    4.111690    0.997907
    129          1           0      -15.254326    4.164051   -1.732396
    130          1           0      -13.825674    3.120887   -1.574079
    131          1           0      -13.657543    4.808170   -1.194004
    132          1           0      -15.585153    3.589610    2.738634
    133          1           0      -17.371368    3.668896    2.518780
    134          1           0      -16.273857    6.177327    1.737238
    135          1           0      -15.260425    5.631111    3.025435
    136          1           0      -10.695166    1.424149    1.611554
    137          1           0       -9.665804    0.105880    1.162372
    138          1           0      -10.317923    0.122957    2.818038
    139          1           0       -9.102487   -1.979839    1.717192
    140          1           0       -9.213055   -3.667124    2.483724
    141          1           0      -10.030816   -2.238702    3.179633
    142          1           0      -14.862062   -5.578502   -0.844709
    143          1           0      -16.858173   -4.755568   -2.892900
    144          1           0      -13.775985   -6.077887   -2.768290
    145          1           0      -13.654167   -4.308533   -3.069236
    146          1           0      -14.954226   -5.173472   -3.715258
    147          1           0      -17.076839   -6.813790   -1.448000
    148          1           0      -18.528602   -5.838120   -1.572323
    149          1           0      -16.590064   -6.235170    0.587899
    150          1           0      -18.387081   -6.232608    0.712656
    151          1           0      -17.434531   -4.684043    0.618238
    152          1           0      -21.846880   -1.075103   -1.716450
    153          1           0      -20.840340   -2.407632   -2.370238
    154          1           0      -20.835556   -0.807388   -3.213707
    155          1           0      -19.029180    3.497600   -1.090344
    156          1           0      -21.078602    6.274985    1.492069
    157          1           0      -19.396806    6.138622    2.314803
    158          1           0      -20.790061    5.077982    2.640533
 ---------------------------------------------------------------------

 SCF Done:  E(RCAM-B3LYP) =  -4069.81178068     A.U. after   19 cycles

 Excitation energies and oscillator strengths:

 Excited State   1:      Singlet-A      1.6756 eV  739.95 nm  f=0.3789  <S**2>=0.000
     310 -> 316        0.17324
     312 -> 314        0.68450
     310 <- 316        0.10441
 This state for optimization and/or second-order correction.
 Total Energy, E(TD-HF/TD-DFT) =  -4069.75020409
 Copying the excited state density for this state as the 1-particle RhoCI density.

 Excited State   2:      Singlet-A      1.6799 eV  738.06 nm  f=0.4027  <S**2>=0.000
     309 -> 315        0.17518
     311 -> 313        0.68415
     309 <- 315        0.10491

 Excited State   3:      Singlet-A      2.1862 eV  567.13 nm  f=0.0951  <S**2>=0.000
     310 -> 314        0.64209
     312 -> 316       -0.27300

 Excited State   4:      Singlet-A      2.1926 eV  565.47 nm  f=0.1050  <S**2>=0.000
     309 -> 313        0.64032
     311 -> 315       -0.27817

 Excited State   5:      Singlet-A      3.0618 eV  404.93 nm  f=0.0000  <S**2>=0.000
     312 -> 313        0.70710

 The electronic state is 1-A.
 Alpha  occ. eigenvalues --  -46.87815 -46.87660 -19.26352 -19.26309 -19.19163
 Alpha  occ. eigenvalues --  -19.19044 -19.18832 -19.18710 -19.18190 -19.18052
 Alpha  occ. eigenvalues --  -14.42497 -14.42469 -14.41468 -14.41359 -14.39421
 Alpha  occ. eigenvalues --  -14.39351 -14.38606 -14.38600 -10.39103 -10.39093
 Alpha  occ. eigenvalues --  -10.35465 -10.35387 -10.34410 -10.34229 -10.31759
 Alpha  occ. eigenvalues --  -10.31706 -10.31424 -10.31309 -10.31022 -10.30928
 Alpha  occ. eigenvalues --  -10.30589 -10.30526 -10.30397 -10.30360 -10.30224
 Alpha  occ. eigenvalues --  -10.30140 -10.29939 -10.29894 -10.29649 -10.29435
 Alpha  occ. eigenvalues --  -10.29400 -10.29272 -10.28770 -10.28718 -10.28655
 Alpha  occ. eigenvalues --  -10.28564 -10.28404 -10.28384 -10.28139 -10.28137
 Alpha  occ. eigenvalues --  -10.28000 -10.27812 -10.27746 -10.27668 -10.27603
 Alpha  occ. eigenvalues --  -10.27518 -10.27517 -10.27499 -10.27483 -10.27465
 Alpha  occ. eigenvalues --  -10.27465 -10.27460 -10.27423 -10.27375 -10.27179
 Alpha  occ. eigenvalues --  -10.27051 -10.26728 -10.26693 -10.26426 -10.26408
 Alpha  occ. eigenvalues --  -10.26253 -10.26199 -10.26139 -10.26037 -10.26022
 Alpha  occ. eigenvalues --  -10.25934 -10.25862 -10.25853 -10.25449 -10.25395
 Alpha  occ. eigenvalues --  -10.24872 -10.24852 -10.24806 -10.24732 -10.24703
 Alpha  occ. eigenvalues --  -10.24689  -3.16558  -3.16410  -1.91440  -1.91292
 Alpha  occ. eigenvalues --   -1.91026  -1.90881  -1.90868  -1.90718  -1.16657
 Alpha  occ. eigenvalues --   -1.16646  -1.08659  -1.08648  -1.07233  -1.06963
 Alpha  occ. eigenvalues --   -1.06947  -1.06667  -1.04600  -1.04494  -1.03779
 Alpha  occ. eigenvalues --   -1.03662  -1.03252  -1.03038  -1.02430  -1.02111
 Alpha  occ. eigenvalues --   -0.91992  -0.91987  -0.89537  -0.89494  -0.89208
 Alpha  occ. eigenvalues --   -0.89150  -0.88304  -0.88220  -0.87889  -0.87794
 Alpha  occ. eigenvalues --   -0.87692  -0.87683  -0.87292  -0.87117  -0.85002
 Alpha  occ. eigenvalues --   -0.84999  -0.83953  -0.83876  -0.82984  -0.82928
 Alpha  occ. eigenvalues --   -0.82668  -0.82651  -0.81607  -0.81597  -0.80616
 Alpha  occ. eigenvalues --   -0.80442  -0.78815  -0.78634  -0.77237  -0.77144
 Alpha  occ. eigenvalues --   -0.76955  -0.76898  -0.75943  -0.75838  -0.74915
 Alpha  occ. eigenvalues --   -0.74802  -0.72793  -0.72699  -0.71691  -0.71580
 Alpha  occ. eigenvalues --   -0.69924  -0.69758  -0.68893  -0.68826  -0.67660
 Alpha  occ. eigenvalues --   -0.67601  -0.67240  -0.67199  -0.65307  -0.65271
 Alpha  occ. eigenvalues --   -0.64873  -0.64770  -0.64654  -0.64640  -0.64287
 Alpha  occ. eigenvalues --   -0.64204  -0.62319  -0.62279  -0.60460  -0.60337
 Alpha  occ. eigenvalues --   -0.59824  -0.59796  -0.59006  -0.58993  -0.58523
 Alpha  occ. eigenvalues --   -0.58425  -0.57605  -0.57555  -0.57327  -0.57236
 Alpha  occ. eigenvalues --   -0.56329  -0.56204  -0.56001  -0.55887  -0.55539
 Alpha  occ. eigenvalues --   -0.55451  -0.55358  -0.55248  -0.54543  -0.54489
 Alpha  occ. eigenvalues --   -0.53915  -0.53912  -0.53317  -0.53242  -0.53227
 Alpha  occ. eigenvalues --   -0.53141  -0.52935  -0.52902  -0.52775  -0.52665
 Alpha  occ. eigenvalues --   -0.52455  -0.52402  -0.51934  -0.51886  -0.51657
 Alpha  occ. eigenvalues --   -0.51637  -0.51215  -0.51202  -0.50590  -0.50471
 Alpha  occ. eigenvalues --   -0.50048  -0.49978  -0.49936  -0.49866  -0.49534
 Alpha  occ. eigenvalues --   -0.49486  -0.49234  -0.49201  -0.49116  -0.49104
 Alpha  occ. eigenvalues --   -0.48613  -0.48558  -0.48479  -0.48464  -0.48376
 Alpha  occ. eigenvalues --   -0.48336  -0.47714  -0.47593  -0.47315  -0.47116
 Alpha  occ. eigenvalues --   -0.46816  -0.46709  -0.46576  -0.46553  -0.46378
 Alpha  occ. eigenvalues --   -0.46270  -0.46181  -0.46086  -0.45842  -0.45823
 Alpha  occ. eigenvalues --   -0.45218  -0.45208  -0.44598  -0.44525  -0.44514
 Alpha  occ. eigenvalues --   -0.44475  -0.44163  -0.44127  -0.44108  -0.44077
 Alpha  occ. eigenvalues --   -0.44039  -0.43937  -0.43554  -0.43516  -0.43404
 Alpha  occ. eigenvalues --   -0.43385  -0.43046  -0.42931  -0.42902  -0.42720
 Alpha  occ. eigenvalues --   -0.42674  -0.42553  -0.42028  -0.41964  -0.41723
 Alpha  occ. eigenvalues --   -0.41669  -0.41554  -0.41458  -0.41160  -0.40988
 Alpha  occ. eigenvalues --   -0.40888  -0.40841  -0.40720  -0.40697  -0.40589
 Alpha  occ. eigenvalues --   -0.40493  -0.40256  -0.40226  -0.39457  -0.39426
 Alpha  occ. eigenvalues --   -0.38486  -0.38350  -0.37770  -0.37654  -0.37338
 Alpha  occ. eigenvalues --   -0.37284  -0.37266  -0.37199  -0.36773  -0.36735
 Alpha  occ. eigenvalues --   -0.36217  -0.36212  -0.34305  -0.34253  -0.33864
 Alpha  occ. eigenvalues --   -0.33794  -0.33205  -0.33175  -0.31362  -0.31270
 Alpha  occ. eigenvalues --   -0.31054  -0.30972  -0.30049  -0.29957  -0.29468
 Alpha  occ. eigenvalues --   -0.29341  -0.29326  -0.29211  -0.24099  -0.24036
 Alpha  occ. eigenvalues --   -0.21146  -0.21116
 Alpha virt. eigenvalues --   -0.08793  -0.08791  -0.01768  -0.01683  -0.00076
 Alpha virt. eigenvalues --   -0.00027   0.02181   0.02207   0.03103   0.03226
 Alpha virt. eigenvalues --    0.04698   0.04730   0.05075   0.05163   0.06155

 Mulliken charges:
               1
     1  Mg   0.838773
     2  C   -0.002984
     3  C   -0.094154
     4  C   -0.045874
     5  C   -0.063940
     6  N   -0.256792
     7  C   -0.052484
     8  C   -0.014020
     9  C   -0.087011
    10  C    0.046339
    11  C    0.104808
    12  C    0.053482
    13  C   -0.071782
    14  H    0.036031
    15  N   -0.433170
    16  C    0.168424
    17  C   -0.177137
    18  C   -0.003995
    19  C    0.148708
    20  C    0.110172
    21  C    0.012286
    22  O   -0.249581
    23  C    0.062475
    24  N   -0.341152
    25  C    0.041269
    26  C   -0.028204
    27  C   -0.023965
    28  C    0.074831
    29  C    0.076158
    30  C    0.035124
    31  C   -0.004508
    32  N   -0.310471
    33  C    0.080401
    34  C   -0.169729
    35  C    0.008349
    36  C    0.082969
    37  C    0.127319
    38  C    0.046098
    39  O   -0.188474
    40  C   -0.005316
    41  C    0.212880
    42  O   -0.257163
    43  O   -0.304775
    44  C    0.157717
    45  H   -0.017588
    46  H   -0.016798
    47  H   -0.041475
    48  H    0.000941
    49  H   -0.004046
    50  H    0.025480
    51  H    0.016473
    52  H    0.016673
    53  H    0.011190
    54  H    0.044080
    55  H    0.017902
    56  H    0.017953
    57  H    0.005871
    58  H    0.026863
    59  H    0.039541
    60  H    0.037364
    61  H    0.035693
    62  H    0.031474
    63  H    0.016577
    64  H    0.009482
    65  H    0.023253
    66  H    0.012553
    67  H    0.004776
    68  H    0.006409
    69  H    0.004733
    70  H    0.008804
    71  H    0.018144
    72  H    0.028941
    73  H    0.047538
    74  H    0.009124
    75  H    0.046025
    76  H    0.035163
    77  H    0.042940
    78  H    0.046394
    79  H    0.053623
    80  Mg   0.837854
    81  C   -0.016840
    82  C   -0.087781
    83  C   -0.045498
    84  C   -0.064892
    85  N   -0.254560
    86  C   -0.049839
    87  C   -0.015103
    88  C   -0.090497
    89  C    0.045742
    90  C    0.114362
    91  C    0.062521
    92  C   -0.077885
    93  H    0.034861
    94  N   -0.423519
    95  C    0.162936
    96  C   -0.174576
    97  C   -0.007775
    98  C    0.152121
    99  C    0.099333
   100  C    0.015594
   101  O   -0.253138
   102  C    0.061188
   103  N   -0.350055
   104  C    0.037541
   105  C   -0.019835
   106  C   -0.034824
   107  C    0.088910
   108  C    0.073637
   109  C    0.034741
   110  C   -0.007680
   111  N   -0.324103
   112  C    0.078435
   113  C   -0.163161
   114  C    0.002249
   115  C    0.096160
   116  C    0.131494
   117  C    0.042361
   118  O   -0.187919
   119  C    0.000922
   120  C    0.211262
   121  O   -0.251040
   122  O   -0.305623
   123  C    0.152037
   124  H   -0.019583
   125  H   -0.015526
   126  H   -0.040476
   127  H   -0.000646
   128  H   -0.004308
   129  H    0.022452
   130  H    0.014468
   131  H    0.016343
   132  H    0.013916
   133  H    0.037663
   134  H    0.020803
   135  H    0.019606
   136  H    0.008794
   137  H    0.026275
   138  H    0.039804
   139  H    0.038347
   140  H    0.036445
   141  H    0.033860
   142  H    0.014409
   143  H    0.012421
   144  H    0.025178
   145  H    0.011688
   146  H    0.005680
   147  H    0.006274
   148  H    0.003633
   149  H    0.010944
   150  H    0.017913
   151  H    0.030097
   152  H    0.045979
   153  H    0.008502
   154  H    0.046930
   155  H    0.035031
   156  H    0.043901
   157  H    0.049500
   158  H    0.053565
 Sum of Mulliken charges =  -0.00000

 Dipole moment (field-independent basis, Debye):
    X=              6.1198    Y=              2.1176    Z=              3.8884  Tot=              7.5535
 Quadrupole moment (field-independent basis, Debye-Ang):
   XX=           -596.3165   YY=           -486.8789   ZZ=           -501.8110
   XY=              7.1150   XZ=             76.8975   YZ=             50.1644

 Normal termination of Gaussian 16 at Sun Sep 12 21:41:41 2021.
