 Gaussian 16, Revision A.03,
 Gaussian 16:  ES64L-G16RevA.03 25-Dec-2016

 -----------------------------------
 #p cam-b3lyp/Def2SVP td=(nstates=5)
 -----------------------------------

 --------------------------------
 TDDFT excited states in gaussian
 --------------------------------
 Symbolic Z-matrix:
 Charge =  0 Multiplicity = 1

                         Standard orientation:
 ---------------------------------------------------------------------
 Center     Atomic      Atomic             Coordinates (Angstroms)
 Number     Number       Type             X           Y           Z
 ---------------------------------------------------------------------
      1         12           0       -4.879061   -1.346762    0.567668
      2          6           0       -5.564403    2.149593    0.224122
      3          6           0       -5.986229   -1.726898   -2.637443
      4          6           0       -4.712223   -4.484290    0.997438
      5          6           0       -4.914168   -0.863993    4.018953
      6          7           0       -5.650193    0.103430   -0.916564
      7          6           0       -5.806408    1.423283   -0.944019
      8          6           0       -6.179167    1.972103   -2.353708
      9          6           0       -6.823111    0.652662   -2.975328
     10          6           0       -6.084480   -0.388674   -2.153155
     11          6           0       -8.318728    0.519943   -2.706971
     12          6           0       -4.921040    2.432250   -3.164332
     13          6           0       -5.217483    3.275683   -4.407754
     14          1           0       -4.297278    4.345000   -4.764308
     15          7           0       -4.820255   -2.818859   -0.748509
     16          6           0       -5.304047   -2.793852   -2.013660
     17          6           0       -5.018681   -4.127329   -2.585574
     18          6           0       -4.500375   -4.991383   -1.488822
     19          6           0       -4.683924   -4.129456   -0.349187
     20          6           0       -5.194512   -4.455091   -4.036576
     21          6           0       -3.939872   -6.378317   -1.469251
     22          8           0       -3.764928   -7.025930   -0.380874
     23          6           0       -3.680293   -7.000518   -2.780177
     24          7           0       -5.038206   -2.558714    2.259850
     25          6           0       -4.868631   -3.882961    2.178617
     26          6           0       -4.746142   -4.502233    3.539293
     27          6           0       -4.623754   -3.287488    4.568452
     28          6           0       -4.788645   -2.114996    3.570282
     29          6           0       -5.902871   -5.417057    3.964836
     30          6           0       -3.394500   -3.285962    5.511507
     31          6           0       -2.131695   -3.068774    4.708232
     32          7           0       -5.005347    0.353940    1.910318
     33          6           0       -5.025076    0.321782    3.312192
     34          6           0       -5.229984    1.707249    3.773235
     35          6           0       -5.332462    2.451607    2.599661
     36          6           0       -5.226220    1.582271    1.476603
     37          6           0       -5.357011    2.124702    5.127499
     38          6           0       -5.531646    3.775727    2.033190
     39          8           0       -5.590014    4.916460    2.494508
     40          6           0       -5.811686    3.616602    0.473676
     41          6           0       -4.941362    4.609106   -0.247976
     42          8           0       -3.699123    4.489911   -0.247404
     43          8           0       -5.708869    5.397581   -1.015948
     44          6           0       -4.904185    6.386309   -1.782143
     45          1           0       -6.528081   -2.000990   -3.544753
     46          1           0       -4.546471   -5.545862    1.192453
     47          1           0       -4.851481   -0.624817    5.082117
     48          1           0       -6.913547    2.777758   -2.348175
     49          1           0       -6.582352    0.541427   -4.032392
     50          1           0       -8.670401    1.290724   -2.021300
     51          1           0       -8.448877   -0.469039   -2.267120
     52          1           0       -8.880420    0.508570   -3.641396
     53          1           0       -4.459324    1.564156   -3.634749
     54          1           0       -4.223559    2.970432   -2.521521
     55          1           0       -6.244958    3.640651   -4.406130
     56          1           0       -5.161891    2.626767   -5.281835
     57          1           0       -5.745064   -3.674203   -4.559693
     58          1           0       -5.844986   -5.327911   -4.089288
     59          1           0       -4.245262   -4.673963   -4.525812
     60          1           0       -4.609585   -7.043139   -3.348639
     61          1           0       -3.198488   -7.954742   -2.570009
     62          1           0       -3.003325   -6.360600   -3.346895
     63          1           0       -3.852061   -5.120500    3.608510
     64          1           0       -5.477591   -3.236577    5.244502
     65          1           0       -5.588002   -6.426798    4.229385
     66          1           0       -6.633633   -5.434387    3.156766
     67          1           0       -6.503461   -5.039762    4.792095
     68          1           0       -3.296632   -4.250557    6.008422
     69          1           0       -3.445681   -2.518602    6.284028
     70          1           0       -1.893893   -4.070767    4.352857
     71          1           0       -1.336623   -2.682001    5.346572
     72          1           0       -2.319197   -2.448149    3.831788
     73          1           0       -4.759038    3.030757    5.224766
     74          1           0       -5.016816    1.349945    5.814246
     75          1           0       -6.432231    2.292679    5.187017
     76          1           0       -6.872114    3.816822    0.323586
     77          1           0       -5.294856    7.374734   -1.540016
     78          1           0       -4.936932    6.070854   -2.825130
     79          1           0       -3.862125    6.497276   -1.480256
     80         12           0        5.581820    0.007389   -0.325611
     81          6           0        3.624522    3.010897   -0.161448
     82          6           0        3.471976   -1.055244   -2.786096
     83          6           0        7.004155   -2.825376   -0.184699
     84          6           0        6.794413    0.789532    2.846696
     85          7           0        3.813926    0.946388   -1.266407
     86          6           0        3.200422    2.115926   -1.165734
     87          6           0        2.121284    2.371743   -2.251818
     88          6           0        1.784477    0.845446   -2.620361
     89          6           0        3.115172    0.201832   -2.236061
     90          6           0        0.693682    0.242930   -1.750596
     91          6           0        2.691644    3.149147   -3.489699
     92          6           0        1.632310    3.702721   -4.445282
     93          1           0        1.887062    4.982432   -5.100965
     94          7           0        5.608129   -1.483052   -1.635756
     95          6           0        4.682077   -1.753323   -2.579499
     96          6           0        5.152741   -2.964093   -3.269914
     97          6           0        6.347615   -3.480759   -2.548775
     98          6           0        6.354033   -2.609214   -1.390999
     99          6           0        4.529189   -3.472485   -4.537250
    100          6           0        7.315793   -4.585813   -2.844911
    101          8           0        8.138973   -5.014685   -1.961012
    102          6           0        7.208396   -5.213997   -4.169802
    103          7           0        6.569119   -1.000190    1.201593
    104          6           0        7.141924   -2.196853    0.982907
    105          6           0        8.024484   -2.598846    2.140435
    106          6           0        8.115916   -1.307659    3.079614
    107          6           0        7.156133   -0.369967    2.314812
    108          6           0        7.540250   -3.792799    2.962862
    109          6           0        9.538319   -0.787713    3.424729
    110          6           0       10.204647   -0.243639    2.181597
    111          7           0        5.429831    1.684792    1.027629
    112          6           0        5.994929    1.794389    2.317102
    113          6           0        5.520135    3.069003    2.893618
    114          6           0        4.686740    3.605830    1.900766
    115          6           0        4.629042    2.718201    0.792494
    116          6           0        5.828373    3.559972    4.193636
    117          6           0        3.834269    4.716550    1.542600
    118          8           0        3.566833    5.805136    2.049744
    119          6           0        3.008237    4.321194    0.243462
    120          6           0        3.094737    5.466108   -0.728240
    121          8           0        4.183968    5.780098   -1.239719
    122          8           0        1.850875    5.859136   -1.057957
    123          6           0        1.884328    6.985619   -2.028390
    124          1           0        2.739997   -1.578775   -3.401736
    125          1           0        7.600634   -3.738842   -0.127617
    126          1           0        7.205080    1.151765    3.791587
    127          1           0        1.229451    2.873988   -1.896630
    128          1           0        1.597445    0.728108   -3.684600
    129          1           0        0.406541    0.905594   -0.947745
    130          1           0        1.107214   -0.675035   -1.353899
    131          1           0       -0.159865   -0.052801   -2.367301
    132          1           0        3.194626    2.438511   -4.158086
    133          1           0        3.343562    3.940771   -3.175126
    134          1           0        0.629831    3.691668   -4.000458
    135          1           0        1.552609    3.029772   -5.302477
    136          1           0        3.567745   -2.983417   -4.736853
    137          1           0        4.269397   -4.522884   -4.366817
    138          1           0        5.204237   -3.409825   -5.393448
    139          1           0        6.208630   -5.622755   -4.295689
    140          1           0        8.040122   -5.918833   -4.227319
    141          1           0        7.330377   -4.439425   -4.935162
    142          1           0        9.019370   -2.855044    1.797415
    143          1           0        7.660973   -1.487379    4.064796
    144          1           0        8.278836   -4.614862    3.015503
    145          1           0        6.609323   -4.144590    2.538413
    146          1           0        7.254327   -3.562133    3.987679
    147          1           0       10.166065   -1.608953    3.779208
    148          1           0        9.543742   -0.022925    4.194177
    149          1           0       10.608655   -1.141794    1.704961
    150          1           0       10.997245    0.453544    2.445721
    151          1           0        9.466295    0.189250    1.496688
    152          1           0        6.049384    4.613396    4.084281
    153          1           0        6.664660    3.021147    4.634164
    154          1           0        4.887509    3.350292    4.709459
    155          1           0        1.981531    4.125368    0.555054
    156          1           0        1.301830    7.802043   -1.590393
    157          1           0        1.522532    6.565947   -2.985859
    158          1           0        2.837309    7.472992   -2.197903
 ---------------------------------------------------------------------

 SCF Done:  E(RCAM-B3LYP) =  -4069.81137245     A.U. after   19 cycles

 Excitation energies and oscillator strengths:

 Excited State   1:      Singlet-A      1.6552 eV  749.04 nm  f=0.0019  <S**2>=0.000
     309 -> 315        0.11551
     310 -> 316       -0.12281
     311 -> 313        0.46836
     312 -> 314        0.50296
 This state for optimization and/or second-order correction.
 Total Energy, E(TD-HF/TD-DFT) =  -4069.75054348
 Copying the excited state density for this state as the 1-particle RhoCI density.

 Excited State   2:      Singlet-A      1.6973 eV  730.49 nm  f=0.7129  <S**2>=0.000
     309 -> 315        0.13197
     310 -> 316        0.12167
     311 -> 313        0.50093
     312 -> 314       -0.46657

 Excited State   3:      Singlet-A      2.1825 eV  568.08 nm  f=0.0463  <S**2>=0.000
     309 -> 313        0.23655
     310 -> 314        0.59895
     312 -> 316        0.25131

 Excited State   4:      Singlet-A      2.1943 eV  565.02 nm  f=0.1420  <S**2>=0.000
     309 -> 313        0.59542
     310 -> 314       -0.23378
     311 -> 315       -0.26063
     312 -> 316       -0.10315

 Excited State   5:      Singlet-A      2.4239 eV  511.51 nm  f=0.0000  <S**2>=0.000
     312 -> 313        0.70684

 The electronic state is 1-A.
 Alpha  occ. eigenvalues --  -46.88011 -46.87448 -19.26459 -19.25945 -19.19200
 Alpha  occ. eigenvalues --  -19.19020 -19.18816 -19.18547 -19.18319 -19.17753
 Alpha  occ. eigenvalues --  -14.42668 -14.42278 -14.41647 -14.41150 -14.39617
 Alpha  occ. eigenvalues --  -14.39144 -14.38788 -14.38380 -10.39260 -10.38734
 Alpha  occ. eigenvalues --  -10.35655 -10.35229 -10.34542 -10.33920 -10.31850
 Alpha  occ. eigenvalues --  -10.31611 -10.31413 -10.31139 -10.31071 -10.30788
 Alpha  occ. eigenvalues --  -10.30768 -10.30699 -10.30405 -10.30182 -10.30135
 Alpha  occ. eigenvalues --  -10.30097 -10.29961 -10.29824 -10.29683 -10.29461
 Alpha  occ. eigenvalues --  -10.29245 -10.29192 -10.29006 -10.28861 -10.28573
 Alpha  occ. eigenvalues --  -10.28451 -10.28410 -10.28351 -10.28175 -10.27982
 Alpha  occ. eigenvalues --  -10.27939 -10.27888 -10.27788 -10.27785 -10.27725
 Alpha  occ. eigenvalues --  -10.27653 -10.27609 -10.27599 -10.27465 -10.27360
 Alpha  occ. eigenvalues --  -10.27345 -10.27334 -10.27263 -10.27243 -10.27211
 Alpha  occ. eigenvalues --  -10.27043 -10.26675 -10.26645 -10.26458 -10.26433
 Alpha  occ. eigenvalues --  -10.26311 -10.26295 -10.26208 -10.26000 -10.25952
 Alpha  occ. eigenvalues --  -10.25736 -10.25731 -10.25643 -10.25568 -10.25249
 Alpha  occ. eigenvalues --  -10.25017 -10.24980 -10.24812 -10.24644 -10.24597
 Alpha  occ. eigenvalues --  -10.24479  -3.16755  -3.16198  -1.91637  -1.91223
 Alpha  occ. eigenvalues --   -1.91081  -1.91065  -1.90669  -1.90506  -1.16808
 Alpha  occ. eigenvalues --   -1.16256  -1.08772  -1.08345  -1.07420  -1.06820
 Alpha  occ. eigenvalues --   -1.06803  -1.06595  -1.04797  -1.04268  -1.03962
 Alpha  occ. eigenvalues --   -1.03448  -1.03434  -1.02831  -1.02611  -1.01897
 Alpha  occ. eigenvalues --   -0.92166  -0.91726  -0.89692  -0.89431  -0.89298
 Alpha  occ. eigenvalues --   -0.88896  -0.88456  -0.88039  -0.88038  -0.87889
 Alpha  occ. eigenvalues --   -0.87577  -0.87490  -0.87469  -0.86948  -0.85218
 Alpha  occ. eigenvalues --   -0.84769  -0.84094  -0.83691  -0.83174  -0.82865
 Alpha  occ. eigenvalues --   -0.82774  -0.82426  -0.81773  -0.81318  -0.80796
 Alpha  occ. eigenvalues --   -0.80197  -0.79000  -0.78444  -0.77419  -0.77139
 Alpha  occ. eigenvalues --   -0.76936  -0.76655  -0.76123  -0.75581  -0.75065
 Alpha  occ. eigenvalues --   -0.74603  -0.72962  -0.72487  -0.71864  -0.71353
 Alpha  occ. eigenvalues --   -0.70061  -0.69591  -0.69096  -0.68603  -0.67838
 Alpha  occ. eigenvalues --   -0.67477  -0.67383  -0.66992  -0.65516  -0.65046
 Alpha  occ. eigenvalues --   -0.65015  -0.64819  -0.64545  -0.64443  -0.64402
 Alpha  occ. eigenvalues --   -0.64006  -0.62477  -0.61978  -0.60644  -0.60157
 Alpha  occ. eigenvalues --   -0.60030  -0.59546  -0.59178  -0.58766  -0.58692
 Alpha  occ. eigenvalues --   -0.58188  -0.57761  -0.57489  -0.57249  -0.57012
 Alpha  occ. eigenvalues --   -0.56500  -0.56175  -0.55992  -0.55720  -0.55593
 Alpha  occ. eigenvalues --   -0.55502  -0.55227  -0.55019  -0.54690  -0.54234
 Alpha  occ. eigenvalues --   -0.54138  -0.53667  -0.53497  -0.53440  -0.53106
 Alpha  occ. eigenvalues --   -0.53024  -0.52983  -0.52910  -0.52654  -0.52585
 Alpha  occ. eigenvalues --   -0.52483  -0.52231  -0.52061  -0.51854  -0.51666
 Alpha  occ. eigenvalues --   -0.51434  -0.51376  -0.50960  -0.50801  -0.50327
 Alpha  occ. eigenvalues --   -0.50211  -0.50124  -0.49782  -0.49732  -0.49686
 Alpha  occ. eigenvalues --   -0.49408  -0.49301  -0.49277  -0.48962  -0.48848
 Alpha  occ. eigenvalues --   -0.48776  -0.48655  -0.48614  -0.48310  -0.48192
 Alpha  occ. eigenvalues --   -0.48125  -0.47898  -0.47491  -0.47377  -0.46989
 Alpha  occ. eigenvalues --   -0.46924  -0.46791  -0.46546  -0.46501  -0.46335
 Alpha  occ. eigenvalues --   -0.46330  -0.46070  -0.45990  -0.45858  -0.45559
 Alpha  occ. eigenvalues --   -0.45368  -0.45016  -0.44762  -0.44711  -0.44331
 Alpha  occ. eigenvalues --   -0.44307  -0.44268  -0.44261  -0.44204  -0.43900
 Alpha  occ. eigenvalues --   -0.43883  -0.43710  -0.43672  -0.43595  -0.43292
 Alpha  occ. eigenvalues --   -0.43213  -0.43151  -0.42873  -0.42817  -0.42688
 Alpha  occ. eigenvalues --   -0.42573  -0.42375  -0.42192  -0.41891  -0.41762
 Alpha  occ. eigenvalues --   -0.41760  -0.41415  -0.41337  -0.41234  -0.41090
 Alpha  occ. eigenvalues --   -0.41048  -0.40763  -0.40742  -0.40538  -0.40523
 Alpha  occ. eigenvalues --   -0.40491  -0.40290  -0.39988  -0.39594  -0.39264
 Alpha  occ. eigenvalues --   -0.38652  -0.38166  -0.38011  -0.37505  -0.37497
 Alpha  occ. eigenvalues --   -0.37438  -0.37068  -0.36972  -0.36888  -0.36461
 Alpha  occ. eigenvalues --   -0.36378  -0.35973  -0.34486  -0.34033  -0.33955
 Alpha  occ. eigenvalues --   -0.33543  -0.33384  -0.32955  -0.31548  -0.31236
 Alpha  occ. eigenvalues --   -0.31105  -0.30748  -0.30178  -0.29655  -0.29647
 Alpha  occ. eigenvalues --   -0.29507  -0.29127  -0.28985  -0.24285  -0.23812
 Alpha  occ. eigenvalues --   -0.21329  -0.20906
 Alpha virt. eigenvalues --   -0.08974  -0.08578  -0.01954  -0.01477  -0.00268
 Alpha virt. eigenvalues --    0.00171   0.02026   0.02448   0.02672   0.03420
 Alpha virt. eigenvalues --    0.04486   0.04912   0.04955   0.05510   0.05881

 Mulliken charges:
               1
     1  Mg   0.836094
     2  C   -0.003627
     3  C   -0.095173
     4  C   -0.045520
     5  C   -0.063458
     6  N   -0.256769
     7  C   -0.053077
     8  C   -0.013522
     9  C   -0.086724
    10  C    0.045455
    11  C    0.104716
    12  C    0.053685
    13  C   -0.071641
    14  H    0.035225
    15  N   -0.433238
    16  C    0.167480
    17  C   -0.178104
    18  C   -0.004363
    19  C    0.148428
    20  C    0.110236
    21  C    0.011931
    22  O   -0.249014
    23  C    0.062897
    24  N   -0.341046
    25  C    0.041096
    26  C   -0.028218
    27  C   -0.024198
    28  C    0.074948
    29  C    0.076023
    30  C    0.034979
    31  C   -0.004521
    32  N   -0.310811
    33  C    0.080620
    34  C   -0.168764
    35  C    0.009048
    36  C    0.082798
    37  C    0.127010
    38  C    0.046898
    39  O   -0.186578
    40  C   -0.005665
    41  C    0.213509
    42  O   -0.257530
    43  O   -0.304672
    44  C    0.157167
    45  H   -0.017593
    46  H   -0.016443
    47  H   -0.040604
    48  H    0.001664
    49  H   -0.004646
    50  H    0.025880
    51  H    0.016835
    52  H    0.016905
    53  H    0.008768
    54  H    0.042820
    55  H    0.019221
    56  H    0.017633
    57  H    0.005692
    58  H    0.027396
    59  H    0.037760
    60  H    0.037724
    61  H    0.036074
    62  H    0.029646
    63  H    0.016818
    64  H    0.009939
    65  H    0.023575
    66  H    0.012559
    67  H    0.005117
    68  H    0.006814
    69  H    0.005252
    70  H    0.008922
    71  H    0.018833
    72  H    0.028352
    73  H    0.049156
    74  H    0.009582
    75  H    0.046404
    76  H    0.035567
    77  H    0.043945
    78  H    0.045553
    79  H    0.054227
    80  Mg   0.837342
    81  C   -0.016948
    82  C   -0.087769
    83  C   -0.045734
    84  C   -0.065521
    85  N   -0.254540
    86  C   -0.049233
    87  C   -0.016549
    88  C   -0.091311
    89  C    0.045771
    90  C    0.112487
    91  C    0.062608
    92  C   -0.077586
    93  H    0.032888
    94  N   -0.423386
    95  C    0.162708
    96  C   -0.175009
    97  C   -0.008194
    98  C    0.151963
    99  C    0.099741
   100  C    0.015304
   101  O   -0.253634
   102  C    0.061334
   103  N   -0.350112
   104  C    0.037350
   105  C   -0.019676
   106  C   -0.034786
   107  C    0.089176
   108  C    0.073807
   109  C    0.034857
   110  C   -0.007594
   111  N   -0.324304
   112  C    0.078854
   113  C   -0.163431
   114  C    0.003014
   115  C    0.095849
   116  C    0.131480
   117  C    0.042850
   118  O   -0.186288
   119  C    0.000703
   120  C    0.210355
   121  O   -0.252724
   122  O   -0.301981
   123  C    0.153269
   124  H   -0.021005
   125  H   -0.016115
   126  H   -0.040880
   127  H    0.006565
   128  H   -0.006183
   129  H    0.028564
   130  H    0.013165
   131  H    0.015513
   132  H    0.012720
   133  H    0.037587
   134  H    0.023418
   135  H    0.017530
   136  H    0.007495
   137  H    0.025313
   138  H    0.038943
   139  H    0.037846
   140  H    0.035873
   141  H    0.033489
   142  H    0.014000
   143  H    0.012055
   144  H    0.024681
   145  H    0.011840
   146  H    0.005167
   147  H    0.005844
   148  H    0.003465
   149  H    0.010731
   150  H    0.017597
   151  H    0.030368
   152  H    0.046019
   153  H    0.007885
   154  H    0.047447
   155  H    0.042020
   156  H    0.044113
   157  H    0.048073
   158  H    0.052099
 Sum of Mulliken charges =  -0.00000

 Dipole moment (field-independent basis, Debye):
    X=             -4.7942    Y=             -4.6552    Z=             -5.3500  Tot=              8.5602
 Quadrupole moment (field-independent basis, Debye-Ang):
   XX=           -508.6056   YY=           -565.4239   ZZ=           -449.3925
   XY=              1.0741   XZ=             33.4981   YZ=            -20.4194

 Normal termination of Gaussian 16 at Fri Sep 10 21:35:31 2021.
