 Gaussian 16, Revision A.03,
 Gaussian 16:  ES64L-G16RevA.03 25-Dec-2016

 -----------------------------------
 #p cam-b3lyp/Def2SVP td=(nstates=5)
 -----------------------------------

 --------------------------------
 TDDFT excited states in gaussian
 --------------------------------
 Symbolic Z-matrix:
 Charge =  0 Multiplicity = 1

                         Standard orientation:
 ---------------------------------------------------------------------
 Center     Atomic      Atomic             Coordinates (Angstroms)
 Number     Number       Type             X           Y           Z
 ---------------------------------------------------------------------
      1         12           0       -7.726088   -0.818354   -0.024739
      2          6           0       -8.007566    2.077482    2.060235
      3          6           0       -8.626435    1.167279   -2.649563
      4          6           0       -7.926890   -3.439707   -1.798101
      5          6           0       -7.965682   -2.744106    2.870038
      6          7           0       -8.225974    1.334430   -0.152337
      7          6           0       -8.238190    2.346650    0.709308
      8          6           0       -8.444656    3.733592    0.030237
      9          6           0       -9.177590    3.254837   -1.302279
     10          6           0       -8.617213    1.846548   -1.395155
     11          6           0      -10.694607    3.171905   -1.167057
     12          6           0       -7.087971    4.447996   -0.287197
     13          6           0       -7.199718    5.932337   -0.647194
     14          1           0       -6.146893    6.838969   -0.214844
     15          7           0       -7.726926   -1.040188   -1.987808
     16          6           0       -8.110031   -0.121202   -2.906492
     17          6           0       -7.926711   -0.763035   -4.226009
     18          6           0       -7.586289   -2.194021   -3.992586
     19          6           0       -7.761047   -2.289379   -2.565791
     20          6           0       -8.028255   -0.020920   -5.523200
     21          6           0       -7.179770   -3.302629   -4.911208
     22          8           0       -7.156117   -4.524099   -4.534346
     23          6           0       -6.891364   -2.926700   -6.307109
     24          7           0       -8.138655   -2.813200    0.431348
     25          6           0       -8.105591   -3.758377   -0.514449
     26          6           0       -8.151144   -5.132573    0.085092
     27          6           0       -7.976760   -4.933838    1.659845
     28          6           0       -7.941214   -3.386129    1.699878
     29          6           0       -9.427149   -5.940425   -0.189131
     30          6           0       -6.827767   -5.715947    2.344346
     31          6           0       -5.492878   -5.186290    1.870392
     32          7           0       -7.769765   -0.436677    2.111487
     33          6           0       -7.896830   -1.386615    3.135276
     34          6           0       -7.986602   -0.643337    4.405531
     35          6           0       -7.921770    0.696621    4.028499
     36          6           0       -7.825683    0.785496    2.610345
     37          6           0       -8.168613   -1.216144    5.695182
     38          6           0       -7.936119    2.074630    4.491902
     39          8           0       -7.906690    2.618251    5.596937
     40          6           0       -8.114964    3.026503    3.227869
     41          6           0       -7.092677    4.124766    3.337682
     42          8           0       -5.873702    3.876308    3.239025
     43          8           0       -7.712654    5.314287    3.302891
     44          6           0       -6.752547    6.447735    3.378024
     45          1           0       -9.125546    1.635977   -3.499946
     46          1           0       -7.890136   -4.373584   -2.362866
     47          1           0       -7.956972   -3.280058    3.820897
     48          1           0       -9.087380    4.419067    0.582916
     49          1           0       -8.872246    3.842037   -2.168121
     50          1           0      -11.012074    3.331718   -0.136720
     51          1           0      -10.961690    2.167526   -1.496273
     52          1           0      -11.183381    3.854980   -1.862245
     53          1           0       -6.687741    4.059585   -1.223687
     54          1           0       -6.386773    4.329336    0.539585
     55          1           0       -8.179723    6.333008   -0.386497
     56          1           0       -7.148850    6.025435   -1.732065
     57          1           0       -8.452100    0.972819   -5.383972
     58          1           0       -8.762311   -0.546187   -6.133909
     59          1           0       -7.074045    0.019341   -6.048742
     60          1           0       -7.775125   -2.461752   -6.744532
     61          1           0       -6.530921   -3.832147   -6.794035
     62          1           0       -6.109869   -2.166325   -6.313742
     63          1           0       -7.335654   -5.749886   -0.289509
     64          1           0       -8.868132   -5.234099    2.211183
     65          1           0       -9.242181   -6.901346   -0.669883
     66          1           0      -10.093577   -5.323663   -0.791434
     67          1           0      -10.043866   -6.132674    0.688433
     68          1           0       -6.870402   -6.769528    2.070311
     69          1           0       -6.854101   -5.654931    3.432388
     70          1           0       -5.337475   -5.720856    0.933951
     71          1           0       -4.710717   -5.426290    2.591388
     72          1           0       -5.547594   -4.123523    1.633710
     73          1           0       -7.486380   -0.689103    6.362081
     74          1           0       -7.964838   -2.286649    5.685330
     75          1           0       -9.221247   -0.993030    5.868498
     76          1           0       -9.133934    3.410368    3.266205
     77          1           0       -7.052562    7.067022    4.223428
     78          1           0       -6.741197    6.910175    2.390894
     79          1           0       -5.729899    6.195290    3.660518
     80         12           0        8.143203   -0.460311    0.096496
     81          6           0        6.261572    1.831755   -1.924645
     82          6           0       10.458778    2.014252    0.482806
     83          6           0       10.034683   -2.585848    1.500698
     84          6           0        6.306528   -3.037892   -1.362420
     85          7           0        8.235753    1.612324   -0.670233
     86          6           0        7.433792    2.393931   -1.377559
     87          6           0        7.874689    3.881025   -1.438581
     88          6           0        9.442431    3.678847   -1.155458
     89          6           0        9.381930    2.372098   -0.367160
     90          6           0       10.255656    3.438687   -2.416541
     91          6           0        7.197090    4.751628   -0.322810
     92          6           0        7.339447    6.263523   -0.511685
     93          1           0        6.230642    7.123042   -0.106412
     94          7           0        9.717508   -0.197305    1.275884
     95          6           0       10.532537    0.877527    1.317519
     96          6           0       11.549183    0.572314    2.336067
     97          6           0       11.364862   -0.837663    2.775032
     98          6           0       10.356370   -1.277662    1.831929
     99          6           0       12.514561    1.598023    2.855096
    100          6           0       12.001345   -1.658430    3.855506
    101          8           0       11.861118   -2.931502    3.905041
    102          6           0       12.869697   -0.939663    4.799345
    103          7           0        8.318354   -2.524563   -0.078156
    104          6           0        9.185051   -3.211974    0.686196
    105          6           0        8.941205   -4.698812    0.585102
    106          6           0        7.569230   -4.855303   -0.221612
    107          6           0        7.291163   -3.369497   -0.538582
    108          6           0       10.035933   -5.506614   -0.111615
    109          6           0        6.446706   -5.689568    0.454125
    110          6           0        5.937104   -4.970119    1.682169
    111          7           0        6.446746   -0.601409   -1.233991
    112          6           0        5.854854   -1.779640   -1.739488
    113          6           0        4.806235   -1.365158   -2.693969
    114          6           0        4.876904    0.036095   -2.694862
    115          6           0        5.911040    0.464010   -1.819107
    116          6           0        3.980954   -2.240373   -3.454904
    117          6           0        4.318915    1.250194   -3.245578
    118          8           0        3.362902    1.514717   -3.973444
    119          6           0        5.274740    2.462550   -2.867444
    120          6           0        4.419082    3.581730   -2.340364
    121          8           0        3.790241    3.448993   -1.275677
    122          8           0        4.654653    4.693372   -3.060868
    123          6           0        3.837172    5.834187   -2.568868
    124          1           0       11.351565    2.640201    0.480650
    125          1           0       10.584915   -3.358422    2.042795
    126          1           0        5.624248   -3.778723   -1.784722
    127          1           0        7.729061    4.358928   -2.399926
    128          1           0        9.838496    4.479618   -0.536385
    129          1           0        9.626011    3.325677   -3.286550
    130          1           0       10.817679    2.531741   -2.235884
    131          1           0       10.997266    4.232520   -2.543740
    132          1           0        7.752376    4.626408    0.615646
    133          1           0        6.160496    4.496633   -0.217575
    134          1           0        7.676980    6.522658   -1.522558
    135          1           0        8.141849    6.620429    0.138534
    136          1           0       12.521248    2.497901    2.227742
    137          1           0       13.519793    1.178576    2.739097
    138          1           0       12.350345    1.836143    3.908180
    139          1           0       13.673602   -0.453343    4.251900
    140          1           0       13.160073   -1.677775    5.549496
    141          1           0       12.286129   -0.143436    5.274836
    142          1           0        8.823318   -5.139058    1.567641
    143          1           0        7.719667   -5.359826   -1.187347
    144          1           0       10.446867   -6.318453    0.517769
    145          1           0       10.820756   -4.826758   -0.415545
    146          1           0        9.744163   -5.960208   -1.057310
    147          1           0        6.842291   -6.648445    0.797959
    148          1           0        5.611440   -5.903277   -0.204402
    149          1           0        6.661268   -5.252813    2.452073
    150          1           0        4.935856   -5.310907    1.937904
    151          1           0        5.998411   -3.883021    1.555217
    152          1           0        2.976898   -1.840098   -3.408734
    153          1           0        4.022010   -3.258151   -3.072512
    154          1           0        4.454683   -2.151136   -4.436176
    155          1           0        5.813018    2.749659   -3.771553
    156          1           0        3.267534    6.211240   -3.423863
    157          1           0        4.552567    6.531210   -2.093357
    158          1           0        3.042474    5.614749   -1.865479
 ---------------------------------------------------------------------

 SCF Done:  E(RCAM-B3LYP) =  -4069.81167582     A.U. after   19 cycles

 Excitation energies and oscillator strengths:

 Excited State   1:      Singlet-A      1.6718 eV  741.63 nm  f=0.1830  <S**2>=0.000
     309 -> 315        0.14460
     311 -> 313        0.57473
     312 -> 314       -0.37503
 This state for optimization and/or second-order correction.
 Total Energy, E(TD-HF/TD-DFT) =  -4069.75023905
 Copying the excited state density for this state as the 1-particle RhoCI density.

 Excited State   2:      Singlet-A      1.6837 eV  736.40 nm  f=0.5903  <S**2>=0.000
     310 -> 316        0.14777
     311 -> 313        0.37465
     312 -> 314        0.57405

 Excited State   3:      Singlet-A      2.1854 eV  567.34 nm  f=0.0524  <S**2>=0.000
     309 -> 313        0.62265
     310 -> 314        0.15973
     311 -> 315       -0.26410

 Excited State   4:      Singlet-A      2.1928 eV  565.43 nm  f=0.1398  <S**2>=0.000
     309 -> 313       -0.15865
     310 -> 314        0.62065
     312 -> 316       -0.26968

 Excited State   5:      Singlet-A      2.7418 eV  452.19 nm  f=0.0000  <S**2>=0.000
     312 -> 313        0.70693

 The electronic state is 1-A.
 Alpha  occ. eigenvalues --  -46.87603 -46.87552 -19.26303 -19.26053 -19.19098
 Alpha  occ. eigenvalues --  -19.18771 -19.18660 -19.18578 -19.18008 -19.17942
 Alpha  occ. eigenvalues --  -14.42442 -14.42209 -14.41304 -14.41216 -14.39296
 Alpha  occ. eigenvalues --  -14.39159 -14.38543 -14.38346 -10.39031 -10.38834
 Alpha  occ. eigenvalues --  -10.35337 -10.35210 -10.34185 -10.34162 -10.31720
 Alpha  occ. eigenvalues --  -10.31461 -10.31256 -10.31169 -10.30970 -10.30665
 Alpha  occ. eigenvalues --  -10.30342 -10.30332 -10.30306 -10.30272 -10.30086
 Alpha  occ. eigenvalues --  -10.29977 -10.29840 -10.29697 -10.29394 -10.29381
 Alpha  occ. eigenvalues --  -10.29346 -10.29016 -10.28669 -10.28601 -10.28506
 Alpha  occ. eigenvalues --  -10.28350 -10.28289 -10.28123 -10.28094 -10.27948
 Alpha  occ. eigenvalues --  -10.27884 -10.27616 -10.27558 -10.27490 -10.27463
 Alpha  occ. eigenvalues --  -10.27429 -10.27414 -10.27411 -10.27344 -10.27323
 Alpha  occ. eigenvalues --  -10.27299 -10.27251 -10.27227 -10.27165 -10.27004
 Alpha  occ. eigenvalues --  -10.26927 -10.26632 -10.26433 -10.26360 -10.26158
 Alpha  occ. eigenvalues --  -10.26074 -10.26025 -10.25993 -10.25990 -10.25878
 Alpha  occ. eigenvalues --  -10.25800 -10.25790 -10.25637 -10.25354 -10.25257
 Alpha  occ. eigenvalues --  -10.24819 -10.24656 -10.24636 -10.24598 -10.24557
 Alpha  occ. eigenvalues --  -10.24484  -3.16353  -3.16294  -1.91235  -1.91175
 Alpha  occ. eigenvalues --   -1.90823  -1.90762  -1.90660  -1.90604  -1.16594
 Alpha  occ. eigenvalues --   -1.16398  -1.08616  -1.08401  -1.06979  -1.06912
 Alpha  occ. eigenvalues --   -1.06886  -1.06397  -1.04441  -1.04341  -1.03608
 Alpha  occ. eigenvalues --   -1.03526  -1.02996  -1.02983  -1.02175  -1.02056
 Alpha  occ. eigenvalues --   -0.91935  -0.91737  -0.89438  -0.89301  -0.89101
 Alpha  occ. eigenvalues --   -0.88950  -0.88165  -0.88073  -0.87741  -0.87643
 Alpha  occ. eigenvalues --   -0.87630  -0.87435  -0.87066  -0.87030  -0.84948
 Alpha  occ. eigenvalues --   -0.84743  -0.83820  -0.83727  -0.82877  -0.82731
 Alpha  occ. eigenvalues --   -0.82601  -0.82413  -0.81547  -0.81356  -0.80391
 Alpha  occ. eigenvalues --   -0.80362  -0.78582  -0.78558  -0.77092  -0.76991
 Alpha  occ. eigenvalues --   -0.76848  -0.76706  -0.75791  -0.75694  -0.74752
 Alpha  occ. eigenvalues --   -0.74687  -0.72645  -0.72544  -0.71531  -0.71447
 Alpha  occ. eigenvalues --   -0.69700  -0.69698  -0.68775  -0.68637  -0.67549
 Alpha  occ. eigenvalues --   -0.67407  -0.67145  -0.66972  -0.65220  -0.65048
 Alpha  occ. eigenvalues --   -0.64717  -0.64623  -0.64602  -0.64391  -0.64148
 Alpha  occ. eigenvalues --   -0.64050  -0.62228  -0.62069  -0.60285  -0.60207
 Alpha  occ. eigenvalues --   -0.59745  -0.59567  -0.58940  -0.58758  -0.58373
 Alpha  occ. eigenvalues --   -0.58273  -0.57503  -0.57352  -0.57183  -0.57083
 Alpha  occ. eigenvalues --   -0.56152  -0.56078  -0.55838  -0.55746  -0.55401
 Alpha  occ. eigenvalues --   -0.55286  -0.55195  -0.55124  -0.54434  -0.54303
 Alpha  occ. eigenvalues --   -0.53861  -0.53655  -0.53175  -0.53089  -0.53068
 Alpha  occ. eigenvalues --   -0.52983  -0.52847  -0.52681  -0.52616  -0.52514
 Alpha  occ. eigenvalues --   -0.52339  -0.52230  -0.51833  -0.51695  -0.51606
 Alpha  occ. eigenvalues --   -0.51373  -0.51150  -0.50969  -0.50421  -0.50325
 Alpha  occ. eigenvalues --   -0.49928  -0.49818  -0.49814  -0.49681  -0.49435
 Alpha  occ. eigenvalues --   -0.49278  -0.49151  -0.49058  -0.48981  -0.48868
 Alpha  occ. eigenvalues --   -0.48509  -0.48367  -0.48326  -0.48287  -0.48245
 Alpha  occ. eigenvalues --   -0.48211  -0.47543  -0.47463  -0.47068  -0.47067
 Alpha  occ. eigenvalues --   -0.46655  -0.46571  -0.46502  -0.46316  -0.46216
 Alpha  occ. eigenvalues --   -0.46129  -0.46033  -0.45940  -0.45773  -0.45599
 Alpha  occ. eigenvalues --   -0.45156  -0.44990  -0.44465  -0.44424  -0.44351
 Alpha  occ. eigenvalues --   -0.44273  -0.44079  -0.44022  -0.43919  -0.43888
 Alpha  occ. eigenvalues --   -0.43859  -0.43786  -0.43503  -0.43335  -0.43268
 Alpha  occ. eigenvalues --   -0.43156  -0.42880  -0.42851  -0.42800  -0.42496
 Alpha  occ. eigenvalues --   -0.42474  -0.42436  -0.41907  -0.41787  -0.41620
 Alpha  occ. eigenvalues --   -0.41475  -0.41405  -0.41298  -0.40940  -0.40915
 Alpha  occ. eigenvalues --   -0.40668  -0.40644  -0.40639  -0.40582  -0.40439
 Alpha  occ. eigenvalues --   -0.40356  -0.40172  -0.39980  -0.39364  -0.39234
 Alpha  occ. eigenvalues --   -0.38296  -0.38253  -0.37599  -0.37503  -0.37211
 Alpha  occ. eigenvalues --   -0.37145  -0.37099  -0.37019  -0.36717  -0.36482
 Alpha  occ. eigenvalues --   -0.36162  -0.35963  -0.34198  -0.34049  -0.33799
 Alpha  occ. eigenvalues --   -0.33522  -0.33120  -0.32949  -0.31219  -0.31109
 Alpha  occ. eigenvalues --   -0.30918  -0.30801  -0.29913  -0.29802  -0.29272
 Alpha  occ. eigenvalues --   -0.29208  -0.29157  -0.29085  -0.23981  -0.23843
 Alpha  occ. eigenvalues --   -0.21062  -0.20892
 Alpha virt. eigenvalues --   -0.08738  -0.08536  -0.01628  -0.01514   0.00025
 Alpha virt. eigenvalues --    0.00183   0.02258   0.02430   0.03309   0.03427
 Alpha virt. eigenvalues --    0.04783   0.04955   0.05221   0.05341   0.06235

 Mulliken charges:
               1
     1  Mg   0.839933
     2  C   -0.002543
     3  C   -0.093672
     4  C   -0.045951
     5  C   -0.064154
     6  N   -0.256747
     7  C   -0.052279
     8  C   -0.014192
     9  C   -0.087078
    10  C    0.046639
    11  C    0.104907
    12  C    0.053322
    13  C   -0.071652
    14  H    0.036082
    15  N   -0.433081
    16  C    0.168879
    17  C   -0.176775
    18  C   -0.003820
    19  C    0.148981
    20  C    0.110189
    21  C    0.012600
    22  O   -0.250117
    23  C    0.062194
    24  N   -0.341166
    25  C    0.041286
    26  C   -0.028089
    27  C   -0.023882
    28  C    0.074884
    29  C    0.076345
    30  C    0.035222
    31  C   -0.004454
    32  N   -0.310429
    33  C    0.080499
    34  C   -0.169831
    35  C    0.008213
    36  C    0.083252
    37  C    0.127316
    38  C    0.046183
    39  O   -0.188928
    40  C   -0.005425
    41  C    0.212630
    42  O   -0.256124
    43  O   -0.305081
    44  C    0.157776
    45  H   -0.017847
    46  H   -0.017204
    47  H   -0.041940
    48  H    0.000492
    49  H   -0.003899
    50  H    0.025206
    51  H    0.016246
    52  H    0.016300
    53  H    0.012261
    54  H    0.044841
    55  H    0.017175
    56  H    0.017998
    57  H    0.005783
    58  H    0.026299
    59  H    0.040648
    60  H    0.036954
    61  H    0.035301
    62  H    0.032802
    63  H    0.016372
    64  H    0.009040
    65  H    0.022808
    66  H    0.012454
    67  H    0.004390
    68  H    0.005771
    69  H    0.004464
    70  H    0.008527
    71  H    0.017839
    72  H    0.029854
    73  H    0.047469
    74  H    0.008839
    75  H    0.045547
    76  H    0.034688
    77  H    0.042305
    78  H    0.046300
    79  H    0.054052
    80  Mg   0.838315
    81  C   -0.016685
    82  C   -0.087800
    83  C   -0.045489
    84  C   -0.064847
    85  N   -0.254576
    86  C   -0.049775
    87  C   -0.015154
    88  C   -0.090509
    89  C    0.045840
    90  C    0.114431
    91  C    0.062503
    92  C   -0.077910
    93  H    0.035090
    94  N   -0.423474
    95  C    0.163034
    96  C   -0.174643
    97  C   -0.007778
    98  C    0.152160
    99  C    0.099400
   100  C    0.015647
   101  O   -0.253211
   102  C    0.061155
   103  N   -0.350094
   104  C    0.037535
   105  C   -0.019820
   106  C   -0.034805
   107  C    0.088957
   108  C    0.073714
   109  C    0.034707
   110  C   -0.007696
   111  N   -0.324154
   112  C    0.078574
   113  C   -0.162872
   114  C    0.002126
   115  C    0.096504
   116  C    0.131388
   117  C    0.042659
   118  O   -0.188448
   119  C    0.000848
   120  C    0.210961
   121  O   -0.250082
   122  O   -0.305910
   123  C    0.152029
   124  H   -0.019793
   125  H   -0.015610
   126  H   -0.040406
   127  H   -0.000905
   128  H   -0.004323
   129  H    0.022268
   130  H    0.014373
   131  H    0.016119
   132  H    0.014139
   133  H    0.038092
   134  H    0.020435
   135  H    0.019578
   136  H    0.008696
   137  H    0.026007
   138  H    0.039921
   139  H    0.038134
   140  H    0.036377
   141  H    0.034073
   142  H    0.014472
   143  H    0.012269
   144  H    0.025078
   145  H    0.011519
   146  H    0.005550
   147  H    0.006118
   148  H    0.003718
   149  H    0.010878
   150  H    0.018160
   151  H    0.030366
   152  H    0.046149
   153  H    0.008762
   154  H    0.046532
   155  H    0.034623
   156  H    0.043128
   157  H    0.049474
   158  H    0.054185
 Sum of Mulliken charges =  -0.00000

 Dipole moment (field-independent basis, Debye):
    X=              2.1110    Y=              2.7649    Z=             -3.6280  Tot=              5.0263
 Quadrupole moment (field-independent basis, Debye-Ang):
   XX=           -433.8048   YY=           -464.6360   ZZ=           -528.6316
   XY=             27.1303   XZ=             24.9716   YZ=            -22.1183

 Normal termination of Gaussian 16 at Sun Sep 12 00:33:31 2021.
