 Gaussian 16, Revision A.03,
 Gaussian 16:  ES64L-G16RevA.03 25-Dec-2016

 -----------------------------------
 #p cam-b3lyp/Def2SVP td=(nstates=5)
 -----------------------------------

 --------------------------------
 TDDFT excited states in gaussian
 --------------------------------
 Symbolic Z-matrix:
 Charge =  0 Multiplicity = 1

                         Standard orientation:
 ---------------------------------------------------------------------
 Center     Atomic      Atomic             Coordinates (Angstroms)
 Number     Number       Type             X           Y           Z
 ---------------------------------------------------------------------
      1         12           0        4.208198   -1.394611    0.203295
      2          6           0        5.186523    1.380096   -1.835354
      3          6           0        5.762932    0.163973    2.810339
      4          6           0        3.753399   -4.029643    1.908108
      5          6           0        3.748963   -3.204868   -2.739108
      6          7           0        5.299267    0.526364    0.344952
      7          6           0        5.551905    1.525137   -0.495166
      8          6           0        6.174405    2.773552    0.198610
      9          6           0        6.809819    2.061191    1.475634
     10          6           0        5.881407    0.863464    1.572717
     11          6           0        8.233338    1.562175    1.249631
     12          6           0        5.091416    3.826993    0.609861
     13          6           0        5.634328    5.206849    0.992743
     14          1           0        4.858483    6.386748    0.641675
     15          7           0        4.246381   -1.678432    2.157991
     16          6           0        4.918698   -0.937023    3.071001
     17          6           0        4.629554   -1.549087    4.385708
     18          6           0        3.888950   -2.818353    4.143709
     19          6           0        3.957072   -2.907294    2.707454
     20          6           0        5.001545   -0.912255    5.689479
     21          6           0        3.234245   -3.801363    5.061959
     22          8           0        2.848837   -4.953052    4.662400
     23          6           0        3.134569   -3.410339    6.479777
     24          7           0        4.019238   -3.407441   -0.316749
     25          6           0        3.769758   -4.339094    0.609948
     26          6           0        3.396390   -5.648639   -0.019040
     27          6           0        3.205142   -5.352433   -1.576422
     28          6           0        3.604399   -3.856163   -1.582828
     29          6           0        4.405852   -6.790494    0.163070
     30          6           0        1.849299   -5.756737   -2.207807
     31          6           0        0.743184   -4.892282   -1.645379
     32          7           0        4.248833   -0.963644   -1.923595
     33          6           0        4.051350   -1.873662   -2.972186
     34          6           0        4.281888   -1.139880   -4.230154
     35          6           0        4.615841    0.150231   -3.822803
     36          6           0        4.620846    0.211257   -2.399939
     37          6           0        4.229629   -1.693860   -5.539661
     38          6           0        4.993658    1.484993   -4.258145
     39          8           0        5.062205    2.054609   -5.348251
     40          6           0        5.497041    2.302641   -2.987758
     41          6           0        4.820757    3.646224   -3.014820
     42          8           0        3.587768    3.745256   -2.849602
     43          8           0        5.751234    4.612793   -2.992441
     44          6           0        5.146195    5.971491   -2.987838
     45          1           0        6.416282    0.443388    3.639195
     46          1           0        3.484195   -4.935689    2.454961
     47          1           0        3.541527   -3.682355   -3.698499
     48          1           0        6.955037    3.271346   -0.376923
     49          1           0        6.726398    2.678755    2.369713
     50          1           0        8.530143    1.663840    0.205844
     51          1           0        8.223490    0.511994    1.542062
     52          1           0        8.929196    2.055750    1.928559
     53          1           0        4.646229    3.532541    1.560213
     54          1           0        4.344073    3.939083   -0.176422
     55          1           0        6.672897    5.326535    0.682970
     56          1           0        5.666913    5.271291    2.080395
     57          1           0        5.680157   -0.072390    5.545751
     58          1           0        5.588262   -1.643536    6.245087
     59          1           0        4.125186   -0.625669    6.271024
     60          1           0        4.134474   -3.227228    6.873742
     61          1           0        2.559222   -4.195763    6.968586
     62          1           0        2.599904   -2.462476    6.547884
     63          1           0        2.460322   -6.026295    0.390323
     64          1           0        3.946838   -5.869959   -2.185296
     65          1           0        3.982741   -7.678000    0.634254
     66          1           0        5.248578   -6.406884    0.737481
     67          1           0        4.898155   -7.115810   -0.753023
     68          1           0        1.607721   -6.789354   -1.958229
     69          1           0        1.836393   -5.666345   -3.294045
     70          1           0        0.491495   -5.395434   -0.712468
     71          1           0       -0.110499   -4.877773   -2.323779
     72          1           0        1.106592   -3.896490   -1.390781
     73          1           0        3.690215   -0.973348   -6.154367
     74          1           0        3.733735   -2.664268   -5.539582
     75          1           0        5.292293   -1.767988   -5.770111
     76          1           0        6.579524    2.387289   -3.078240
     77          1           0        5.564921    6.512194   -3.836685
     78          1           0        5.315573    6.382753   -1.992559
     79          1           0        4.080848    6.025520   -3.214676
     80         12           0       -4.364287    1.317852    0.665341
     81          6           0       -5.173418   -1.589569   -1.276640
     82          6           0       -3.158570    2.714751   -2.203366
     83          6           0       -3.232527    3.705849    2.421478
     84          6           0       -4.564088   -0.693617    3.504316
     85          7           0       -4.238354    0.561501   -1.409341
     86          6           0       -4.633796   -0.533757   -2.040522
     87          6           0       -4.514086   -0.463816   -3.586589
     88          6           0       -3.367679    0.656100   -3.688605
     89          6           0       -3.619340    1.384323   -2.369884
     90          6           0       -1.961003    0.082052   -3.656338
     91          6           0       -5.844712    0.012524   -4.268191
     92          6           0       -5.899460   -0.190892   -5.783897
     93          1           0       -7.179461   -0.541055   -6.393382
     94          7           0       -3.798577    3.145086    0.136432
     95          6           0       -3.358584    3.541656   -1.076171
     96          6           0       -3.050372    4.973999   -0.943667
     97          6           0       -3.187982    5.352851    0.488903
     98          6           0       -3.395988    4.049547    1.087426
     99          6           0       -2.746799    5.853404   -2.121770
    100          6           0       -3.127903    6.668787    1.203677
    101          8           0       -3.037024    6.738101    2.480304
    102          6           0       -3.084442    7.871854    0.359735
    103          7           0       -3.748799    1.442049    2.647281
    104          6           0       -3.350061    2.612575    3.175302
    105          6           0       -3.219790    2.517492    4.676756
    106          6           0       -3.849702    1.102188    5.073890
    107          6           0       -4.168080    0.561906    3.662467
    108          6           0       -1.797620    2.614136    5.228545
    109          6           0       -4.983391    1.109449    6.135666
    110          6           0       -6.213388    1.784466    5.572754
    111          7           0       -4.966504   -0.712364    1.093864
    112          6           0       -4.947803   -1.360926    2.348098
    113          6           0       -5.337605   -2.767009    2.116995
    114          6           0       -5.535290   -2.845240    0.730173
    115          6           0       -5.266687   -1.582501    0.136157
    116          6           0       -5.420006   -3.781693    3.111859
    117          6           0       -5.899823   -3.711610   -0.367651
    118          8           0       -6.314146   -4.866201   -0.462485
    119          6           0       -5.559204   -2.969752   -1.731468
    120          6           0       -6.749905   -3.100369   -2.641238
    121          8           0       -7.829686   -2.555812   -2.351197
    122          8           0       -6.359033   -3.659204   -3.801110
    123          6           0       -7.503192   -3.799527   -4.740793
    124          1           0       -2.549408    3.155495   -2.993015
    125          1           0       -2.949908    4.524023    3.087950
    126          1           0       -4.744712   -1.359754    4.350670
    127          1           0       -4.181335   -1.380589   -4.058378
    128          1           0       -3.539501    1.321673   -4.530539
    129          1           0       -1.963088   -0.978040   -3.450540
    130          1           0       -1.442235    0.618560   -2.872702
    131          1           0       -1.434758    0.321484   -4.584823
    132          1           0       -5.897624    1.107954   -4.223596
    133          1           0       -6.695422   -0.453371   -3.810093
    134          1           0       -5.108397   -0.862793   -6.138451
    135          1           0       -5.679202    0.762540   -6.270162
    136          1           0       -2.554544    5.262540   -3.025823
    137          1           0       -1.792534    6.349148   -1.913250
    138          1           0       -3.511921    6.614899   -2.287212
    139          1           0       -2.216768    7.823303   -0.293903
    140          1           0       -3.134617    8.715542    1.050782
    141          1           0       -3.967395    7.876135   -0.289102
    142          1           0       -3.784377    3.302695    5.164407
    143          1           0       -3.096016    0.427589    5.505985
    144          1           0       -1.669321    3.430711    5.963937
    145          1           0       -1.116819    2.740603    4.397243
    146          1           0       -1.422059    1.706906    5.698751
    147          1           0       -4.681023    1.693248    7.008544
    148          1           0       -5.251680    0.119013    6.487852
    149          1           0       -6.006767    2.846931    5.732599
    150          1           0       -7.104052    1.469942    6.112975
    151          1           0       -6.290916    1.622778    4.491320
    152          1           0       -6.330785   -4.333039    2.919544
    153          1           0       -5.415182   -3.357486    4.113759
    154          1           0       -4.504388   -4.339468    2.897861
    155          1           0       -4.670594   -3.444334   -2.149487
    156          1           0       -7.554444   -4.854729   -5.026470
    157          1           0       -7.317562   -3.067324   -5.548984
    158          1           0       -8.499270   -3.638910   -4.345200
 ---------------------------------------------------------------------

 SCF Done:  E(RCAM-B3LYP) =  -4069.81252512     A.U. after   19 cycles

 Excitation energies and oscillator strengths:

 Excited State   1:      Singlet-A      1.6627 eV  745.69 nm  f=0.2150  <S**2>=0.000
     309 -> 315        0.11289
     310 -> 316        0.12703
     311 -> 313        0.45207
     312 -> 314        0.51653
 This state for optimization and/or second-order correction.
 Total Energy, E(TD-HF/TD-DFT) =  -4069.75142251
 Copying the excited state density for this state as the 1-particle RhoCI density.

 Excited State   2:      Singlet-A      1.6861 eV  735.35 nm  f=0.4588  <S**2>=0.000
     309 -> 315        0.13309
     310 -> 316       -0.11585
     311 -> 313        0.51545
     312 -> 314       -0.45138

 Excited State   3:      Singlet-A      2.1858 eV  567.23 nm  f=0.0828  <S**2>=0.000
     309 -> 313        0.16290
     310 -> 314        0.62171
     312 -> 316       -0.26274

 Excited State   4:      Singlet-A      2.1925 eV  565.49 nm  f=0.1117  <S**2>=0.000
     309 -> 313        0.61996
     310 -> 314       -0.16135
     311 -> 315       -0.26870

 Excited State   5:      Singlet-A      2.3373 eV  530.47 nm  f=0.0000  <S**2>=0.000
     312 -> 313        0.70707

 The electronic state is 1-A.
 Alpha  occ. eigenvalues --  -46.87922 -46.87432 -19.26537 -19.26202 -19.19293
 Alpha  occ. eigenvalues --  -19.18999 -19.18931 -19.18534 -19.18365 -19.17852
 Alpha  occ. eigenvalues --  -14.42573 -14.42247 -14.41565 -14.41147 -14.39527
 Alpha  occ. eigenvalues --  -14.39118 -14.38729 -14.38376 -10.39338 -10.38927
 Alpha  occ. eigenvalues --  -10.35563 -10.35212 -10.34585 -10.34032 -10.31945
 Alpha  occ. eigenvalues --  -10.31626 -10.31542 -10.31034 -10.31031 -10.30764
 Alpha  occ. eigenvalues --  -10.30715 -10.30643 -10.30306 -10.30192 -10.30114
 Alpha  occ. eigenvalues --  -10.30041 -10.29930 -10.29774 -10.29719 -10.29378
 Alpha  occ. eigenvalues --  -10.29192 -10.29179 -10.28864 -10.28627 -10.28505
 Alpha  occ. eigenvalues --  -10.28437 -10.28425 -10.28228 -10.28165 -10.27941
 Alpha  occ. eigenvalues --  -10.27849 -10.27786 -10.27761 -10.27721 -10.27596
 Alpha  occ. eigenvalues --  -10.27565 -10.27542 -10.27511 -10.27408 -10.27366
 Alpha  occ. eigenvalues --  -10.27348 -10.27288 -10.27257 -10.27235 -10.27111
 Alpha  occ. eigenvalues --  -10.26863 -10.26808 -10.26528 -10.26446 -10.26339
 Alpha  occ. eigenvalues --  -10.26242 -10.26217 -10.26141 -10.26052 -10.26040
 Alpha  occ. eigenvalues --  -10.25720 -10.25636 -10.25536 -10.25482 -10.25400
 Alpha  occ. eigenvalues --  -10.24991 -10.24905 -10.24714 -10.24641 -10.24640
 Alpha  occ. eigenvalues --  -10.24489  -3.16664  -3.16182  -1.91546  -1.91132
 Alpha  occ. eigenvalues --   -1.91064  -1.90975  -1.90653  -1.90490  -1.16887
 Alpha  occ. eigenvalues --   -1.16492  -1.08833  -1.08467  -1.07329  -1.06909
 Alpha  occ. eigenvalues --   -1.06790  -1.06784  -1.04708  -1.04244  -1.03879
 Alpha  occ. eigenvalues --   -1.03435  -1.03365  -1.02824  -1.02540  -1.01889
 Alpha  occ. eigenvalues --   -0.92125  -0.91765  -0.89618  -0.89323  -0.89302
 Alpha  occ. eigenvalues --   -0.88844  -0.88374  -0.88078  -0.88032  -0.87792
 Alpha  occ. eigenvalues --   -0.87566  -0.87433  -0.87401  -0.86874  -0.85100
 Alpha  occ. eigenvalues --   -0.84736  -0.84027  -0.83754  -0.83077  -0.82776
 Alpha  occ. eigenvalues --   -0.82737  -0.82408  -0.81765  -0.81403  -0.80745
 Alpha  occ. eigenvalues --   -0.80232  -0.78932  -0.78387  -0.77334  -0.77065
 Alpha  occ. eigenvalues --   -0.76916  -0.76681  -0.76068  -0.75574  -0.74997
 Alpha  occ. eigenvalues --   -0.74658  -0.72907  -0.72468  -0.71794  -0.71359
 Alpha  occ. eigenvalues --   -0.69975  -0.69629  -0.68996  -0.68574  -0.67778
 Alpha  occ. eigenvalues --   -0.67391  -0.67335  -0.66966  -0.65415  -0.65023
 Alpha  occ. eigenvalues --   -0.65002  -0.64749  -0.64556  -0.64438  -0.64368
 Alpha  occ. eigenvalues --   -0.64036  -0.62486  -0.62100  -0.60560  -0.60128
 Alpha  occ. eigenvalues --   -0.59928  -0.59519  -0.59118  -0.58779  -0.58643
 Alpha  occ. eigenvalues --   -0.58218  -0.57779  -0.57435  -0.57362  -0.57055
 Alpha  occ. eigenvalues --   -0.56460  -0.56170  -0.55970  -0.55691  -0.55658
 Alpha  occ. eigenvalues --   -0.55470  -0.55237  -0.55101  -0.54673  -0.54344
 Alpha  occ. eigenvalues --   -0.54013  -0.53625  -0.53430  -0.53359  -0.53077
 Alpha  occ. eigenvalues --   -0.53023  -0.52920  -0.52877  -0.52677  -0.52508
 Alpha  occ. eigenvalues --   -0.52415  -0.52275  -0.52095  -0.51748  -0.51668
 Alpha  occ. eigenvalues --   -0.51406  -0.51337  -0.50996  -0.50687  -0.50241
 Alpha  occ. eigenvalues --   -0.50116  -0.50034  -0.49771  -0.49659  -0.49647
 Alpha  occ. eigenvalues --   -0.49369  -0.49248  -0.49228  -0.48958  -0.48836
 Alpha  occ. eigenvalues --   -0.48755  -0.48591  -0.48562  -0.48327  -0.48232
 Alpha  occ. eigenvalues --   -0.48125  -0.47818  -0.47423  -0.47362  -0.46916
 Alpha  occ. eigenvalues --   -0.46895  -0.46679  -0.46496  -0.46492  -0.46302
 Alpha  occ. eigenvalues --   -0.46290  -0.46053  -0.45998  -0.45913  -0.45622
 Alpha  occ. eigenvalues --   -0.45294  -0.45071  -0.44747  -0.44616  -0.44317
 Alpha  occ. eigenvalues --   -0.44274  -0.44220  -0.44202  -0.44162  -0.43901
 Alpha  occ. eigenvalues --   -0.43869  -0.43715  -0.43677  -0.43494  -0.43370
 Alpha  occ. eigenvalues --   -0.43162  -0.43159  -0.42917  -0.42758  -0.42746
 Alpha  occ. eigenvalues --   -0.42701  -0.42383  -0.42116  -0.41841  -0.41785
 Alpha  occ. eigenvalues --   -0.41645  -0.41461  -0.41260  -0.41225  -0.40974
 Alpha  occ. eigenvalues --   -0.40932  -0.40751  -0.40661  -0.40515  -0.40477
 Alpha  occ. eigenvalues --   -0.40336  -0.40302  -0.39988  -0.39497  -0.39302
 Alpha  occ. eigenvalues --   -0.38552  -0.38198  -0.37863  -0.37418  -0.37414
 Alpha  occ. eigenvalues --   -0.37393  -0.37079  -0.36945  -0.36921  -0.36616
 Alpha  occ. eigenvalues --   -0.36336  -0.36038  -0.34419  -0.34031  -0.34022
 Alpha  occ. eigenvalues --   -0.33688  -0.33326  -0.32947  -0.31459  -0.31165
 Alpha  occ. eigenvalues --   -0.31094  -0.30749  -0.30227  -0.29761  -0.29588
 Alpha  occ. eigenvalues --   -0.29475  -0.29094  -0.28984  -0.24210  -0.23805
 Alpha  occ. eigenvalues --   -0.21257  -0.20883
 Alpha virt. eigenvalues --   -0.08909  -0.08557  -0.01869  -0.01467  -0.00189
 Alpha virt. eigenvalues --    0.00207   0.02038   0.02400   0.02840   0.03494
 Alpha virt. eigenvalues --    0.04601   0.04855   0.04989   0.05336   0.06063

 Mulliken charges:
               1
     1  Mg   0.839013
     2  C   -0.003395
     3  C   -0.093872
     4  C   -0.045512
     5  C   -0.064179
     6  N   -0.256948
     7  C   -0.052254
     8  C   -0.014201
     9  C   -0.087134
    10  C    0.046714
    11  C    0.104725
    12  C    0.053390
    13  C   -0.071953
    14  H    0.036056
    15  N   -0.433265
    16  C    0.168833
    17  C   -0.176998
    18  C   -0.003741
    19  C    0.149128
    20  C    0.110135
    21  C    0.012365
    22  O   -0.248782
    23  C    0.062534
    24  N   -0.341243
    25  C    0.041559
    26  C   -0.028477
    27  C   -0.024021
    28  C    0.074937
    29  C    0.076005
    30  C    0.034979
    31  C   -0.004834
    32  N   -0.310095
    33  C    0.079849
    34  C   -0.171180
    35  C    0.007645
    36  C    0.082245
    37  C    0.127718
    38  C    0.044689
    39  O   -0.189758
    40  C   -0.004877
    41  C    0.212982
    42  O   -0.259389
    43  O   -0.304082
    44  C    0.158344
    45  H   -0.017216
    46  H   -0.016149
    47  H   -0.041658
    48  H    0.000766
    49  H   -0.003511
    50  H    0.025440
    51  H    0.016560
    52  H    0.017042
    53  H    0.012250
    54  H    0.043189
    55  H    0.017724
    56  H    0.018933
    57  H    0.006330
    58  H    0.027248
    59  H    0.039507
    60  H    0.037698
    61  H    0.035944
    62  H    0.030723
    63  H    0.017582
    64  H    0.009586
    65  H    0.024033
    66  H    0.012372
    67  H    0.004967
    68  H    0.007967
    69  H    0.004049
    70  H    0.010973
    71  H    0.017902
    72  H    0.027706
    73  H    0.045535
    74  H    0.009099
    75  H    0.046488
    76  H    0.035559
    77  H    0.043037
    78  H    0.047376
    79  H    0.051289
    80  Mg   0.837491
    81  C   -0.016727
    82  C   -0.085947
    83  C   -0.045879
    84  C   -0.065015
    85  N   -0.254657
    86  C   -0.049838
    87  C   -0.015078
    88  C   -0.090192
    89  C    0.044428
    90  C    0.113181
    91  C    0.062479
    92  C   -0.077542
    93  H    0.033700
    94  N   -0.423875
    95  C    0.162147
    96  C   -0.171374
    97  C   -0.008582
    98  C    0.153085
    99  C    0.098760
   100  C    0.015439
   101  O   -0.254583
   102  C    0.061251
   103  N   -0.350058
   104  C    0.037499
   105  C   -0.019583
   106  C   -0.034595
   107  C    0.088572
   108  C    0.074461
   109  C    0.034988
   110  C   -0.007528
   111  N   -0.323959
   112  C    0.077874
   113  C   -0.163319
   114  C    0.002006
   115  C    0.095908
   116  C    0.131547
   117  C    0.041965
   118  O   -0.189062
   119  C    0.001040
   120  C    0.211349
   121  O   -0.251099
   122  O   -0.305896
   123  C    0.152144
   124  H   -0.013503
   125  H   -0.016831
   126  H   -0.041145
   127  H   -0.001707
   128  H   -0.003664
   129  H    0.019771
   130  H    0.019202
   131  H    0.020165
   132  H    0.013944
   133  H    0.036979
   134  H    0.020640
   135  H    0.020231
   136  H    0.011615
   137  H    0.028622
   138  H    0.038480
   139  H    0.038754
   140  H    0.035156
   141  H    0.033925
   142  H    0.013924
   143  H    0.011276
   144  H    0.023729
   145  H    0.011706
   146  H    0.003230
   147  H    0.004995
   148  H    0.003517
   149  H    0.010513
   150  H    0.017566
   151  H    0.030811
   152  H    0.045245
   153  H    0.007912
   154  H    0.047627
   155  H    0.034064
   156  H    0.043170
   157  H    0.049749
   158  H    0.053410
 Sum of Mulliken charges =  -0.00000

 Dipole moment (field-independent basis, Debye):
    X=              5.3677    Y=              2.7271    Z=              1.3326  Tot=              6.1665
 Quadrupole moment (field-independent basis, Debye-Ang):
   XX=           -521.8977   YY=           -517.5233   ZZ=           -480.4913
   XY=            -11.1284   XZ=             34.8213   YZ=             10.7123

 Normal termination of Gaussian 16 at Thu Sep  9 13:40:57 2021.
