 Gaussian 16, Revision A.03,
 Gaussian 16:  ES64L-G16RevA.03 25-Dec-2016

 -----------------------------------
 #p cam-b3lyp/Def2SVP td=(nstates=5)
 -----------------------------------

 --------------------------------
 TDDFT excited states in gaussian
 --------------------------------
 Symbolic Z-matrix:
 Charge =  0 Multiplicity = 1

                         Standard orientation:
 ---------------------------------------------------------------------
 Center     Atomic      Atomic             Coordinates (Angstroms)
 Number     Number       Type             X           Y           Z
 ---------------------------------------------------------------------
      1         12           0       -3.978788    0.289501    0.379852
      2          6           0       -3.194162    3.763025    0.742074
      3          6           0       -4.974752    0.999472   -2.805593
      4          6           0       -5.099632   -2.670728    0.186513
      5          6           0       -4.000732    0.083198    3.858734
      6          7           0       -4.028246    2.179438   -0.771815
      7          6           0       -3.643610    3.430208   -0.537720
      8          6           0       -3.691635    4.338373   -1.802751
      9          6           0       -4.774423    3.531807   -2.650702
     10          6           0       -4.556750    2.146618   -2.067784
     11          6           0       -6.210844    3.962104   -2.371343
     12          6           0       -2.313471    4.399418   -2.543473
     13          6           0       -2.182946    5.509548   -3.590338
     14          1           0       -0.895284    6.166204   -3.757897
     15          7           0       -4.442343   -0.804389   -1.198556
     16          6           0       -4.808498   -0.348490   -2.420592
     17          6           0       -5.048664   -1.549869   -3.248656
     18          6           0       -4.976535   -2.739736   -2.355847
     19          6           0       -4.861133   -2.109252   -1.065672
     20          6           0       -5.263691   -1.498517   -4.730168
     21          6           0       -5.017346   -4.211329   -2.622079
     22          8           0       -5.172852   -5.067877   -1.685746
     23          6           0       -4.958514   -4.625052   -4.035732
     24          7           0       -4.697058   -1.053050    1.807886
     25          6           0       -5.065473   -2.292551    1.465990
     26          6           0       -5.272086   -3.154178    2.676300
     27          6           0       -4.730081   -2.309319    3.918151
     28          6           0       -4.360872   -1.003458    3.172040
     29          6           0       -6.718350   -3.590535    2.948189
     30          6           0       -3.653819   -2.979562    4.808575
     31          6           0       -2.368625   -3.139533    4.027689
     32          7           0       -3.487271    1.610339    2.030562
     33          6           0       -3.592194    1.324165    3.399419
     34          6           0       -3.251780    2.560840    4.126619
     35          6           0       -2.986857    3.491142    3.123524
     36          6           0       -3.176867    2.881896    1.850336
     37          6           0       -3.273172    2.729681    5.539230
     38          6           0       -2.611394    4.864968    2.831145
     39          8           0       -2.234400    5.823461    3.506912
     40          6           0       -2.848865    5.129800    1.278954
     41          6           0       -1.618214    5.806709    0.739879
     42          8           0       -0.528416    5.201402    0.682348
     43          8           0       -1.966000    6.966604    0.161752
     44          6           0       -0.794600    7.674891   -0.419887
     45          1           0       -5.532212    1.142890   -3.733284
     46          1           0       -5.381411   -3.725547    0.166663
     47          1           0       -3.904132    0.071232    4.945922
     48          1           0       -4.043094    5.354009   -1.620038
     49          1           0       -4.542513    3.535546   -3.715562
     50          1           0       -6.261734    4.664249   -1.539283
     51          1           0       -6.747530    3.044725   -2.128698
     52          1           0       -6.680292    4.354070   -3.273982
     53          1           0       -2.211995    3.525177   -3.186487
     54          1           0       -1.494265    4.480301   -1.828151
     55          1           0       -2.978243    6.248550   -3.488905
     56          1           0       -2.344600    5.071058   -4.575120
     57          1           0       -5.428797   -0.478795   -5.075785
     58          1           0       -6.204441   -2.009834   -4.933275
     59          1           0       -4.456015   -1.982932   -5.279107
     60          1           0       -5.796310   -4.182864   -4.575283
     61          1           0       -4.908929   -5.713327   -4.028735
     62          1           0       -4.053647   -4.215889   -4.486011
     63          1           0       -4.703650   -4.080085    2.598825
     64          1           0       -5.527231   -2.049065    4.614925
     65          1           0       -6.846612   -4.671884    3.002404
     66          1           0       -7.351642   -3.159988    2.173036
     67          1           0       -7.161497   -3.167976    3.849567
     68          1           0       -3.975031   -3.977360    5.105505
     69          1           0       -3.435540   -2.417470    5.716682
     70          1           0       -2.531616   -4.065716    3.477733
     71          1           0       -1.520196   -3.232655    4.706443
     72          1           0       -2.246570   -2.342239    3.294265
     73          1           0       -2.369592    3.283417    5.793962
     74          1           0       -3.306858    1.768883    6.052393
     75          1           0       -4.193778    3.300331    5.660470
     76          1           0       -3.732003    5.763076    1.200524
     77          1           0       -0.770998    8.671672    0.020686
     78          1           0       -0.895266    7.602663   -1.502964
     79          1           0        0.187771    7.299158   -0.131597
     80         12           0        3.648596   -1.823907   -0.301966
     81          6           0        4.884232    1.530422    0.015357
     82          6           0        2.292885   -0.882903   -3.287120
     83          6           0        2.169265   -4.629113   -0.401362
     84          6           0        4.095769   -2.165958    3.137323
     85          7           0        3.656280    0.102415   -1.388913
     86          6           0        4.210241    1.290634   -1.200239
     87          6           0        4.100845    2.251410   -2.414532
     88          6           0        2.809027    1.605521   -3.116597
     89          6           0        2.939043    0.174660   -2.598530
     90          6           0        1.497294    2.180209   -2.608241
     91          6           0        5.359062    2.179048   -3.349232
     92          6           0        5.460626    3.306131   -4.379341
     93          1           0        6.784640    3.816192   -4.724710
     94          7           0        2.836882   -2.794271   -1.831043
     95          6           0        2.360187   -2.258356   -2.974210
     96          6           0        1.851051   -3.388421   -3.766631
     97          6           0        1.916152   -4.616266   -2.928268
     98          6           0        2.298881   -4.044591   -1.652801
     99          6           0        1.440740   -3.254654   -5.204397
    100          6           0        1.661952   -6.063731   -3.222271
    101          8           0        1.546519   -6.930921   -2.285525
    102          6           0        1.459282   -6.420162   -4.634141
    103          7           0        2.997451   -3.127862    1.180624
    104          6           0        2.430857   -4.305754    0.865257
    105          6           0        2.296906   -5.189818    2.082173
    106          6           0        3.115569   -4.452275    3.241217
    107          6           0        3.524406   -3.169106    2.485094
    108          6           0        0.868677   -5.454967    2.557831
    109          6           0        4.223742   -5.275395    3.953333
    110          6           0        5.352824   -5.562664    2.989985
    111          7           0        4.526357   -0.639813    1.277746
    112          6           0        4.584094   -0.959576    2.651970
    113          6           0        5.171489    0.204984    3.345653
    114          6           0        5.395256    1.137800    2.321802
    115          6           0        4.958218    0.600824    1.080774
    116          6           0        5.384232    0.317288    4.748598
    117          6           0        5.892005    2.458744    2.010255
    118          8           0        6.466455    3.342734    2.644534
    119          6           0        5.466733    2.820585    0.522100
    120          6           0        6.675025    3.369596   -0.185800
    121          8           0        7.663387    2.646559   -0.402550
    122          8           0        6.381319    4.586131   -0.679916
    123          6           0        7.545275    5.167198   -1.400596
    124          1           0        1.637288   -0.634201   -4.122117
    125          1           0        1.765713   -5.644282   -0.394647
    126          1           0        4.358305   -2.231799    4.195353
    127          1           0        3.906794    3.286216   -2.158986
    128          1           0        2.895394    1.628167   -4.199823
    129          1           0        1.646634    2.846230   -1.771429
    130          1           0        0.898336    1.328983   -2.312079
    131          1           0        0.953933    2.660872   -3.426813
    132          1           0        5.256105    1.318124   -4.022241
    133          1           0        6.261398    2.135760   -2.770821
    134          1           0        4.776852    4.133507   -4.153823
    135          1           0        5.113814    2.927098   -5.343747
    136          1           0        1.345023   -2.202339   -5.499159
    137          1           0        0.423518   -3.652912   -5.285009
    138          1           0        2.092559   -3.810365   -5.881891
    139          1           0        0.615269   -5.860571   -5.030301
    140          1           0        1.381233   -7.508952   -4.652364
    141          1           0        2.340673   -6.105986   -5.204284
    142          1           0        2.738838   -6.162482    1.904080
    143          1           0        2.459532   -4.135822    4.065422
    144          1           0        0.617260   -6.531349    2.605479
    145          1           0        0.187095   -4.934089    1.898534
    146          1           0        0.619352   -5.031491    3.529273
    147          1           0        3.831209   -6.245008    4.269464
    148          1           0        4.624947   -4.787321    4.835270
    149          1           0        4.996192   -6.443245    2.447334
    150          1           0        6.272284   -5.777820    3.530657
    151          1           0        5.465687   -4.750484    2.262476
    152          1           0        6.366073    0.752028    4.880791
    153          1           0        5.307214   -0.649830    5.241072
    154          1           0        4.559316    0.982133    5.018345
    155          1           0        4.659309    3.551480    0.580657
    156          1           0        7.748627    6.141628   -0.945828
    157          1           0        7.267962    5.159119   -2.471480
    158          1           0        8.503715    4.675092   -1.283677
 ---------------------------------------------------------------------

 SCF Done:  E(RCAM-B3LYP) =  -4069.81163129     A.U. after   19 cycles

 Excitation energies and oscillator strengths:

 Excited State   1:      Singlet-A      1.6369 eV  757.44 nm  f=0.0092  <S**2>=0.000
     309 -> 315       -0.11308
     310 -> 316        0.11883
     311 -> 313       -0.47180
     312 -> 314        0.50121
 This state for optimization and/or second-order correction.
 Total Energy, E(TD-HF/TD-DFT) =  -4069.75147726
 Copying the excited state density for this state as the 1-particle RhoCI density.

 Excited State   2:      Singlet-A      1.7112 eV  724.57 nm  f=0.6727  <S**2>=0.000
     309 -> 315        0.13420
     310 -> 316        0.12482
     311 -> 313        0.49778
     312 -> 314        0.46859

 Excited State   3:      Singlet-A      2.1770 eV  569.52 nm  f=0.0102  <S**2>=0.000
     309 -> 313       -0.33806
     310 -> 314        0.55127
     311 -> 315        0.13771
     312 -> 316       -0.22598

 Excited State   4:      Singlet-A      2.1977 eV  564.15 nm  f=0.1575  <S**2>=0.000
     309 -> 313        0.54466
     310 -> 314        0.33177
     311 -> 315       -0.24190
     312 -> 316       -0.14884

 Excited State   5:      Singlet-A      2.2257 eV  557.06 nm  f=0.0000  <S**2>=0.000
     312 -> 313        0.70702

 The electronic state is 1-A.
 Alpha  occ. eigenvalues --  -46.87951 -46.87401 -19.26489 -19.26074 -19.19250
 Alpha  occ. eigenvalues --  -19.18914 -19.18883 -19.18503 -19.18297 -19.17732
 Alpha  occ. eigenvalues --  -14.42622 -14.42227 -14.41602 -14.41106 -14.39552
 Alpha  occ. eigenvalues --  -14.39100 -14.38735 -14.38326 -10.39298 -10.38801
 Alpha  occ. eigenvalues --  -10.35551 -10.35187 -10.34523 -10.33899 -10.31874
 Alpha  occ. eigenvalues --  -10.31586 -10.31536 -10.31097 -10.31022 -10.30757
 Alpha  occ. eigenvalues --  -10.30732 -10.30643 -10.30357 -10.30129 -10.30092
 Alpha  occ. eigenvalues --  -10.30054 -10.29925 -10.29777 -10.29629 -10.29403
 Alpha  occ. eigenvalues --  -10.29203 -10.29149 -10.29006 -10.28928 -10.28522
 Alpha  occ. eigenvalues --  -10.28499 -10.28412 -10.28346 -10.28131 -10.27937
 Alpha  occ. eigenvalues --  -10.27901 -10.27821 -10.27739 -10.27735 -10.27704
 Alpha  occ. eigenvalues --  -10.27643 -10.27569 -10.27566 -10.27424 -10.27396
 Alpha  occ. eigenvalues --  -10.27335 -10.27324 -10.27228 -10.27202 -10.27165
 Alpha  occ. eigenvalues --  -10.27076 -10.26673 -10.26555 -10.26473 -10.26427
 Alpha  occ. eigenvalues --  -10.26350 -10.26297 -10.26173 -10.25986 -10.25948
 Alpha  occ. eigenvalues --  -10.25695 -10.25570 -10.25544 -10.25532 -10.25182
 Alpha  occ. eigenvalues --  -10.24974 -10.24925 -10.24893 -10.24594 -10.24579
 Alpha  occ. eigenvalues --  -10.24424  -3.16693  -3.16151  -1.91574  -1.91161
 Alpha  occ. eigenvalues --   -1.91033  -1.91003  -1.90622  -1.90459  -1.16839
 Alpha  occ. eigenvalues --   -1.16367  -1.08757  -1.08330  -1.07307  -1.06859
 Alpha  occ. eigenvalues --   -1.06754  -1.06667  -1.04755  -1.04220  -1.03914
 Alpha  occ. eigenvalues --   -1.03402  -1.03382  -1.02784  -1.02562  -1.01848
 Alpha  occ. eigenvalues --   -0.92134  -0.91689  -0.89673  -0.89427  -0.89265
 Alpha  occ. eigenvalues --   -0.88851  -0.88434  -0.88009  -0.88000  -0.87860
 Alpha  occ. eigenvalues --   -0.87522  -0.87435  -0.87434  -0.86932  -0.85207
 Alpha  occ. eigenvalues --   -0.84734  -0.84088  -0.83660  -0.83118  -0.82849
 Alpha  occ. eigenvalues --   -0.82761  -0.82399  -0.81764  -0.81335  -0.80768
 Alpha  occ. eigenvalues --   -0.80190  -0.78957  -0.78418  -0.77408  -0.77138
 Alpha  occ. eigenvalues --   -0.76905  -0.76640  -0.76112  -0.75550  -0.75046
 Alpha  occ. eigenvalues --   -0.74567  -0.72929  -0.72442  -0.71835  -0.71303
 Alpha  occ. eigenvalues --   -0.70068  -0.69559  -0.69081  -0.68569  -0.67802
 Alpha  occ. eigenvalues --   -0.67458  -0.67354  -0.66984  -0.65505  -0.65021
 Alpha  occ. eigenvalues --   -0.64996  -0.64803  -0.64515  -0.64424  -0.64395
 Alpha  occ. eigenvalues --   -0.63975  -0.62474  -0.62020  -0.60593  -0.60130
 Alpha  occ. eigenvalues --   -0.60011  -0.59511  -0.59147  -0.58734  -0.58664
 Alpha  occ. eigenvalues --   -0.58165  -0.57754  -0.57462  -0.57244  -0.56993
 Alpha  occ. eigenvalues --   -0.56470  -0.56179  -0.55963  -0.55679  -0.55635
 Alpha  occ. eigenvalues --   -0.55498  -0.55220  -0.55011  -0.54698  -0.54252
 Alpha  occ. eigenvalues --   -0.54133  -0.53637  -0.53456  -0.53417  -0.53105
 Alpha  occ. eigenvalues --   -0.53000  -0.52946  -0.52895  -0.52659  -0.52604
 Alpha  occ. eigenvalues --   -0.52466  -0.52212  -0.52044  -0.51838  -0.51604
 Alpha  occ. eigenvalues --   -0.51414  -0.51361  -0.50940  -0.50751  -0.50328
 Alpha  occ. eigenvalues --   -0.50203  -0.50089  -0.49744  -0.49703  -0.49649
 Alpha  occ. eigenvalues --   -0.49388  -0.49291  -0.49243  -0.48934  -0.48785
 Alpha  occ. eigenvalues --   -0.48767  -0.48599  -0.48584  -0.48285  -0.48156
 Alpha  occ. eigenvalues --   -0.48108  -0.47876  -0.47459  -0.47361  -0.46976
 Alpha  occ. eigenvalues --   -0.46916  -0.46780  -0.46519  -0.46469  -0.46314
 Alpha  occ. eigenvalues --   -0.46298  -0.46049  -0.45984  -0.45833  -0.45547
 Alpha  occ. eigenvalues --   -0.45341  -0.44975  -0.44741  -0.44695  -0.44309
 Alpha  occ. eigenvalues --   -0.44292  -0.44251  -0.44229  -0.44179  -0.43866
 Alpha  occ. eigenvalues --   -0.43843  -0.43696  -0.43665  -0.43573  -0.43297
 Alpha  occ. eigenvalues --   -0.43191  -0.43120  -0.42878  -0.42824  -0.42672
 Alpha  occ. eigenvalues --   -0.42629  -0.42343  -0.42193  -0.41870  -0.41752
 Alpha  occ. eigenvalues --   -0.41738  -0.41383  -0.41308  -0.41214  -0.41085
 Alpha  occ. eigenvalues --   -0.40986  -0.40739  -0.40707  -0.40527  -0.40511
 Alpha  occ. eigenvalues --   -0.40448  -0.40248  -0.39998  -0.39592  -0.39237
 Alpha  occ. eigenvalues --   -0.38635  -0.38127  -0.38022  -0.37478  -0.37472
 Alpha  occ. eigenvalues --   -0.37426  -0.37031  -0.36939  -0.36904  -0.36514
 Alpha  occ. eigenvalues --   -0.36372  -0.35971  -0.34444  -0.33989  -0.33981
 Alpha  occ. eigenvalues --   -0.33584  -0.33345  -0.32917  -0.31446  -0.31192
 Alpha  occ. eigenvalues --   -0.31059  -0.30702  -0.30159  -0.29630  -0.29591
 Alpha  occ. eigenvalues --   -0.29461  -0.29091  -0.28929  -0.24238  -0.23764
 Alpha  occ. eigenvalues --   -0.21285  -0.20858
 Alpha virt. eigenvalues --   -0.08925  -0.08533  -0.01900  -0.01432  -0.00205
 Alpha virt. eigenvalues --    0.00212   0.02057   0.02359   0.02585   0.03584
 Alpha virt. eigenvalues --    0.04495   0.04821   0.05019   0.05457   0.05826

 Mulliken charges:
               1
     1  Mg   0.838496
     2  C   -0.003435
     3  C   -0.095877
     4  C   -0.044592
     5  C   -0.063602
     6  N   -0.256711
     7  C   -0.053281
     8  C   -0.013106
     9  C   -0.086920
    10  C    0.045997
    11  C    0.104799
    12  C    0.049707
    13  C   -0.072013
    14  H    0.034481
    15  N   -0.433332
    16  C    0.168415
    17  C   -0.178460
    18  C   -0.003532
    19  C    0.149568
    20  C    0.110496
    21  C    0.013936
    22  O   -0.247491
    23  C    0.062689
    24  N   -0.340918
    25  C    0.040970
    26  C   -0.028782
    27  C   -0.024115
    28  C    0.074644
    29  C    0.075973
    30  C    0.036859
    31  C   -0.012724
    32  N   -0.310762
    33  C    0.080797
    34  C   -0.169218
    35  C    0.008770
    36  C    0.083328
    37  C    0.127168
    38  C    0.046654
    39  O   -0.187176
    40  C   -0.005956
    41  C    0.213680
    42  O   -0.258603
    43  O   -0.304521
    44  C    0.157102
    45  H   -0.017929
    46  H   -0.015860
    47  H   -0.041264
    48  H    0.001521
    49  H   -0.005127
    50  H    0.025885
    51  H    0.017002
    52  H    0.016713
    53  H    0.010306
    54  H    0.045484
    55  H    0.019629
    56  H    0.016982
    57  H    0.005295
    58  H    0.027538
    59  H    0.036882
    60  H    0.037087
    61  H    0.037396
    62  H    0.028422
    63  H    0.017702
    64  H    0.009868
    65  H    0.023854
    66  H    0.012623
    67  H    0.004890
    68  H    0.006524
    69  H    0.004186
    70  H    0.013146
    71  H    0.019515
    72  H    0.030782
    73  H    0.048438
    74  H    0.009093
    75  H    0.046335
    76  H    0.035499
    77  H    0.044413
    78  H    0.045413
    79  H    0.053999
    80  Mg   0.837503
    81  C   -0.015312
    82  C   -0.088468
    83  C   -0.045156
    84  C   -0.065220
    85  N   -0.254835
    86  C   -0.046841
    87  C   -0.015140
    88  C   -0.092122
    89  C    0.046423
    90  C    0.109702
    91  C    0.062744
    92  C   -0.076950
    93  H    0.033774
    94  N   -0.423461
    95  C    0.162901
    96  C   -0.175925
    97  C   -0.007651
    98  C    0.151410
    99  C    0.100709
   100  C    0.015550
   101  O   -0.252563
   102  C    0.061764
   103  N   -0.350111
   104  C    0.036574
   105  C   -0.019410
   106  C   -0.034873
   107  C    0.089443
   108  C    0.072387
   109  C    0.034795
   110  C   -0.007366
   111  N   -0.324712
   112  C    0.079591
   113  C   -0.162481
   114  C    0.004111
   115  C    0.096259
   116  C    0.130846
   117  C    0.044206
   118  O   -0.187158
   119  C   -0.000402
   120  C    0.210510
   121  O   -0.252046
   122  O   -0.304707
   123  C    0.152376
   124  H   -0.021893
   125  H   -0.015282
   126  H   -0.041136
   127  H    0.001479
   128  H   -0.007101
   129  H    0.037733
   130  H    0.013813
   131  H    0.011985
   132  H    0.013114
   133  H    0.037465
   134  H    0.020271
   135  H    0.018382
   136  H    0.007209
   137  H    0.021902
   138  H    0.039066
   139  H    0.035962
   140  H    0.036233
   141  H    0.033375
   142  H    0.013819
   143  H    0.011010
   144  H    0.024167
   145  H    0.014995
   146  H    0.003897
   147  H    0.005537
   148  H    0.003213
   149  H    0.010803
   150  H    0.017461
   151  H    0.030476
   152  H    0.045599
   153  H    0.007376
   154  H    0.049423
   155  H    0.042204
   156  H    0.043549
   157  H    0.048585
   158  H    0.052999
 Sum of Mulliken charges =  -0.00000

 Dipole moment (field-independent basis, Debye):
    X=             -5.6456    Y=             -0.0781    Z=             -6.4624  Tot=              8.5815
 Quadrupole moment (field-independent basis, Debye-Ang):
   XX=           -531.2100   YY=           -537.5365   ZZ=           -454.3570
   XY=            -16.8432   XZ=             -4.3266   YZ=            -50.6838

 Normal termination of Gaussian 16 at Wed Sep  8 14:05:21 2021.
