 Gaussian 16, Revision A.03,
 Gaussian 16:  ES64L-G16RevA.03 25-Dec-2016

 -----------------------------------
 #p cam-b3lyp/Def2SVP td=(nstates=5)
 -----------------------------------

 --------------------------------
 TDDFT excited states in gaussian
 --------------------------------
 Symbolic Z-matrix:
 Charge =  0 Multiplicity = 1

                         Standard orientation:
 ---------------------------------------------------------------------
 Center     Atomic      Atomic             Coordinates (Angstroms)
 Number     Number       Type             X           Y           Z
 ---------------------------------------------------------------------
      1         12           0       -5.210530   -0.614962    0.429135
      2          6           0       -5.375550    2.877324   -0.338275
      3          6           0       -6.322043   -1.212152   -2.741191
      4          6           0       -5.507292   -3.670247    1.225244
      5          6           0       -5.217116    0.275816    3.798427
      6          7           0       -5.744259    0.743240   -1.235517
      7          6           0       -5.706401    2.059082   -1.420709
      8          6           0       -5.978102    2.483576   -2.894940
      9          6           0       -6.799562    1.205227   -3.377667
     10          6           0       -6.230413    0.174454   -2.418761
     11          6           0       -8.301734    1.320772   -3.139697
     12          6           0       -4.656611    2.659061   -3.716280
     13          6           0       -4.811971    3.381919   -5.057434
     14          1           0       -3.741675    4.258391   -5.508667
     15          7           0       -5.350514   -2.226627   -0.704793
     16          6           0       -5.810046   -2.283670   -1.977924
     17          6           0       -5.714807   -3.702825   -2.382412
     18          6           0       -5.341175   -4.495165   -1.177967
     19          6           0       -5.411233   -3.486199   -0.152074
     20          6           0       -5.918747   -4.172676   -3.790034
     21          6           0       -4.988743   -5.935689   -0.980950
     22          8           0       -4.923193   -6.467255    0.179962
     23          6           0       -4.806494   -6.740418   -2.202522
     24          7           0       -5.564976   -1.581224    2.245269
     25          6           0       -5.588930   -2.916251    2.323457
     26          6           0       -5.574471   -3.380005    3.749873
     27          6           0       -5.289182   -2.081328    4.634067
     28          6           0       -5.269508   -1.024748    3.502023
     29          6           0       -6.857115   -4.062626    4.244709
     30          6           0       -4.084390   -2.143254    5.606208
     31          6           0       -2.793716   -2.206271    4.820531
     32          7           0       -5.104360    1.234118    1.560803
     33          6           0       -5.145660    1.372463    2.955733
     34          6           0       -5.152385    2.817972    3.246468
     35          6           0       -5.131129    3.424067    1.991860
     36          6           0       -5.138829    2.420858    0.981017
     37          6           0       -5.233826    3.407739    4.538744
     38          6           0       -5.128582    4.685991    1.269781
     39          8           0       -5.025955    5.870116    1.593523
     40          6           0       -5.409750    4.383799   -0.268221
     41          6           0       -4.395523    5.148412   -1.074460
     42          8           0       -3.183952    4.853665   -1.023603
     43          8           0       -5.030696    5.941339   -1.951023
     44          6           0       -4.081411    6.706322   -2.802971
     45          1           0       -6.886903   -1.512098   -3.626011
     46          1           0       -5.500175   -4.713714    1.547058
     47          1           0       -5.133267    0.628583    4.827980
     48          1           0       -6.587439    3.380854   -3.004597
     49          1           0       -6.564674    0.935482   -4.407127
     50          1           0       -8.545839    2.210118   -2.558838
     51          1           0       -8.579769    0.420141   -2.591925
     52          1           0       -8.847659    1.278555   -4.082544
     53          1           0       -4.320430    1.684022   -4.068901
     54          1           0       -3.896134    3.164684   -3.120171
     55          1           0       -5.775342    3.887680   -5.128368
     56          1           0       -4.840741    2.632200   -5.848190
     57          1           0       -6.343381   -3.389050   -4.416261
     58          1           0       -6.688616   -4.943462   -3.760036
     59          1           0       -5.005554   -4.581835   -4.222468
     60          1           0       -5.725092   -6.717123   -2.789195
     61          1           0       -4.471276   -7.721821   -1.868866
     62          1           0       -4.036749   -6.276093   -2.819648
     63          1           0       -4.780788   -4.107108    3.916654
     64          1           0       -6.134706   -1.828571    5.274283
     65          1           0       -6.695786   -5.068212    4.633908
     66          1           0       -7.572707   -4.071447    3.423039
     67          1           0       -7.406456   -3.507396    5.004551
     68          1           0       -4.133999   -3.045740    6.214488
     69          1           0       -4.032781   -1.289900    6.282503
     70          1           0       -2.699937   -3.267122    4.591112
     71          1           0       -1.958672   -1.863903    5.432655
     72          1           0       -2.878203   -1.674161    3.872793
     73          1           0       -4.511601    4.224000    4.547578
     74          1           0       -5.018397    2.679735    5.320539
     75          1           0       -6.273802    3.733685    4.546776
     76          1           0       -6.427843    4.714321   -0.471600
     77          1           0       -4.327014    7.762210   -2.688892
     78          1           0       -4.146987    6.276733   -3.802750
     79          1           0       -3.038057    6.702268   -2.485585
     80         12           0        5.351352   -0.885083   -0.304533
     81          6           0        5.317672    2.482751    0.934657
     82          6           0        4.298137    0.364559   -3.298480
     83          6           0        4.937677   -3.871642   -1.292871
     84          6           0        5.283800   -1.958090    3.010557
     85          7           0        4.901926    1.175112   -0.972252
     86          6           0        4.984450    2.381692   -0.432163
     87          6           0        4.771957    3.549861   -1.432066
     88          6           0        3.913449    2.765327   -2.539468
     89          6           0        4.423146    1.348223   -2.285118
     90          6           0        2.417973    2.790464   -2.270645
     91          6           0        6.123585    4.082858   -2.024542
     92          6           0        6.018849    5.417400   -2.766014
     93          1           0        7.134247    6.355235   -2.672080
     94          7           0        5.189527   -1.619270   -2.141206
     95          6           0        4.766760   -0.966517   -3.244137
     96          6           0        4.810951   -1.951252   -4.336155
     97          6           0        5.137016   -3.281893   -3.754962
     98          6           0        5.078972   -2.973027   -2.340277
     99          6           0        4.635395   -1.574994   -5.778730
    100          6           0        5.437186   -4.615095   -4.370325
    101          8           0        5.458232   -5.689648   -3.671956
    102          6           0        5.613584   -4.638746   -5.829717
    103          7           0        4.927828   -2.656274    0.698395
    104          6           0        4.852111   -3.824326    0.036702
    105          6           0        4.813079   -4.991837    0.993671
    106          6           0        5.123435   -4.375406    2.436335
    107          6           0        5.203551   -2.879516    2.060441
    108          6           0        3.496577   -5.766868    1.044183
    109          6           0        6.301960   -5.002058    3.230719
    110          6           0        7.610912   -4.696950    2.538649
    111          7           0        5.493999    0.052240    1.636890
    112          6           0        5.416295   -0.580067    2.897141
    113          6           0        5.450162    0.484286    3.921073
    114          6           0        5.522581    1.672783    3.178965
    115          6           0        5.512741    1.371567    1.790203
    116          6           0        5.366383    0.287732    5.328367
    117          6           0        5.594407    3.114243    3.254493
    118          8           0        5.720520    3.931164    4.165795
    119          6           0        5.337361    3.709753    1.803393
    120          6           0        6.395380    4.743783    1.531546
    121          8           0        7.590453    4.414305    1.432308
    122          8           0        5.801679    5.910109    1.219193
    123          6           0        6.810119    6.964357    0.930343
    124          1           0        3.752412    0.621789   -4.206722
    125          1           0        4.902636   -4.925791   -1.577496
    126          1           0        5.365584   -2.216130    4.068573
    127          1           0        4.201450    4.383996   -1.041530
    128          1           0        4.173650    3.089618   -3.543711
    129          1           0        2.188227    3.232654   -1.312610
    130          1           0        2.096893    1.757390   -2.297269
    131          1           0        1.895693    3.289657   -3.091836
    132          1           0        6.433160    3.431840   -2.852233
    133          1           0        6.873538    4.151751   -1.260700
    134          1           0        5.069424    5.927913   -2.563749
    135          1           0        5.991746    5.216589   -3.839775
    136          1           0        4.245505   -0.555027   -5.883840
    137          1           0        3.840560   -2.212402   -6.180995
    138          1           0        5.542613   -1.727561   -6.367242
    139          1           0        4.713174   -4.261230   -6.308474
    140          1           0        5.909015   -5.661480   -6.071827
    141          1           0        6.423577   -3.950309   -6.095417
    142          1           0        5.578937   -5.717750    0.749535
    143          1           0        4.266980   -4.482674    3.118098
    144          1           0        3.615849   -6.844605    0.824352
    145          1           0        2.805194   -5.311005    0.347965
    146          1           0        2.955449   -5.697067    1.986256
    147          1           0        6.208250   -6.090602    3.251544
    148          1           0        6.357258   -4.663833    4.260058
    149          1           0        7.669509   -5.472100    1.768712
    150          1           0        8.440826   -4.772117    3.238389
    151          1           0        7.569626   -3.727742    2.028165
    152          1           0        6.107290    0.935445    5.777843
    153          1           0        5.533483   -0.753785    5.594985
    154          1           0        4.332983    0.596528    5.507252
    155          1           0        4.334654    4.138851    1.798270
    156          1           0        6.593356    7.804983    1.596708
    157          1           0        6.741632    7.153250   -0.157491
    158          1           0        7.842328    6.753672    1.184541
 ---------------------------------------------------------------------

 SCF Done:  E(RCAM-B3LYP) =  -4069.81183950     A.U. after   19 cycles

 Excitation energies and oscillator strengths:

 Excited State   1:      Singlet-A      1.6596 eV  747.07 nm  f=0.0529  <S**2>=0.000
     309 -> 315       -0.11081
     310 -> 316        0.12837
     311 -> 313       -0.44655
     312 -> 314        0.52207
 This state for optimization and/or second-order correction.
 Total Energy, E(TD-HF/TD-DFT) =  -4069.75085022
 Copying the excited state density for this state as the 1-particle RhoCI density.

 Excited State   2:      Singlet-A      1.6929 eV  732.37 nm  f=0.6644  <S**2>=0.000
     309 -> 315        0.13626
     310 -> 316        0.11504
     311 -> 313        0.52037
     312 -> 314        0.44513

 Excited State   3:      Singlet-A      2.1822 eV  568.15 nm  f=0.0432  <S**2>=0.000
     309 -> 313       -0.22996
     310 -> 314        0.60155
     312 -> 316       -0.25164

 Excited State   4:      Singlet-A      2.1950 eV  564.85 nm  f=0.1420  <S**2>=0.000
     309 -> 313        0.59780
     310 -> 314        0.22712
     311 -> 315       -0.26220
     312 -> 316       -0.10045

 Excited State   5:      Singlet-A      2.4795 eV  500.04 nm  f=0.0000  <S**2>=0.000
     312 -> 313        0.70709

 The electronic state is 1-A.
 Alpha  occ. eigenvalues --  -46.87887 -46.87475 -19.26466 -19.26104 -19.19202
 Alpha  occ. eigenvalues --  -19.18935 -19.18875 -19.18599 -19.18259 -19.17847
 Alpha  occ. eigenvalues --  -14.42549 -14.42295 -14.41537 -14.41177 -14.39490
 Alpha  occ. eigenvalues --  -14.39176 -14.38675 -14.38414 -10.39254 -10.38860
 Alpha  occ. eigenvalues --  -10.35506 -10.35281 -10.34483 -10.34017 -10.31889
 Alpha  occ. eigenvalues --  -10.31522 -10.31508 -10.31089 -10.31018 -10.30818
 Alpha  occ. eigenvalues --  -10.30660 -10.30589 -10.30286 -10.30224 -10.30174
 Alpha  occ. eigenvalues --  -10.30002 -10.29980 -10.29716 -10.29710 -10.29334
 Alpha  occ. eigenvalues --  -10.29272 -10.29236 -10.28900 -10.28779 -10.28457
 Alpha  occ. eigenvalues --  -10.28443 -10.28439 -10.28247 -10.28216 -10.27872
 Alpha  occ. eigenvalues --  -10.27836 -10.27827 -10.27822 -10.27663 -10.27568
 Alpha  occ. eigenvalues --  -10.27562 -10.27519 -10.27504 -10.27475 -10.27370
 Alpha  occ. eigenvalues --  -10.27369 -10.27309 -10.27285 -10.27278 -10.27219
 Alpha  occ. eigenvalues --  -10.26916 -10.26804 -10.26467 -10.26446 -10.26350
 Alpha  occ. eigenvalues --  -10.26347 -10.26245 -10.26099 -10.26013 -10.25879
 Alpha  occ. eigenvalues --  -10.25764 -10.25702 -10.25564 -10.25496 -10.25230
 Alpha  occ. eigenvalues --  -10.24914 -10.24873 -10.24757 -10.24692 -10.24614
 Alpha  occ. eigenvalues --  -10.24513  -3.16630  -3.16225  -1.91512  -1.91107
 Alpha  occ. eigenvalues --   -1.91099  -1.90940  -1.90696  -1.90533  -1.16814
 Alpha  occ. eigenvalues --   -1.16403  -1.08721  -1.08448  -1.07274  -1.06855
 Alpha  occ. eigenvalues --   -1.06821  -1.06718  -1.04681  -1.04291  -1.03849
 Alpha  occ. eigenvalues --   -1.03477  -1.03319  -1.02862  -1.02498  -1.01928
 Alpha  occ. eigenvalues --   -0.92073  -0.91782  -0.89599  -0.89328  -0.89326
 Alpha  occ. eigenvalues --   -0.88879  -0.88365  -0.88057  -0.87942  -0.87777
 Alpha  occ. eigenvalues --   -0.87621  -0.87489  -0.87348  -0.86989  -0.85112
 Alpha  occ. eigenvalues --   -0.84770  -0.84017  -0.83716  -0.83033  -0.82815
 Alpha  occ. eigenvalues --   -0.82765  -0.82440  -0.81716  -0.81389  -0.80704
 Alpha  occ. eigenvalues --   -0.80250  -0.78874  -0.78482  -0.77319  -0.77063
 Alpha  occ. eigenvalues --   -0.76952  -0.76677  -0.76043  -0.75594  -0.74984
 Alpha  occ. eigenvalues --   -0.74621  -0.72858  -0.72517  -0.71769  -0.71364
 Alpha  occ. eigenvalues --   -0.69982  -0.69605  -0.68992  -0.68610  -0.67736
 Alpha  occ. eigenvalues --   -0.67425  -0.67356  -0.67012  -0.65417  -0.65041
 Alpha  occ. eigenvalues --   -0.64960  -0.64733  -0.64578  -0.64446  -0.64353
 Alpha  occ. eigenvalues --   -0.64034  -0.62434  -0.62069  -0.60517  -0.60193
 Alpha  occ. eigenvalues --   -0.59922  -0.59558  -0.59082  -0.58803  -0.58600
 Alpha  occ. eigenvalues --   -0.58236  -0.57706  -0.57398  -0.57337  -0.57066
 Alpha  occ. eigenvalues --   -0.56399  -0.56131  -0.56030  -0.55674  -0.55606
 Alpha  occ. eigenvalues --   -0.55438  -0.55279  -0.55067  -0.54639  -0.54299
 Alpha  occ. eigenvalues --   -0.54034  -0.53655  -0.53383  -0.53332  -0.53063
 Alpha  occ. eigenvalues --   -0.53037  -0.52947  -0.52847  -0.52706  -0.52513
 Alpha  occ. eigenvalues --   -0.52501  -0.52258  -0.51978  -0.51742  -0.51719
 Alpha  occ. eigenvalues --   -0.51450  -0.51296  -0.51009  -0.50639  -0.50359
 Alpha  occ. eigenvalues --   -0.50112  -0.50004  -0.49788  -0.49703  -0.49620
 Alpha  occ. eigenvalues --   -0.49313  -0.49296  -0.49213  -0.49004  -0.48844
 Alpha  occ. eigenvalues --   -0.48706  -0.48546  -0.48525  -0.48340  -0.48216
 Alpha  occ. eigenvalues --   -0.48178  -0.47797  -0.47403  -0.47388  -0.46955
 Alpha  occ. eigenvalues --   -0.46893  -0.46690  -0.46521  -0.46449  -0.46321
 Alpha  occ. eigenvalues --   -0.46255  -0.46102  -0.45929  -0.45903  -0.45615
 Alpha  occ. eigenvalues --   -0.45281  -0.45033  -0.44680  -0.44605  -0.44322
 Alpha  occ. eigenvalues --   -0.44268  -0.44234  -0.44204  -0.44114  -0.43922
 Alpha  occ. eigenvalues --   -0.43888  -0.43764  -0.43615  -0.43495  -0.43345
 Alpha  occ. eigenvalues --   -0.43174  -0.43123  -0.42848  -0.42744  -0.42725
 Alpha  occ. eigenvalues --   -0.42690  -0.42399  -0.42111  -0.41803  -0.41784
 Alpha  occ. eigenvalues --   -0.41664  -0.41464  -0.41247  -0.41241  -0.40990
 Alpha  occ. eigenvalues --   -0.40910  -0.40766  -0.40658  -0.40575  -0.40492
 Alpha  occ. eigenvalues --   -0.40402  -0.40301  -0.40009  -0.39517  -0.39280
 Alpha  occ. eigenvalues --   -0.38561  -0.38173  -0.37912  -0.37444  -0.37407
 Alpha  occ. eigenvalues --   -0.37389  -0.37087  -0.36985  -0.36862  -0.36557
 Alpha  occ. eigenvalues --   -0.36310  -0.36022  -0.34378  -0.34063  -0.33937
 Alpha  occ. eigenvalues --   -0.33645  -0.33281  -0.32992  -0.31407  -0.31155
 Alpha  occ. eigenvalues --   -0.31129  -0.30781  -0.30121  -0.29746  -0.29528
 Alpha  occ. eigenvalues --   -0.29402  -0.29170  -0.29032  -0.24173  -0.23846
 Alpha  occ. eigenvalues --   -0.21215  -0.20933
 Alpha virt. eigenvalues --   -0.08859  -0.08616  -0.01836  -0.01506  -0.00140
 Alpha virt. eigenvalues --    0.00135   0.02117   0.02394   0.03010   0.03398
 Alpha virt. eigenvalues --    0.04593   0.04934   0.04943   0.05393   0.05989

 Mulliken charges:
               1
     1  Mg   0.838553
     2  C   -0.003498
     3  C   -0.094575
     4  C   -0.045686
     5  C   -0.063573
     6  N   -0.256746
     7  C   -0.052779
     8  C   -0.013923
     9  C   -0.086944
    10  C    0.046073
    11  C    0.104772
    12  C    0.053702
    13  C   -0.071174
    14  H    0.033901
    15  N   -0.433172
    16  C    0.168362
    17  C   -0.177179
    18  C   -0.003705
    19  C    0.148690
    20  C    0.110159
    21  C    0.012551
    22  O   -0.249482
    23  C    0.062363
    24  N   -0.341056
    25  C    0.041254
    26  C   -0.028217
    27  C   -0.024036
    28  C    0.074718
    29  C    0.076121
    30  C    0.035089
    31  C   -0.004494
    32  N   -0.310512
    33  C    0.080330
    34  C   -0.169164
    35  C    0.008448
    36  C    0.082895
    37  C    0.127207
    38  C    0.046134
    39  O   -0.188126
    40  C   -0.005433
    41  C    0.213210
    42  O   -0.258361
    43  O   -0.304402
    44  C    0.157944
    45  H   -0.017633
    46  H   -0.016644
    47  H   -0.040981
    48  H    0.001048
    49  H   -0.004457
    50  H    0.025619
    51  H    0.016793
    52  H    0.016688
    53  H    0.010617
    54  H    0.043056
    55  H    0.018668
    56  H    0.017849
    57  H    0.005532
    58  H    0.027082
    59  H    0.039566
    60  H    0.037237
    61  H    0.036183
    62  H    0.031867
    63  H    0.016494
    64  H    0.009728
    65  H    0.023324
    66  H    0.012600
    67  H    0.004962
    68  H    0.006374
    69  H    0.005239
    70  H    0.008286
    71  H    0.018220
    72  H    0.029134
    73  H    0.048297
    74  H    0.009570
    75  H    0.046100
    76  H    0.035360
    77  H    0.043512
    78  H    0.045985
    79  H    0.052484
    80  Mg   0.837862
    81  C   -0.016555
    82  C   -0.087803
    83  C   -0.046026
    84  C   -0.065236
    85  N   -0.254770
    86  C   -0.048612
    87  C   -0.015338
    88  C   -0.090888
    89  C    0.046296
    90  C    0.114782
    91  C    0.062514
    92  C   -0.077583
    93  H    0.033926
    94  N   -0.423408
    95  C    0.162897
    96  C   -0.175251
    97  C   -0.008423
    98  C    0.152146
    99  C    0.099769
   100  C    0.015002
   101  O   -0.253654
   102  C    0.061404
   103  N   -0.350083
   104  C    0.037598
   105  C   -0.019803
   106  C   -0.034690
   107  C    0.089125
   108  C    0.073691
   109  C    0.034814
   110  C   -0.007584
   111  N   -0.324218
   112  C    0.078870
   113  C   -0.163317
   114  C    0.002772
   115  C    0.096156
   116  C    0.131390
   117  C    0.042648
   118  O   -0.187560
   119  C    0.000735
   120  C    0.210978
   121  O   -0.251731
   122  O   -0.304680
   123  C    0.152305
   124  H   -0.020149
   125  H   -0.016144
   126  H   -0.041004
   127  H    0.001545
   128  H   -0.005624
   129  H    0.027954
   130  H    0.013487
   131  H    0.016704
   132  H    0.013183
   133  H    0.037274
   134  H    0.021860
   135  H    0.018838
   136  H    0.008499
   137  H    0.024692
   138  H    0.039246
   139  H    0.037393
   140  H    0.035791
   141  H    0.033880
   142  H    0.013944
   143  H    0.012242
   144  H    0.024825
   145  H    0.011813
   146  H    0.006068
   147  H    0.006010
   148  H    0.003316
   149  H    0.010754
   150  H    0.017558
   151  H    0.030290
   152  H    0.045821
   153  H    0.007969
   154  H    0.047050
   155  H    0.038036
   156  H    0.044116
   157  H    0.049383
   158  H    0.052911
 Sum of Mulliken charges =  -0.00000

 Dipole moment (field-independent basis, Debye):
    X=             -4.7405    Y=             -2.0316    Z=             -6.8650  Tot=              8.5865
 Quadrupole moment (field-independent basis, Debye-Ang):
   XX=           -518.1996   YY=           -543.1263   ZZ=           -456.7183
   XY=              4.3543   XZ=             -0.0683   YZ=            -41.1680

 Normal termination of Gaussian 16 at Fri Sep 10 21:46:20 2021.
