 Gaussian 16, Revision A.03,
 Gaussian 16:  ES64L-G16RevA.03 25-Dec-2016

 -----------------------------------
 #p cam-b3lyp/Def2SVP td=(nstates=5)
 -----------------------------------

 --------------------------------
 TDDFT excited states in gaussian
 --------------------------------
 Symbolic Z-matrix:
 Charge =  0 Multiplicity = 1

                         Standard orientation:
 ---------------------------------------------------------------------
 Center     Atomic      Atomic             Coordinates (Angstroms)
 Number     Number       Type             X           Y           Z
 ---------------------------------------------------------------------
      1         12           0       -7.858837   -0.714294    0.221051
      2          6           0       -8.038242    2.853142   -0.010098
      3          6           0       -8.795348   -0.825079   -3.058238
      4          6           0       -8.148825   -3.857782    0.522737
      5          6           0       -8.053657   -0.352323    3.681786
      6          7           0       -8.326765    0.879744   -1.242073
      7          6           0       -8.299854    2.208658   -1.221232
      8          6           0       -8.501462    2.852783   -2.625451
      9          6           0       -9.276844    1.657809   -3.341564
     10          6           0       -8.742117    0.496090   -2.522784
     11          6           0      -10.790936    1.724223   -3.169464
     12          6           0       -7.142124    3.162299   -3.338285
     13          6           0       -7.239093    4.081630   -4.559261
     14          1           0       -6.160645    5.024992   -4.812967
     15          7           0       -7.914849   -2.133404   -1.152208
     16          6           0       -8.306929   -1.997395   -2.441805
     17          6           0       -8.168810   -3.336719   -3.053211
     18          6           0       -7.845732   -4.302059   -1.966090
     19          6           0       -7.984485   -3.463408   -0.802995
     20          6           0       -8.292287   -3.586016   -4.525065
     21          6           0       -7.481596   -5.753087   -1.973467
     22          8           0       -7.467955   -6.456356   -0.905852
     23          6           0       -7.223867   -6.359011   -3.292358
     24          7           0       -8.291725   -1.950957    1.846139
     25          6           0       -8.298916   -3.282268    1.717519
     26          6           0       -8.351088   -3.959743    3.054771
     27          6           0       -8.132188   -2.810404    4.141443
     28          6           0       -8.070394   -1.592188    3.187293
     29          6           0       -9.646846   -4.719849    3.369828
     30          6           0       -6.978508   -3.012142    5.155712
     31          6           0       -5.648076   -2.943998    4.439886
     32          7           0       -7.840167    0.939497    1.626637
     33          6           0       -7.955757    0.861371    3.022061
     34          6           0       -8.000014    2.244885    3.529997
     35          6           0       -7.923286    3.036848    2.385989
     36          6           0       -7.863046    2.200992    1.234465
     37          6           0       -8.157396    2.628285    4.891124
     38          6           0       -7.903008    4.394788    1.866908
     39          8           0       -7.835713    5.515770    2.373230
     40          6           0       -8.099460    4.330628    0.287948
     41          6           0       -7.056886    5.217642   -0.336195
     42          8           0       -5.845132    4.927587   -0.266301
     43          8           0       -7.658102    6.131198   -1.113689
     44          6           0       -6.678015    7.025125   -1.786355
     45          1           0       -9.308920   -0.989574   -4.007515
     46          1           0       -8.142136   -4.938244    0.680837
     47          1           0       -8.028707   -0.161467    4.756218
     48          1           0       -9.118196    3.751700   -2.628835
     49          1           0       -8.984821    1.551338   -4.386126
     50          1           0      -11.078586    2.511827   -2.473146
     51          1           0      -11.082900    0.748028   -2.781788
     52          1           0      -11.286608    1.823448   -4.135508
     53          1           0       -6.773011    2.255609   -3.817586
     54          1           0       -6.421479    3.575871   -2.631917
     55          1           0       -8.205254    4.585113   -4.603357
     56          1           0       -7.215227    3.462240   -5.455914
     57          1           0       -8.696083   -2.718584   -5.045695
     58          1           0       -9.050589   -4.357942   -4.654741
     59          1           0       -7.351680   -3.917012   -4.965556
     60          1           0       -8.111120   -6.252597   -3.916863
     61          1           0       -6.891135   -7.377534   -3.095503
     62          1           0       -6.430532   -5.799603   -3.788978
     63          1           0       -7.555883   -4.697929    3.150457
     64          1           0       -9.013545   -2.665395    4.766628
     65          1           0       -9.490248   -5.772098    3.608477
     66          1           0      -10.318728   -4.607521    2.519388
     67          1           0      -10.243351   -4.292169    4.175240
     68          1           0       -7.045483   -3.997778    5.615038
     69          1           0       -6.975256   -2.272581    5.956519
     70          1           0       -5.526051   -3.956223    4.056034
     71          1           0       -4.851261   -2.693644    5.141043
     72          1           0       -5.691668   -2.273114    3.581690
     73          1           0       -7.449386    3.438820    5.063533
     74          1           0       -7.971417    1.790335    5.562581
     75          1           0       -9.201340    2.941386    4.893303
     76          1           0       -9.110683    4.680923    0.083391
     77          1           0       -6.945594    8.049056   -1.525201
     78          1           0       -6.685065    6.753919   -2.842197
     79          1           0       -5.652549    6.980060   -1.417942
     80         12           0        8.020449   -0.832471   -0.077636
     81          6           0        7.853649    2.688830    0.594405
     82          6           0        7.089812   -0.113814   -3.279518
     83          6           0        7.720008   -3.950169   -0.584687
     84          6           0        7.812315   -1.357643    3.361338
     85          7           0        7.560581    1.078923   -1.091224
     86          6           0        7.590542    2.358761   -0.751429
     87          6           0        7.402724    3.343460   -1.936604
     88          6           0        6.616894    2.365769   -2.939335
     89          6           0        7.143591    1.023771   -2.435060
     90          6           0        5.109779    2.390454   -2.746104
     91          6           0        8.770241    3.812907   -2.546131
     92          6           0        8.673725    5.006602   -3.498784
     93          1           0        9.762820    5.979357   -3.508293
     94          7           0        7.965211   -1.857969   -1.775841
     95          6           0        7.583540   -1.404446   -2.988248
     96          6           0        7.702613   -2.550871   -3.902397
     97          6           0        8.027971   -3.760151   -3.098348
     98          6           0        7.893587   -3.228744   -1.756846
     99          6           0        7.590463   -2.417748   -5.393419
    100          6           0        8.386589   -5.165908   -3.474440
    101          8           0        8.396112   -6.112531   -2.610353
    102          6           0        8.635258   -5.419740   -4.901047
    103          7           0        7.585909   -2.430054    1.179843
    104          6           0        7.567932   -3.691316    0.714231
    105          6           0        7.506681   -4.689628    1.845602
    106          6           0        7.732216   -3.839581    3.181325
    107          6           0        7.798782   -2.422317    2.571120
    108          6           0        6.206168   -5.484303    1.961906
    109          6           0        8.883221   -4.295176    4.119553
    110          6           0       10.217904   -4.067863    3.446995
    111          7           0        8.047030    0.409776    1.689888
    112          6           0        7.920756   -0.012738    3.031394
    113          6           0        7.881278    1.203502    3.869027
    114          6           0        7.964819    2.258171    2.947524
    115          6           0        8.029974    1.736520    1.627236
    116          6           0        7.732366    1.234403    5.284297
    117          6           0        8.001987    3.694397    2.790731
    118          8           0        8.065473    4.651059    3.561775
    119          6           0        7.804202    4.040046    1.251965
    120          6           0        8.851997    5.046962    0.863685
    121          8           0       10.057284    4.740703    0.873524
    122          8           0        8.249642    6.129783    0.339241
    123          6           0        9.248335    7.152445   -0.071335
    124          1           0        6.584211   -0.022606   -4.241251
    125          1           0        7.721611   -5.037024   -0.695344
    126          1           0        7.847281   -1.438970    4.449845
    127          1           0        6.795929    4.212741   -1.713169
    128          1           0        6.919344    2.531090   -3.970134
    129          1           0        4.823620    2.974656   -1.884151
    130          1           0        4.812563    1.357733   -2.618831
    131          1           0        4.618112    2.735088   -3.660337
    132          1           0        9.134136    3.046079   -3.242051
    133          1           0        9.479942    4.026020   -1.770539
    134          1           0        7.704783    5.515228   -3.425418
    135          1           0        8.703950    4.634352   -4.525693
    136          1           0        7.184523   -1.439915   -5.680559
    137          1           0        6.830265   -3.134595   -5.722170
    138          1           0        8.528682   -2.636854   -5.907621
    139          1           0        7.751715   -5.150846   -5.475070
    140          1           0        8.964073   -6.459112   -4.959955
    141          1           0        9.442475   -4.759967   -5.238279
    142          1           0        8.299008   -5.422839    1.757696
    143          1           0        6.845640   -3.860233    3.832008
    144          1           0        6.359155   -6.579469    1.925939
    145          1           0        5.540404   -5.167156    1.170260
    146          1           0        5.617830   -5.279099    2.854635
    147          1           0        8.811892   -5.368342    4.312913
    148          1           0        8.880399   -3.793730    5.081594
    149          1           0       10.331003   -4.955116    2.816859
    150          1           0       11.013691   -4.004873    4.186454
    151          1           0       10.181158   -3.195416    2.784322
    152          1           0        8.436163    1.967467    5.655480
    153          1           0        7.908335    0.254901    5.724063
    154          1           0        6.685031    1.537816    5.363630
    155          1           0        6.794030    4.433327    1.131767
    156          1           0        8.981030    8.082963    0.438919
    157          1           0        9.229600    7.161145   -1.177371
    158          1           0       10.271006    7.015702    0.260175
 ---------------------------------------------------------------------

 SCF Done:  E(RCAM-B3LYP) =  -4069.81169684     A.U. after   19 cycles

 Excitation energies and oscillator strengths:

 Excited State   1:      Singlet-A      1.6700 eV  742.41 nm  f=0.0256  <S**2>=0.000
     309 -> 315       -0.10332
     310 -> 316        0.13808
     311 -> 313       -0.40962
     312 -> 314        0.55072
 This state for optimization and/or second-order correction.
 Total Energy, E(TD-HF/TD-DFT) =  -4069.75032434
 Copying the excited state density for this state as the 1-particle RhoCI density.

 Excited State   2:      Singlet-A      1.6850 eV  735.80 nm  f=0.7310  <S**2>=0.000
     309 -> 315        0.14199
     310 -> 316        0.10492
     311 -> 313        0.54990
     312 -> 314        0.40909

 Excited State   3:      Singlet-A      2.1853 eV  567.37 nm  f=0.0594  <S**2>=0.000
     309 -> 313       -0.13708
     310 -> 314        0.62800
     312 -> 316       -0.26621

 Excited State   4:      Singlet-A      2.1930 eV  565.37 nm  f=0.1340  <S**2>=0.000
     309 -> 313        0.62595
     310 -> 314        0.13599
     311 -> 315       -0.27226

 Excited State   5:      Singlet-A      2.7646 eV  448.47 nm  f=0.0000  <S**2>=0.000
     312 -> 313        0.70710

 The electronic state is 1-A.
 Alpha  occ. eigenvalues --  -46.87836 -46.87587 -19.26330 -19.26262 -19.19078
 Alpha  occ. eigenvalues --  -19.19065 -19.18851 -19.18660 -19.18201 -19.17966
 Alpha  occ. eigenvalues --  -14.42491 -14.42422 -14.41487 -14.41286 -14.39442
 Alpha  occ. eigenvalues --  -14.39280 -14.38624 -14.38524 -10.39124 -10.39006
 Alpha  occ. eigenvalues --  -10.35485 -10.35339 -10.34422 -10.34142 -10.31730
 Alpha  occ. eigenvalues --  -10.31673 -10.31445 -10.31229 -10.30953 -10.30950
 Alpha  occ. eigenvalues --  -10.30607 -10.30543 -10.30324 -10.30285 -10.30244
 Alpha  occ. eigenvalues --  -10.30074 -10.29954 -10.29820 -10.29667 -10.29368
 Alpha  occ. eigenvalues --  -10.29330 -10.29292 -10.28802 -10.28637 -10.28616
 Alpha  occ. eigenvalues --  -10.28589 -10.28404 -10.28330 -10.28165 -10.28055
 Alpha  occ. eigenvalues --  -10.27927 -10.27828 -10.27768 -10.27622 -10.27596
 Alpha  occ. eigenvalues --  -10.27531 -10.27528 -10.27479 -10.27453 -10.27443
 Alpha  occ. eigenvalues --  -10.27420 -10.27407 -10.27398 -10.27309 -10.27196
 Alpha  occ. eigenvalues --  -10.26960 -10.26773 -10.26622 -10.26449 -10.26378
 Alpha  occ. eigenvalues --  -10.26278 -10.26211 -10.26081 -10.26055 -10.25918
 Alpha  occ. eigenvalues --  -10.25863 -10.25863 -10.25767 -10.25461 -10.25329
 Alpha  occ. eigenvalues --  -10.24868 -10.24824 -10.24796 -10.24717 -10.24678
 Alpha  occ. eigenvalues --  -10.24618  -3.16578  -3.16337  -1.91460  -1.91219
 Alpha  occ. eigenvalues --   -1.91047  -1.90889  -1.90807  -1.90644  -1.16679
 Alpha  occ. eigenvalues --   -1.16557  -1.08659  -1.08571  -1.07252  -1.06913
 Alpha  occ. eigenvalues --   -1.06862  -1.06687  -1.04622  -1.04420  -1.03798
 Alpha  occ. eigenvalues --   -1.03590  -1.03271  -1.02966  -1.02448  -1.02037
 Alpha  occ. eigenvalues --   -0.92010  -0.91908  -0.89553  -0.89425  -0.89238
 Alpha  occ. eigenvalues --   -0.89070  -0.88320  -0.88153  -0.87902  -0.87716
 Alpha  occ. eigenvalues --   -0.87715  -0.87611  -0.87313  -0.87061  -0.85030
 Alpha  occ. eigenvalues --   -0.84924  -0.83969  -0.83809  -0.83005  -0.82877
 Alpha  occ. eigenvalues --   -0.82693  -0.82581  -0.81628  -0.81518  -0.80637
 Alpha  occ. eigenvalues --   -0.80369  -0.78835  -0.78569  -0.77259  -0.77072
 Alpha  occ. eigenvalues --   -0.76979  -0.76823  -0.75966  -0.75758  -0.74932
 Alpha  occ. eigenvalues --   -0.74732  -0.72810  -0.72625  -0.71710  -0.71504
 Alpha  occ. eigenvalues --   -0.69939  -0.69694  -0.68919  -0.68753  -0.67680
 Alpha  occ. eigenvalues --   -0.67530  -0.67272  -0.67134  -0.65333  -0.65194
 Alpha  occ. eigenvalues --   -0.64893  -0.64696  -0.64662  -0.64578  -0.64304
 Alpha  occ. eigenvalues --   -0.64135  -0.62339  -0.62199  -0.60479  -0.60276
 Alpha  occ. eigenvalues --   -0.59849  -0.59718  -0.59025  -0.58919  -0.58541
 Alpha  occ. eigenvalues --   -0.58351  -0.57623  -0.57471  -0.57345  -0.57167
 Alpha  occ. eigenvalues --   -0.56347  -0.56132  -0.56024  -0.55809  -0.55559
 Alpha  occ. eigenvalues --   -0.55384  -0.55374  -0.55175  -0.54561  -0.54414
 Alpha  occ. eigenvalues --   -0.53945  -0.53834  -0.53336  -0.53266  -0.53159
 Alpha  occ. eigenvalues --   -0.53070  -0.52956  -0.52828  -0.52800  -0.52609
 Alpha  occ. eigenvalues --   -0.52469  -0.52340  -0.51943  -0.51804  -0.51664
 Alpha  occ. eigenvalues --   -0.51588  -0.51233  -0.51125  -0.50614  -0.50423
 Alpha  occ. eigenvalues --   -0.50066  -0.49959  -0.49909  -0.49802  -0.49558
 Alpha  occ. eigenvalues --   -0.49420  -0.49253  -0.49140  -0.49127  -0.49022
 Alpha  occ. eigenvalues --   -0.48632  -0.48495  -0.48483  -0.48480  -0.48306
 Alpha  occ. eigenvalues --   -0.48276  -0.47736  -0.47525  -0.47335  -0.47052
 Alpha  occ. eigenvalues --   -0.46835  -0.46637  -0.46605  -0.46480  -0.46396
 Alpha  occ. eigenvalues --   -0.46201  -0.46197  -0.46011  -0.45858  -0.45742
 Alpha  occ. eigenvalues --   -0.45234  -0.45139  -0.44615  -0.44549  -0.44437
 Alpha  occ. eigenvalues --   -0.44403  -0.44181  -0.44133  -0.44058  -0.44050
 Alpha  occ. eigenvalues --   -0.44012  -0.43871  -0.43534  -0.43476  -0.43428
 Alpha  occ. eigenvalues --   -0.43310  -0.43065  -0.42853  -0.42822  -0.42740
 Alpha  occ. eigenvalues --   -0.42691  -0.42489  -0.42048  -0.41895  -0.41742
 Alpha  occ. eigenvalues --   -0.41591  -0.41582  -0.41386  -0.41181  -0.40914
 Alpha  occ. eigenvalues --   -0.40912  -0.40865  -0.40661  -0.40630  -0.40606
 Alpha  occ. eigenvalues --   -0.40423  -0.40294  -0.40158  -0.39473  -0.39363
 Alpha  occ. eigenvalues --   -0.38506  -0.38281  -0.37804  -0.37583  -0.37356
 Alpha  occ. eigenvalues --   -0.37311  -0.37196  -0.37125  -0.36755  -0.36691
 Alpha  occ. eigenvalues --   -0.36232  -0.36143  -0.34324  -0.34179  -0.33814
 Alpha  occ. eigenvalues --   -0.33781  -0.33224  -0.33102  -0.31381  -0.31218
 Alpha  occ. eigenvalues --   -0.31074  -0.30899  -0.30061  -0.29869  -0.29486
 Alpha  occ. eigenvalues --   -0.29357  -0.29259  -0.29135  -0.24119  -0.23961
 Alpha  occ. eigenvalues --   -0.21165  -0.21044
 Alpha virt. eigenvalues --   -0.08812  -0.08719  -0.01788  -0.01612  -0.00097
 Alpha virt. eigenvalues --    0.00038   0.02167   0.02286   0.03074   0.03292
 Alpha virt. eigenvalues --    0.04671   0.04806   0.05054   0.05249   0.06115

 Mulliken charges:
               1
     1  Mg   0.838577
     2  C   -0.003049
     3  C   -0.094316
     4  C   -0.045834
     5  C   -0.063848
     6  N   -0.256759
     7  C   -0.052526
     8  C   -0.013983
     9  C   -0.086961
    10  C    0.046233
    11  C    0.104803
    12  C    0.053543
    13  C   -0.071613
    14  H    0.035612
    15  N   -0.433147
    16  C    0.168365
    17  C   -0.177269
    18  C   -0.004000
    19  C    0.148663
    20  C    0.110207
    21  C    0.012269
    22  O   -0.249515
    23  C    0.062499
    24  N   -0.341133
    25  C    0.041239
    26  C   -0.028197
    27  C   -0.023991
    28  C    0.074814
    29  C    0.076147
    30  C    0.035109
    31  C   -0.004517
    32  N   -0.310498
    33  C    0.080426
    34  C   -0.169554
    35  C    0.008458
    36  C    0.083008
    37  C    0.127273
    38  C    0.046204
    39  O   -0.188178
    40  C   -0.005402
    41  C    0.212950
    42  O   -0.257222
    43  O   -0.304744
    44  C    0.157683
    45  H   -0.017660
    46  H   -0.016764
    47  H   -0.041318
    48  H    0.001007
    49  H   -0.004231
    50  H    0.025550
    51  H    0.016543
    52  H    0.016632
    53  H    0.010940
    54  H    0.044016
    55  H    0.018081
    56  H    0.017769
    57  H    0.005754
    58  H    0.026894
    59  H    0.039284
    60  H    0.037352
    61  H    0.035773
    62  H    0.031294
    63  H    0.016576
    64  H    0.009567
    65  H    0.023276
    66  H    0.012551
    67  H    0.004833
    68  H    0.006429
    69  H    0.004866
    70  H    0.008750
    71  H    0.018192
    72  H    0.028909
    73  H    0.047829
    74  H    0.009230
    75  H    0.046095
    76  H    0.035219
    77  H    0.043136
    78  H    0.046181
    79  H    0.053618
    80  Mg   0.837955
    81  C   -0.016764
    82  C   -0.087800
    83  C   -0.045587
    84  C   -0.064793
    85  N   -0.254578
    86  C   -0.049569
    87  C   -0.015146
    88  C   -0.090559
    89  C    0.045841
    90  C    0.114364
    91  C    0.062547
    92  C   -0.077791
    93  H    0.034680
    94  N   -0.423472
    95  C    0.162876
    96  C   -0.174784
    97  C   -0.007957
    98  C    0.152106
    99  C    0.099478
   100  C    0.015446
   101  O   -0.253314
   102  C    0.061252
   103  N   -0.350022
   104  C    0.037587
   105  C   -0.019864
   106  C   -0.034809
   107  C    0.088965
   108  C    0.073654
   109  C    0.034756
   110  C   -0.007641
   111  N   -0.324185
   112  C    0.078575
   113  C   -0.163008
   114  C    0.002480
   115  C    0.096215
   116  C    0.131431
   117  C    0.042610
   118  O   -0.187552
   119  C    0.000827
   120  C    0.211215
   121  O   -0.251232
   122  O   -0.305402
   123  C    0.152086
   124  H   -0.019891
   125  H   -0.015712
   126  H   -0.040462
   127  H   -0.000251
   128  H   -0.004659
   129  H    0.023321
   130  H    0.014505
   131  H    0.016092
   132  H    0.013733
   133  H    0.037632
   134  H    0.020988
   135  H    0.019351
   136  H    0.008590
   137  H    0.025776
   138  H    0.039543
   139  H    0.038038
   140  H    0.036187
   141  H    0.033817
   142  H    0.014236
   143  H    0.012516
   144  H    0.024976
   145  H    0.011789
   146  H    0.005759
   147  H    0.006151
   148  H    0.003628
   149  H    0.010845
   150  H    0.017812
   151  H    0.030145
   152  H    0.045957
   153  H    0.008353
   154  H    0.047499
   155  H    0.035789
   156  H    0.044060
   157  H    0.049368
   158  H    0.053405
 Sum of Mulliken charges =  -0.00000

 Dipole moment (field-independent basis, Debye):
    X=             -4.2072    Y=             -2.3256    Z=             -7.4914  Tot=              8.9012
 Quadrupole moment (field-independent basis, Debye-Ang):
   XX=           -517.4751   YY=           -550.0677   ZZ=           -449.0422
   XY=              2.4237   XZ=             -0.9923   YZ=            -47.1340

 Normal termination of Gaussian 16 at Sat Sep  4 12:46:59 2021.
