 Gaussian 16, Revision A.03,
 Gaussian 16:  ES64L-G16RevA.03 25-Dec-2016

 -----------------------------------
 #p cam-b3lyp/Def2SVP td=(nstates=5)
 -----------------------------------

 --------------------------------
 TDDFT excited states in gaussian
 --------------------------------
 Symbolic Z-matrix:
 Charge =  0 Multiplicity = 1

                         Standard orientation:
 ---------------------------------------------------------------------
 Center     Atomic      Atomic             Coordinates (Angstroms)
 Number     Number       Type             X           Y           Z
 ---------------------------------------------------------------------
      1         12           0        3.167593   -2.248783   -0.136724
      2          6           0        5.388827    0.547310   -0.382076
      3          6           0        4.170870   -2.571176    3.108667
      4          6           0        1.565132   -4.983131   -0.026818
      5          6           0        3.210940   -2.400481   -3.618213
      6          7           0        4.602116   -1.095683    1.093378
      7          6           0        5.343418   -0.009665    0.897908
      8          6           0        6.009210    0.526556    2.200429
      9          6           0        6.017943   -0.821334    3.051966
     10          6           0        4.838258   -1.525169    2.404754
     11          6           0        7.269968   -1.666745    2.841685
     12          6           0        5.149843    1.636698    2.893828
     13          6           0        5.871967    2.438499    3.980570
     14          1           0        5.562798    3.852558    4.129567
     15          7           0        2.524343   -3.295499    1.410359
     16          6           0        3.041602   -3.291249    2.662442
     17          6           0        2.215427   -4.233118    3.447935
     18          6           0        1.295654   -4.927470    2.504544
     19          6           0        1.782549   -4.442611    1.238360
     20          6           0        2.309696   -4.365814    4.936980
     21          6           0        0.165149   -5.885363    2.710780
     22          8           0       -0.350567   -6.546758    1.745810
     23          6           0       -0.269842   -6.098213    4.103087
     24          7           0        2.655408   -3.654061   -1.592916
     25          6           0        1.906777   -4.720234   -1.289913
     26          6           0        1.434179   -5.424907   -2.526855
     27          6           0        1.816574   -4.473578   -3.750987
     28          6           0        2.556892   -3.363519   -2.964877
     29          6           0        2.019641   -6.823621   -2.765279
     30          6           0        0.668562   -4.060649   -4.705962
     31          6           0       -0.306014   -3.161838   -3.978338
     32          7           0        3.973270   -1.037550   -1.747576
     33          6           0        3.891820   -1.301118   -3.122556
     34          6           0        4.676861   -0.259005   -3.809418
     35          6           0        5.177374    0.533925   -2.778596
     36          6           0        4.754783    0.004452   -1.525852
     37          6           0        4.898281   -0.171249   -5.212167
     38          6           0        5.991214    1.691016   -2.442945
     39          8           0        6.534645    2.586468   -3.091283
     40          6           0        6.261356    1.675391   -0.873676
     41          6           0        5.983491    3.058418   -0.350858
     42          8           0        4.825683    3.524044   -0.357074
     43          8           0        7.070450    3.519311    0.286826
     44          6           0        6.851855    4.876120    0.855543
     45          1           0        4.582009   -2.912699    4.060649
     46          1           0        0.922865   -5.866158   -0.040785
     47          1           0        3.200183   -2.334453   -4.707698
     48          1           0        7.028028    0.892727    2.072551
     49          1           0        5.817023   -0.637354    4.107193
     50          1           0        7.892025   -1.265331    2.041789
     51          1           0        6.908874   -2.661631    2.580332
     52          1           0        7.819967   -1.783433    3.775848
     53          1           0        4.372779    1.165972    3.496032
     54          1           0        4.736598    2.323087    2.153946
     55          1           0        6.950754    2.285788    3.938076
     56          1           0        5.579740    2.038173    4.951417
     57          1           0        3.185743   -3.851571    5.330224
     58          1           0        2.493335   -5.418342    5.151855
     59          1           0        1.396244   -4.042580    5.436437
     60          1           0        0.570464   -6.469946    4.689816
     61          1           0       -1.144906   -6.744904    4.049204
     62          1           0       -0.545783   -5.136989    4.537660
     63          1           0        0.354309   -5.566156   -2.508013
     64          1           0        2.557564   -4.929974   -4.407729
     65          1           0        1.264324   -7.604184   -2.859732
     66          1           0        2.709516   -7.043482   -1.951016
     67          1           0        2.675160   -6.903079   -3.632111
     68          1           0        0.112585   -4.938842   -5.032478
     69          1           0        1.016903   -3.538404   -5.597124
     70          1           0       -0.952050   -3.870861   -3.461853
     71          1           0       -0.874613   -2.562254   -4.689959
     72          1           0        0.195822   -2.564015   -3.217249
     73          1           0        4.773730    0.879038   -5.475515
     74          1           0        4.202045   -0.803063   -5.763231
     75          1           0        5.926316   -0.527338   -5.276989
     76          1           0        7.303539    1.388115   -0.737852
     77          1           0        7.634324    5.521451    0.456138
     78          1           0        6.800075    4.753918    1.937573
     79          1           0        5.958528    5.402359    0.517343
     80         12           0       -3.307852    2.344170    0.171216
     81          6           0       -5.208444   -0.697817    0.285940
     82          6           0       -2.822070    1.739827   -3.150452
     83          6           0       -1.261231    4.768457    0.131036
     84          6           0       -2.979937    2.106601    3.632677
     85          7           0       -3.979503    0.700220   -1.147335
     86          6           0       -4.748529   -0.368913   -1.006246
     87          6           0       -5.107337   -1.083244   -2.336865
     88          6           0       -3.863361   -0.583632   -3.221055
     89          6           0       -3.550361    0.719378   -2.488338
     90          6           0       -2.649434   -1.492152   -3.119553
     91          6           0       -6.471532   -0.587159   -2.932612
     92          6           0       -7.034119   -1.454809   -4.060627
     93          1           0       -8.482056   -1.618018   -4.157181
     94          7           0       -2.606956    3.408093   -1.350429
     95          6           0       -2.502515    3.016240   -2.637601
     96          6           0       -1.908056    4.153235   -3.357330
     97          6           0       -1.518089    5.187211   -2.360571
     98          6           0       -1.766728    4.470232   -1.125976
     99          6           0       -1.830276    4.217300   -4.855087
    100          6           0       -0.994377    6.584909   -2.496183
    101          8           0       -0.497768    7.217672   -1.498280
    102          6           0       -0.994356    7.156447   -3.850745
    103          7           0       -2.091864    3.187196    1.631701
    104          6           0       -1.338041    4.268015    1.364323
    105          6           0       -0.764975    4.860001    2.629831
    106          6           0       -1.490392    4.091793    3.830344
    107          6           0       -2.328501    3.082570    3.015208
    108          6           0        0.750305    4.742306    2.792528
    109          6           0       -2.213228    4.966638    4.890911
    110          6           0       -3.409703    5.649328    4.268178
    111          7           0       -4.111810    1.078106    1.726451
    112          6           0       -3.822715    1.135370    3.107476
    113          6           0       -4.519125   -0.000553    3.745534
    114          6           0       -5.151342   -0.658452    2.679711
    115          6           0       -4.852379    0.007888    1.460656
    116          6           0       -4.473270   -0.333637    5.128672
    117          6           0       -5.994947   -1.771266    2.307351
    118          8           0       -6.624913   -2.628632    2.925254
    119          6           0       -5.966243   -1.919892    0.725113
    120          6           0       -7.384109   -2.074394    0.247295
    121          8           0       -8.198229   -1.142600    0.372144
    122          8           0       -7.486311   -3.208184   -0.469939
    123          6           0       -8.871978   -3.399831   -0.974946
    124          1           0       -2.419617    1.530156   -4.141883
    125          1           0       -0.637718    5.663678    0.188273
    126          1           0       -3.007296    2.020320    4.721016
    127          1           0       -5.115041   -2.165324   -2.283822
    128          1           0       -4.163056   -0.382108   -4.246202
    129          1           0       -2.783857   -2.262438   -2.374761
    130          1           0       -1.821600   -0.848281   -2.852781
    131          1           0       -2.405000   -1.905848   -4.102128
    132          1           0       -6.303519    0.348534   -3.481234
    133          1           0       -7.207330   -0.477425   -2.159821
    134          1           0       -6.532766   -2.428443   -4.120959
    135          1           0       -6.803928   -0.975211   -5.015096
    136          1           0       -2.043486    3.242583   -5.311012
    137          1           0       -0.784099    4.414697   -5.112789
    138          1           0       -2.453386    5.009427   -5.275726
    139          1           0       -0.399406    6.527030   -4.508269
    140          1           0       -0.668433    8.191504   -3.731179
    141          1           0       -2.018922    7.136970   -4.238693
    142          1           0       -0.992708    5.916555    2.700189
    143          1           0       -0.778451    3.500968    4.425249
    144          1           0        1.251309    5.718652    2.933294
    145          1           0        1.148119    4.232313    1.925241
    146          1           0        1.078712    4.100867    3.608551
    147          1           0       -1.550310    5.761327    5.241855
    148          1           0       -2.536944    4.408635    5.763169
    149          1           0       -2.970006    6.528995    3.788662
    150          1           0       -4.128928    5.934905    5.033163
    151          1           0       -3.849999    5.029114    3.478791
    152          1           0       -5.484199   -0.582936    5.422566
    153          1           0       -4.076833    0.487382    5.722407
    154          1           0       -3.790770   -1.187285    5.101188
    155          1           0       -5.357231   -2.793376    0.489119
    156          1           0       -9.204916   -4.383293   -0.629066
    157          1           0       -8.815752   -3.242950   -2.068549
    158          1           0       -9.646393   -2.759548   -0.569019
 ---------------------------------------------------------------------

 SCF Done:  E(RCAM-B3LYP) =  -4069.80448759     A.U. after   19 cycles

 Excitation energies and oscillator strengths:

 Excited State   1:      Singlet-A      1.6377 eV  757.08 nm  f=0.0033  <S**2>=0.000
     309 -> 315        0.11161
     310 -> 316        0.12091
     311 -> 313       -0.46620
     312 -> 314        0.50634
 This state for optimization and/or second-order correction.
 Total Energy, E(TD-HF/TD-DFT) =  -4069.74430479
 Copying the excited state density for this state as the 1-particle RhoCI density.

 Excited State   2:      Singlet-A      1.7126 eV  723.97 nm  f=0.6772  <S**2>=0.000
     309 -> 315       -0.13542
     310 -> 316        0.12432
     311 -> 313        0.50288
     312 -> 314        0.46307

 Excited State   3:      Singlet-A      2.1800 eV  568.73 nm  f=0.0066  <S**2>=0.000
     309 -> 313       -0.36665
     310 -> 314        0.53255
     311 -> 315       -0.15031
     312 -> 316       -0.21883

 Excited State   4:      Singlet-A      2.1996 eV  563.68 nm  f=0.1606  <S**2>=0.000
     309 -> 313        0.52561
     310 -> 314        0.36070
     311 -> 315        0.23422
     312 -> 316       -0.16159

 Excited State   5:      Singlet-A      2.2291 eV  556.20 nm  f=0.0000  <S**2>=0.000
     312 -> 313        0.70696

 The electronic state is 1-A.
 Alpha  occ. eigenvalues --  -46.87925 -46.87373 -19.26307 -19.26124 -19.19047
 Alpha  occ. eigenvalues --  -19.18930 -19.18834 -19.18343 -19.18267 -19.17783
 Alpha  occ. eigenvalues --  -14.42577 -14.42200 -14.41599 -14.41075 -14.39518
 Alpha  occ. eigenvalues --  -14.39050 -14.38717 -14.38321 -10.39113 -10.38854
 Alpha  occ. eigenvalues --  -10.35459 -10.35015 -10.34486 -10.33963 -10.31673
 Alpha  occ. eigenvalues --  -10.31565 -10.31540 -10.31051 -10.31011 -10.30705
 Alpha  occ. eigenvalues --  -10.30704 -10.30639 -10.30358 -10.30110 -10.30106
 Alpha  occ. eigenvalues --  -10.30086 -10.29836 -10.29748 -10.29611 -10.29373
 Alpha  occ. eigenvalues --  -10.29122 -10.29121 -10.28861 -10.28661 -10.28482
 Alpha  occ. eigenvalues --  -10.28470 -10.28431 -10.28231 -10.28097 -10.27910
 Alpha  occ. eigenvalues --  -10.27855 -10.27771 -10.27728 -10.27711 -10.27684
 Alpha  occ. eigenvalues --  -10.27665 -10.27542 -10.27521 -10.27384 -10.27278
 Alpha  occ. eigenvalues --  -10.27240 -10.27182 -10.27167 -10.27145 -10.27075
 Alpha  occ. eigenvalues --  -10.26833 -10.26765 -10.26470 -10.26458 -10.26335
 Alpha  occ. eigenvalues --  -10.26325 -10.26186 -10.26040 -10.26026 -10.25968
 Alpha  occ. eigenvalues --  -10.25738 -10.25675 -10.25607 -10.25469 -10.25097
 Alpha  occ. eigenvalues --  -10.24976 -10.24950 -10.24923 -10.24590 -10.24562
 Alpha  occ. eigenvalues --  -10.24366  -3.16668  -3.16124  -1.91550  -1.91137
 Alpha  occ. eigenvalues --   -1.91006  -1.90978  -1.90594  -1.90431  -1.16658
 Alpha  occ. eigenvalues --   -1.16417  -1.08721  -1.08398  -1.07228  -1.06714
 Alpha  occ. eigenvalues --   -1.06670  -1.06583  -1.04703  -1.04199  -1.03901
 Alpha  occ. eigenvalues --   -1.03369  -1.03362  -1.02750  -1.02544  -1.01820
 Alpha  occ. eigenvalues --   -0.92085  -0.91700  -0.89740  -0.89308  -0.89232
 Alpha  occ. eigenvalues --   -0.88870  -0.88488  -0.88017  -0.87943  -0.87806
 Alpha  occ. eigenvalues --   -0.87566  -0.87406  -0.87343  -0.86796  -0.85103
 Alpha  occ. eigenvalues --   -0.84747  -0.84186  -0.83605  -0.83055  -0.82736
 Alpha  occ. eigenvalues --   -0.82603  -0.82359  -0.81679  -0.81350  -0.80696
 Alpha  occ. eigenvalues --   -0.80169  -0.78899  -0.78347  -0.77463  -0.77109
 Alpha  occ. eigenvalues --   -0.76859  -0.76635  -0.76039  -0.75621  -0.75043
 Alpha  occ. eigenvalues --   -0.74496  -0.72928  -0.72436  -0.71803  -0.71348
 Alpha  occ. eigenvalues --   -0.70233  -0.69506  -0.68994  -0.68519  -0.67750
 Alpha  occ. eigenvalues --   -0.67325  -0.67307  -0.66926  -0.65418  -0.65043
 Alpha  occ. eigenvalues --   -0.64962  -0.64760  -0.64520  -0.64469  -0.64337
 Alpha  occ. eigenvalues --   -0.63935  -0.62383  -0.62030  -0.60547  -0.60027
 Alpha  occ. eigenvalues --   -0.59922  -0.59516  -0.59126  -0.58712  -0.58631
 Alpha  occ. eigenvalues --   -0.58147  -0.57678  -0.57441  -0.57298  -0.56951
 Alpha  occ. eigenvalues --   -0.56425  -0.56046  -0.55969  -0.55762  -0.55619
 Alpha  occ. eigenvalues --   -0.55550  -0.55163  -0.54994  -0.54782  -0.54232
 Alpha  occ. eigenvalues --   -0.54012  -0.53754  -0.53369  -0.53291  -0.53117
 Alpha  occ. eigenvalues --   -0.52945  -0.52881  -0.52816  -0.52740  -0.52566
 Alpha  occ. eigenvalues --   -0.52313  -0.52188  -0.52074  -0.51714  -0.51705
 Alpha  occ. eigenvalues --   -0.51396  -0.51347  -0.50959  -0.50640  -0.50312
 Alpha  occ. eigenvalues --   -0.50144  -0.49994  -0.49692  -0.49599  -0.49572
 Alpha  occ. eigenvalues --   -0.49319  -0.49219  -0.49182  -0.48947  -0.48867
 Alpha  occ. eigenvalues --   -0.48696  -0.48576  -0.48493  -0.48319  -0.48095
 Alpha  occ. eigenvalues --   -0.48012  -0.47816  -0.47408  -0.47315  -0.47068
 Alpha  occ. eigenvalues --   -0.46838  -0.46680  -0.46582  -0.46432  -0.46309
 Alpha  occ. eigenvalues --   -0.46288  -0.46007  -0.45930  -0.45833  -0.45646
 Alpha  occ. eigenvalues --   -0.45253  -0.44850  -0.44780  -0.44631  -0.44398
 Alpha  occ. eigenvalues --   -0.44264  -0.44193  -0.44138  -0.44090  -0.43805
 Alpha  occ. eigenvalues --   -0.43790  -0.43704  -0.43565  -0.43512  -0.43304
 Alpha  occ. eigenvalues --   -0.43244  -0.43087  -0.42899  -0.42731  -0.42680
 Alpha  occ. eigenvalues --   -0.42550  -0.42291  -0.42165  -0.41833  -0.41720
 Alpha  occ. eigenvalues --   -0.41656  -0.41390  -0.41269  -0.41149  -0.41052
 Alpha  occ. eigenvalues --   -0.40884  -0.40773  -0.40705  -0.40443  -0.40362
 Alpha  occ. eigenvalues --   -0.40342  -0.40252  -0.39947  -0.39314  -0.39188
 Alpha  occ. eigenvalues --   -0.38658  -0.38054  -0.37863  -0.37496  -0.37384
 Alpha  occ. eigenvalues --   -0.37370  -0.36991  -0.36911  -0.36749  -0.36528
 Alpha  occ. eigenvalues --   -0.36271  -0.35931  -0.34417  -0.33965  -0.33812
 Alpha  occ. eigenvalues --   -0.33617  -0.33307  -0.32890  -0.31372  -0.31151
 Alpha  occ. eigenvalues --   -0.30905  -0.30659  -0.30127  -0.29693  -0.29548
 Alpha  occ. eigenvalues --   -0.29439  -0.29023  -0.28929  -0.24212  -0.23746
 Alpha  occ. eigenvalues --   -0.21261  -0.20821
 Alpha virt. eigenvalues --   -0.08891  -0.08494  -0.01880  -0.01379  -0.00131
 Alpha virt. eigenvalues --    0.00304   0.02072   0.02369   0.02587   0.03613
 Alpha virt. eigenvalues --    0.04577   0.05028   0.05043   0.05411   0.05980

 Mulliken charges:
               1
     1  Mg   0.838815
     2  C   -0.002257
     3  C   -0.093996
     4  C   -0.046396
     5  C   -0.065346
     6  N   -0.256583
     7  C   -0.052836
     8  C   -0.013938
     9  C   -0.087015
    10  C    0.046402
    11  C    0.104727
    12  C    0.052716
    13  C   -0.071987
    14  H    0.036092
    15  N   -0.433473
    16  C    0.169022
    17  C   -0.176687
    18  C   -0.003070
    19  C    0.149282
    20  C    0.110227
    21  C    0.013406
    22  O   -0.249057
    23  C    0.062163
    24  N   -0.340859
    25  C    0.040872
    26  C   -0.029043
    27  C   -0.025059
    28  C    0.073802
    29  C    0.076385
    30  C    0.075899
    31  C   -0.054029
    32  N   -0.310373
    33  C    0.079767
    34  C   -0.171210
    35  C    0.008495
    36  C    0.082995
    37  C    0.127590
    38  C    0.046265
    39  O   -0.188354
    40  C   -0.005439
    41  C    0.212504
    42  O   -0.255714
    43  O   -0.305142
    44  C    0.156884
    45  H   -0.017114
    46  H   -0.016617
    47  H   -0.043033
    48  H    0.001320
    49  H   -0.004001
    50  H    0.025682
    51  H    0.016551
    52  H    0.017006
    53  H    0.010441
    54  H    0.045026
    55  H    0.018465
    56  H    0.017611
    57  H    0.005709
    58  H    0.027542
    59  H    0.040315
    60  H    0.036798
    61  H    0.038481
    62  H    0.032403
    63  H    0.015923
    64  H    0.009578
    65  H    0.023456
    66  H    0.013362
    67  H    0.004855
    68  H    0.003816
    69  H    0.000780
    70  H    0.014083
    71  H    0.025135
    72  H    0.035026
    73  H    0.046397
    74  H    0.007506
    75  H    0.046497
    76  H    0.035253
    77  H    0.043200
    78  H    0.045866
    79  H    0.055762
    80  Mg   0.836478
    81  C   -0.017174
    82  C   -0.088621
    83  C   -0.040632
    84  C   -0.065883
    85  N   -0.254891
    86  C   -0.050241
    87  C   -0.015524
    88  C   -0.072219
    89  C    0.046827
    90  C    0.092397
    91  C    0.063999
    92  C   -0.077324
    93  H    0.034028
    94  N   -0.424358
    95  C    0.163754
    96  C   -0.172337
    97  C   -0.004686
    98  C    0.152161
    99  C    0.098436
   100  C    0.018004
   101  O   -0.251890
   102  C    0.060820
   103  N   -0.350054
   104  C    0.037817
   105  C   -0.020416
   106  C   -0.033754
   107  C    0.088321
   108  C    0.070863
   109  C    0.035077
   110  C   -0.007452
   111  N   -0.323700
   112  C    0.077827
   113  C   -0.164870
   114  C    0.001803
   115  C    0.095644
   116  C    0.131918
   117  C    0.041695
   118  O   -0.189333
   119  C    0.000981
   120  C    0.210926
   121  O   -0.251604
   122  O   -0.305189
   123  C    0.152343
   124  H   -0.020653
   125  H   -0.013414
   126  H   -0.042671
   127  H   -0.001103
   128  H   -0.006657
   129  H    0.024157
   130  H    0.016320
   131  H    0.017105
   132  H    0.013472
   133  H    0.037277
   134  H    0.020039
   135  H    0.018842
   136  H    0.007482
   137  H    0.029355
   138  H    0.039128
   139  H    0.040499
   140  H    0.036078
   141  H    0.032298
   142  H    0.013591
   143  H    0.009936
   144  H    0.023196
   145  H    0.023994
   146  H    0.001742
   147  H    0.005168
   148  H    0.002113
   149  H    0.010959
   150  H    0.016936
   151  H    0.030646
   152  H    0.045433
   153  H    0.007424
   154  H    0.043291
   155  H    0.036771
   156  H    0.043631
   157  H    0.049077
   158  H    0.053046
 Sum of Mulliken charges =  -0.00000

 Dipole moment (field-independent basis, Debye):
    X=              3.7206    Y=             -2.1690    Z=             -0.1308  Tot=              4.3086
 Quadrupole moment (field-independent basis, Debye-Ang):
   XX=           -538.6436   YY=           -532.8434   ZZ=           -449.5881
   XY=            -21.8328   XZ=             59.8352   YZ=             22.2559

 Normal termination of Gaussian 16 at Fri Sep  3 13:33:20 2021.
