 Gaussian 16, Revision A.03,
 Gaussian 16:  ES64L-G16RevA.03 25-Dec-2016

 -----------------------------------
 #p cam-b3lyp/Def2SVP td=(nstates=5)
 -----------------------------------

 --------------------------------
 TDDFT excited states in gaussian
 --------------------------------
 Symbolic Z-matrix:
 Charge =  0 Multiplicity = 1

                         Standard orientation:
 ---------------------------------------------------------------------
 Center     Atomic      Atomic             Coordinates (Angstroms)
 Number     Number       Type             X           Y           Z
 ---------------------------------------------------------------------
      1         12           0        6.443791   -1.074884   -0.054590
      2          6           0        7.221284    2.398479   -0.433364
      3          6           0        7.427841   -0.787423    3.199958
      4          6           0        6.197983   -4.227495    0.184660
      5          6           0        6.612390   -1.339602   -3.525491
      6          7           0        7.206347    0.641036    1.117918
      7          6           0        7.400982    1.932671    0.871004
      8          6           0        7.741154    2.760996    2.145969
      9          6           0        8.323462    1.590546    3.058636
     10          6           0        7.582779    0.414368    2.447147
     11          6           0        9.822801    1.370925    2.884709
     12          6           0        6.470156    3.410798    2.789437
     13          6           0        6.748653    4.493136    3.836499
     14          1           0        5.849134    5.633787    3.920925
     15          7           0        6.295548   -2.231019    1.540473
     16          6           0        6.735937   -1.947583    2.789876
     17          6           0        6.391199   -3.121961    3.619740
     18          6           0        5.885394   -4.188319    2.711370
     19          6           0        6.133883   -3.593298    1.423123
     20          6           0        6.506970   -3.136743    5.113101
     21          6           0        5.284611   -5.534932    2.964008
     22          8           0        5.128003   -6.395619    2.031664
     23          6           0        4.961440   -5.857622    4.365605
     24          7           0        6.624852   -2.622810   -1.443394
     25          6           0        6.412989   -3.895280   -1.089958
     26          6           0        6.319024   -4.787463   -2.292089
     27          6           0        6.268652   -3.817564   -3.559571
     28          6           0        6.434051   -2.463189   -2.827054
     29          6           0        7.461827   -5.797097   -2.467169
     30          6           0        5.073263   -3.990098   -4.529982
     31          6           0        3.790569   -3.579077   -3.842338
     32          7           0        6.667204    0.297428   -1.721290
     33          6           0        6.734314   -0.033171   -3.082493
     34          6           0        6.996410    1.217382   -3.818353
     35          6           0        7.080587    2.192312   -2.826249
     36          6           0        6.909673    1.584827   -1.549518
     37          6           0        7.182529    1.333748   -5.224146
     38          6           0        7.299677    3.602042   -2.546042
     39          8           0        7.408066    4.616698   -3.236128
     40          6           0        7.520856    3.772823   -0.978323
     41          6           0        6.656270    4.915157   -0.519115
     42          8           0        5.411777    4.825844   -0.544180
     43          8           0        7.420096    5.832161    0.094249
     44          6           0        6.619431    6.978860    0.600382
     45          1           0        7.929617   -0.873674    4.165734
     46          1           0        6.007338   -5.302345    0.212794
     47          1           0        6.593612   -1.331177   -4.616834
     48          1           0        8.499088    3.530664    1.999096
     49          1           0        8.043154    1.712444    4.104720
     50          1           0       10.220847    1.969975    2.065795
     51          1           0        9.938368    0.308315    2.670242
     52          1           0       10.351328    1.546637    3.822025
     53          1           0        5.966693    2.673234    3.414405
     54          1           0        5.811700    3.814787    2.019662
     55          1           0        7.786042    4.826756    3.798675
     56          1           0        6.643528    4.046782    4.825396
     57          1           0        7.062288   -2.274575    5.480298
     58          1           0        7.128805   -3.992326    5.375796
     59          1           0        5.535278   -3.225458    5.599182
     60          1           0        5.868874   -5.798483    4.966951
     61          1           0        4.458810   -6.823916    4.343504
     62          1           0        4.284794   -5.096945    4.756077
     63          1           0        5.409747   -5.386523   -2.264355
     64          1           0        7.146446   -3.930630   -4.196256
     65          1           0        7.126172   -6.832868   -2.523902
     66          1           0        8.163428   -5.657838   -1.645188
     67          1           0        8.101630   -5.618028   -3.330884
     68          1           0        4.963750   -5.036049   -4.814480
     69          1           0        5.174025   -3.406309   -5.445017
     70          1           0        3.510744   -4.476858   -3.292319
     71          1           0        3.029933   -3.319890   -4.579540
     72          1           0        3.966226   -2.790193   -3.110701
     73          1           0        6.615673    2.211148   -5.535290
     74          1           0        6.843178    0.438085   -5.743983
     75          1           0        8.263711    1.461565   -5.274797
     76          1           0        8.580995    3.977128   -0.831742
     77          1           0        7.047651    7.884170    0.169946
     78          1           0        6.606712    6.892284    1.687004
     79          1           0        5.592197    7.045764    0.240307
     80         12           0       -6.612464    1.094787    0.134252
     81          6           0       -6.996600   -2.473200    0.166006
     82          6           0       -5.816921    0.830030   -3.172049
     83          6           0       -5.829468    4.169258    0.178525
     84          6           0       -6.312758    0.954223    3.603558
     85          7           0       -6.460989   -0.650516   -1.216020
     86          6           0       -6.689735   -1.950628   -1.107639
     87          6           0       -6.662487   -2.722905   -2.453895
     88          6           0       -5.736791   -1.712998   -3.291759
     89          6           0       -6.045175   -0.419030   -2.541288
     90          6           0       -4.251458   -2.002896   -3.153606
     91          6           0       -8.088742   -2.859624   -3.093517
     92          6           0       -8.183581   -3.862812   -4.245196
     93          1           0       -9.411544   -4.639252   -4.392588
     94          7           0       -6.403286    2.388349   -1.356216
     95          6           0       -6.101520    2.107358   -2.641223
     96          6           0       -6.042848    3.404059   -3.333529
     97          6           0       -6.172103    4.484238   -2.318041
     98          6           0       -6.117902    3.705853   -1.096864
     99          6           0       -5.958101    3.525852   -4.827323
    100          6           0       -6.307562    5.972813   -2.427554
    101          8           0       -6.165777    6.738543   -1.409518
    102          6           0       -6.518386    6.514337   -3.778027
    103          7           0       -5.928843    2.354102    1.640604
    104          6           0       -5.715274    3.660652    1.405553
    105          6           0       -5.494589    4.417642    2.693439
    106          6           0       -5.845756    3.385895    3.863800
    107          6           0       -6.135468    2.128852    3.014498
    108          6           0       -4.085311    4.969410    2.907646
    109          6           0       -6.907994    3.836243    4.903761
    110          6           0       -8.264137    3.941101    4.244006
    111          7           0       -6.827034   -0.426266    1.653592
    112          6           0       -6.631534   -0.276524    3.044080
    113          6           0       -6.780012   -1.615080    3.651248
    114          6           0       -7.030813   -2.461193    2.560520
    115          6           0       -7.018088   -1.706730    1.356304
    116          6           0       -6.632853   -1.922650    5.033223
    117          6           0       -7.292883   -3.822773    2.152940
    118          8           0       -7.502655   -4.881327    2.743851
    119          6           0       -7.156987   -3.912026    0.571816
    120          6           0       -8.350824   -4.659813    0.044484
    121          8           0       -9.493270   -4.179164    0.146458
    122          8           0       -7.927209   -5.709913   -0.682295
    123          6           0       -9.075100   -6.476530   -1.235891
    124          1           0       -5.335170    0.836948   -4.150187
    125          1           0       -5.661309    5.245444    0.262337
    126          1           0       -6.330773    0.842708    4.689799
    127          1           0       -6.198484   -3.700813   -2.407295
    128          1           0       -6.064971   -1.641730   -4.325481
    129          1           0       -4.057285   -2.769543   -2.418291
    130          1           0       -3.795815   -1.067943   -2.854768
    131          1           0       -3.822976   -2.248620   -4.129491
    132          1           0       -8.330532   -1.933487   -3.630693
    133          1           0       -8.820357   -3.097441   -2.345975
    134          1           0       -7.305949   -4.518819   -4.293738
    135          1           0       -8.158728   -3.311677   -5.188413
    136          1           0       -5.711218    2.565163   -5.295868
    137          1           0       -5.096204    4.164952   -5.047645
    138          1           0       -6.852227    3.975176   -5.264694
    139          1           0       -5.689824    6.220876   -4.418194
    140          1           0       -6.680653    7.585267   -3.641407
    141          1           0       -7.420084    6.057752   -4.201211
    142          1           0       -6.162674    5.267395    2.761887
    143          1           0       -4.964626    3.152895    4.479555
    144          1           0       -4.065114    6.063452    3.071172
    145          1           0       -3.480151    4.701621    2.051713
    146          1           0       -3.533250    4.519128    3.730851
    147          1           0       -6.668893    4.833240    5.281889
    148          1           0       -6.980357    3.175435    5.761127
    149          1           0       -8.239141    4.933949    3.784962
    150          1           0       -9.057398    3.868863    4.985324
    151          1           0       -8.366712    3.207020    3.436382
    152          1           0       -7.441438   -2.593796    5.290634
    153          1           0       -6.651809   -1.023086    5.644951
    154          1           0       -5.645656   -2.392361    5.024454
    155          1           0       -6.221244   -4.427442    0.352006
    156          1           0       -8.954973   -7.513491   -0.907310
    157          1           0       -9.061794   -6.288802   -2.326000
    158          1           0      -10.062604   -6.246492   -0.853304
 ---------------------------------------------------------------------

 SCF Done:  E(RCAM-B3LYP) =  -4069.81177492     A.U. after   19 cycles

 Excitation energies and oscillator strengths:

 Excited State   1:      Singlet-A      1.6658 eV  744.31 nm  f=0.0111  <S**2>=0.000
     309 -> 315        0.10934
     310 -> 316        0.13218
     311 -> 313        0.43646
     312 -> 314        0.53004
 This state for optimization and/or second-order correction.
 Total Energy, E(TD-HF/TD-DFT) =  -4069.75055970
 Copying the excited state density for this state as the 1-particle RhoCI density.

 Excited State   2:      Singlet-A      1.6897 eV  733.75 nm  f=0.7321  <S**2>=0.000
     309 -> 315        0.13747
     310 -> 316       -0.11273
     311 -> 313        0.52885
     312 -> 314       -0.43556

 Excited State   3:      Singlet-A      2.1855 eV  567.30 nm  f=0.0389  <S**2>=0.000
     309 -> 313        0.20675
     310 -> 314        0.60906
     312 -> 316       -0.25775

 Excited State   4:      Singlet-A      2.1939 eV  565.13 nm  f=0.1498  <S**2>=0.000
     309 -> 313        0.60651
     310 -> 314       -0.20498
     311 -> 315       -0.26441

 Excited State   5:      Singlet-A      2.6505 eV  467.77 nm  f=0.0000  <S**2>=0.000
     312 -> 313        0.70710

 The electronic state is 1-A.
 Alpha  occ. eigenvalues --  -46.87852 -46.87552 -19.26320 -19.26272 -19.19081
 Alpha  occ. eigenvalues --  -19.19061 -19.18842 -19.18588 -19.18222 -19.17957
 Alpha  occ. eigenvalues --  -14.42503 -14.42389 -14.41509 -14.41253 -14.39455
 Alpha  occ. eigenvalues --  -14.39241 -14.38644 -14.38496 -10.39121 -10.39009
 Alpha  occ. eigenvalues --  -10.35473 -10.35263 -10.34441 -10.34136 -10.31706
 Alpha  occ. eigenvalues --  -10.31689 -10.31461 -10.31207 -10.30955 -10.30909
 Alpha  occ. eigenvalues --  -10.30627 -10.30564 -10.30293 -10.30266 -10.30260
 Alpha  occ. eigenvalues --  -10.30031 -10.29985 -10.29793 -10.29683 -10.29323
 Alpha  occ. eigenvalues --  -10.29306 -10.29296 -10.28791 -10.28617 -10.28576
 Alpha  occ. eigenvalues --  -10.28573 -10.28415 -10.28294 -10.28160 -10.28033
 Alpha  occ. eigenvalues --  -10.27895 -10.27846 -10.27780 -10.27632 -10.27583
 Alpha  occ. eigenvalues --  -10.27558 -10.27522 -10.27511 -10.27455 -10.27429
 Alpha  occ. eigenvalues --  -10.27377 -10.27355 -10.27329 -10.27275 -10.27205
 Alpha  occ. eigenvalues --  -10.26956 -10.26745 -10.26604 -10.26409 -10.26298
 Alpha  occ. eigenvalues --  -10.26275 -10.26274 -10.26083 -10.26071 -10.25921
 Alpha  occ. eigenvalues --  -10.25903 -10.25835 -10.25788 -10.25498 -10.25274
 Alpha  occ. eigenvalues --  -10.24887 -10.24843 -10.24826 -10.24770 -10.24666
 Alpha  occ. eigenvalues --  -10.24579  -3.16595  -3.16302  -1.91477  -1.91184
 Alpha  occ. eigenvalues --   -1.91064  -1.90906  -1.90773  -1.90610  -1.16670
 Alpha  occ. eigenvalues --   -1.16566  -1.08679  -1.08568  -1.07241  -1.06866
 Alpha  occ. eigenvalues --   -1.06838  -1.06683  -1.04633  -1.04387  -1.03817
 Alpha  occ. eigenvalues --   -1.03555  -1.03289  -1.02932  -1.02467  -1.02005
 Alpha  occ. eigenvalues --   -0.92024  -0.91885  -0.89594  -0.89398  -0.89233
 Alpha  occ. eigenvalues --   -0.89048  -0.88359  -0.88122  -0.87932  -0.87726
 Alpha  occ. eigenvalues --   -0.87703  -0.87579  -0.87312  -0.86998  -0.85028
 Alpha  occ. eigenvalues --   -0.84897  -0.84015  -0.83782  -0.83004  -0.82812
 Alpha  occ. eigenvalues --   -0.82691  -0.82545  -0.81633  -0.81507  -0.80644
 Alpha  occ. eigenvalues --   -0.80343  -0.78844  -0.78525  -0.77278  -0.77044
 Alpha  occ. eigenvalues --   -0.76986  -0.76804  -0.75970  -0.75738  -0.74962
 Alpha  occ. eigenvalues --   -0.74699  -0.72833  -0.72598  -0.71725  -0.71474
 Alpha  occ. eigenvalues --   -0.69997  -0.69671  -0.68919  -0.68725  -0.67691
 Alpha  occ. eigenvalues --   -0.67498  -0.67259  -0.67096  -0.65336  -0.65172
 Alpha  occ. eigenvalues --   -0.64908  -0.64675  -0.64671  -0.64556  -0.64339
 Alpha  occ. eigenvalues --   -0.64108  -0.62346  -0.62190  -0.60489  -0.60225
 Alpha  occ. eigenvalues --   -0.59852  -0.59693  -0.59044  -0.58890  -0.58558
 Alpha  occ. eigenvalues --   -0.58325  -0.57634  -0.57463  -0.57365  -0.57134
 Alpha  occ. eigenvalues --   -0.56361  -0.56104  -0.56020  -0.55795  -0.55563
 Alpha  occ. eigenvalues --   -0.55406  -0.55346  -0.55156  -0.54585  -0.54399
 Alpha  occ. eigenvalues --   -0.53940  -0.53810  -0.53351  -0.53262  -0.53126
 Alpha  occ. eigenvalues --   -0.53037  -0.52966  -0.52805  -0.52791  -0.52545
 Alpha  occ. eigenvalues --   -0.52532  -0.52322  -0.51982  -0.51807  -0.51656
 Alpha  occ. eigenvalues --   -0.51554  -0.51255  -0.51108  -0.50602  -0.50350
 Alpha  occ. eigenvalues --   -0.50104  -0.49957  -0.49869  -0.49762  -0.49555
 Alpha  occ. eigenvalues --   -0.49377  -0.49262  -0.49142  -0.49098  -0.49006
 Alpha  occ. eigenvalues --   -0.48644  -0.48520  -0.48481  -0.48461  -0.48277
 Alpha  occ. eigenvalues --   -0.48221  -0.47744  -0.47489  -0.47344  -0.47006
 Alpha  occ. eigenvalues --   -0.46859  -0.46611  -0.46599  -0.46451  -0.46416
 Alpha  occ. eigenvalues --   -0.46222  -0.46167  -0.45990  -0.45877  -0.45736
 Alpha  occ. eigenvalues --   -0.45267  -0.45100  -0.44632  -0.44553  -0.44421
 Alpha  occ. eigenvalues --   -0.44374  -0.44208  -0.44134  -0.44061  -0.44026
 Alpha  occ. eigenvalues --   -0.43978  -0.43829  -0.43546  -0.43466  -0.43439
 Alpha  occ. eigenvalues --   -0.43284  -0.43083  -0.42841  -0.42806  -0.42761
 Alpha  occ. eigenvalues --   -0.42716  -0.42455  -0.42081  -0.41874  -0.41758
 Alpha  occ. eigenvalues --   -0.41582  -0.41570  -0.41361  -0.41192  -0.40927
 Alpha  occ. eigenvalues --   -0.40883  -0.40854  -0.40640  -0.40618  -0.40587
 Alpha  occ. eigenvalues --   -0.40398  -0.40273  -0.40127  -0.39538  -0.39341
 Alpha  occ. eigenvalues --   -0.38538  -0.38252  -0.37793  -0.37559  -0.37387
 Alpha  occ. eigenvalues --   -0.37310  -0.37168  -0.37096  -0.36763  -0.36687
 Alpha  occ. eigenvalues --   -0.36248  -0.36121  -0.34342  -0.34150  -0.33814
 Alpha  occ. eigenvalues --   -0.33777  -0.33241  -0.33070  -0.31373  -0.31148
 Alpha  occ. eigenvalues --   -0.31088  -0.30865  -0.30081  -0.29864  -0.29497
 Alpha  occ. eigenvalues --   -0.29377  -0.29214  -0.29109  -0.24136  -0.23929
 Alpha  occ. eigenvalues --   -0.21183  -0.21010
 Alpha virt. eigenvalues --   -0.08826  -0.08683  -0.01804  -0.01575  -0.00098
 Alpha virt. eigenvalues --    0.00088   0.02145   0.02305   0.03053   0.03323
 Alpha virt. eigenvalues --    0.04667   0.04835   0.05056   0.05249   0.06136

 Mulliken charges:
               1
     1  Mg   0.838509
     2  C   -0.002873
     3  C   -0.094008
     4  C   -0.045877
     5  C   -0.064191
     6  N   -0.256758
     7  C   -0.052527
     8  C   -0.013996
     9  C   -0.087022
    10  C    0.046356
    11  C    0.104776
    12  C    0.053456
    13  C   -0.071885
    14  H    0.036256
    15  N   -0.433206
    16  C    0.168487
    17  C   -0.176955
    18  C   -0.003799
    19  C    0.148740
    20  C    0.110129
    21  C    0.012471
    22  O   -0.249434
    23  C    0.062377
    24  N   -0.341064
    25  C    0.041218
    26  C   -0.028236
    27  C   -0.023896
    28  C    0.074665
    29  C    0.076116
    30  C    0.035255
    31  C   -0.004408
    32  N   -0.310381
    33  C    0.080168
    34  C   -0.170133
    35  C    0.008346
    36  C    0.082807
    37  C    0.127410
    38  C    0.045971
    39  O   -0.188537
    40  C   -0.005268
    41  C    0.212879
    42  O   -0.257141
    43  O   -0.304800
    44  C    0.157596
    45  H   -0.017375
    46  H   -0.016701
    47  H   -0.041900
    48  H    0.001022
    49  H   -0.003916
    50  H    0.025516
    51  H    0.016469
    52  H    0.016824
    53  H    0.011135
    54  H    0.044126
    55  H    0.017959
    56  H    0.017963
    57  H    0.005924
    58  H    0.027084
    59  H    0.039893
    60  H    0.037357
    61  H    0.036275
    62  H    0.031752
    63  H    0.016486
    64  H    0.009500
    65  H    0.023337
    66  H    0.012777
    67  H    0.004744
    68  H    0.006317
    69  H    0.004372
    70  H    0.008978
    71  H    0.016697
    72  H    0.029220
    73  H    0.047174
    74  H    0.008664
    75  H    0.046123
    76  H    0.035236
    77  H    0.043046
    78  H    0.046460
    79  H    0.053870
    80  Mg   0.838018
    81  C   -0.016835
    82  C   -0.087506
    83  C   -0.044940
    84  C   -0.065011
    85  N   -0.254577
    86  C   -0.049933
    87  C   -0.015080
    88  C   -0.090543
    89  C    0.045796
    90  C    0.114241
    91  C    0.062550
    92  C   -0.077761
    93  H    0.034558
    94  N   -0.423673
    95  C    0.163064
    96  C   -0.173875
    97  C   -0.007383
    98  C    0.152272
    99  C    0.099043
   100  C    0.015980
   101  O   -0.253018
   102  C    0.061120
   103  N   -0.349959
   104  C    0.037750
   105  C   -0.019977
   106  C   -0.034559
   107  C    0.088800
   108  C    0.073453
   109  C    0.034845
   110  C   -0.007614
   111  N   -0.324003
   112  C    0.078304
   113  C   -0.163514
   114  C    0.002132
   115  C    0.096056
   116  C    0.131525
   117  C    0.042146
   118  O   -0.188376
   119  C    0.000948
   120  C    0.211198
   121  O   -0.251171
   122  O   -0.305559
   123  C    0.152115
   124  H   -0.019208
   125  H   -0.015280
   126  H   -0.041072
   127  H   -0.000714
   128  H   -0.004480
   129  H    0.022565
   130  H    0.015272
   131  H    0.016055
   132  H    0.013873
   133  H    0.037549
   134  H    0.020733
   135  H    0.019537
   136  H    0.008788
   137  H    0.027336
   138  H    0.039614
   139  H    0.039012
   140  H    0.036389
   141  H    0.033523
   142  H    0.014204
   143  H    0.011946
   144  H    0.024964
   145  H    0.013226
   146  H    0.005212
   147  H    0.005950
   148  H    0.003173
   149  H    0.010948
   150  H    0.017572
   151  H    0.030269
   152  H    0.045690
   153  H    0.008098
   154  H    0.046433
   155  H    0.035134
   156  H    0.043766
   157  H    0.049461
   158  H    0.053414
 Sum of Mulliken charges =  -0.00000

 Dipole moment (field-independent basis, Debye):
    X=              4.0742    Y=             -0.3501    Z=              0.1465  Tot=              4.0918
 Quadrupole moment (field-independent basis, Debye-Ang):
   XX=           -522.4559   YY=           -549.1482   ZZ=           -447.7739
   XY=            -21.8569   XZ=             61.8852   YZ=             44.4477

 Normal termination of Gaussian 16 at Sat Sep  4 08:03:34 2021.
