 Gaussian 16, Revision A.03,
 Gaussian 16:  ES64L-G16RevA.03 25-Dec-2016

 -----------------------------------
 #p cam-b3lyp/Def2SVP td=(nstates=5)
 -----------------------------------

 --------------------------------
 TDDFT excited states in gaussian
 --------------------------------
 Symbolic Z-matrix:
 Charge =  0 Multiplicity = 1

                         Standard orientation:
 ---------------------------------------------------------------------
 Center     Atomic      Atomic             Coordinates (Angstroms)
 Number     Number       Type             X           Y           Z
 ---------------------------------------------------------------------
      1         12           0       -5.223587   -0.681080    0.077093
      2          6           0       -5.360082    2.868497    0.517646
      3          6           0       -6.088588   -0.160266   -3.182292
      4          6           0       -5.553415   -3.820724   -0.223694
      5          6           0       -5.490925   -0.972834    3.539617
      6          7           0       -5.642201    1.166055   -1.068987
      7          6           0       -5.601695    2.466863   -0.798013
      8          6           0       -5.765424    3.366159   -2.059692
      9          6           0       -6.537409    2.338380   -3.002936
     10          6           0       -6.033214    1.035887   -2.406931
     11          6           0       -8.054143    2.393299   -2.851269
     12          6           0       -4.387480    3.784262   -2.674665
     13          6           0       -4.447733    4.917891   -3.702579
     14          1           0       -3.354025    5.876331   -3.753011
     15          7           0       -5.264280   -1.816003   -1.539429
     16          6           0       -5.626331   -1.434485   -2.787888
     17          6           0       -5.488929   -2.636983   -3.637476
     18          6           0       -5.200164   -3.793943   -2.745203
     19          6           0       -5.355680   -3.186773   -1.448077
     20          6           0       -5.582510   -2.603541   -5.132091
     21          6           0       -4.851330   -5.222896   -3.018225
     22          8           0       -4.868707   -6.114313   -2.101902
     23          6           0       -4.570972   -5.573972   -4.422215
     24          7           0       -5.705311   -2.194562    1.431697
     25          6           0       -5.723749   -3.477765    1.054825
     26          6           0       -5.812598   -4.393544    2.239475
     27          6           0       -5.605593   -3.472096    3.527045
     28          6           0       -5.509860   -2.097364    2.820491
     29          6           0       -7.122968   -5.180372    2.380343
     30          6           0       -4.476787   -3.877524    4.507781
     31          6           0       -3.130229   -3.695488    3.843896
     32          7           0       -5.218454    0.678792    1.768768
     33          6           0       -5.365644    0.341625    3.122034
     34          6           0       -5.406461    1.605593    3.880180
     35          6           0       -5.296117    2.597151    2.907307
     36          6           0       -5.219317    1.991695    1.620522
     37          6           0       -5.589790    1.728737    5.285762
     38          6           0       -5.250015    4.027983    2.653435
     39          8           0       -5.182056    5.032803    3.362809
     40          6           0       -5.412226    4.264427    1.087035
     41          6           0       -4.346798    5.237634    0.661546
     42          8           0       -3.140019    4.922019    0.699482
     43          8           0       -4.921000    6.289620    0.058091
     44          6           0       -3.916896    7.279639   -0.414976
     45          1           0       -6.582788   -0.136031   -4.155493
     46          1           0       -5.561652   -4.911631   -0.271560
     47          1           0       -5.487684   -0.987584    4.631049
     48          1           0       -6.372385    4.258583   -1.906068
     49          1           0       -6.223538    2.425783   -4.042920
     50          1           0       -8.348747    3.040183   -2.025029
     51          1           0       -8.364910    1.366011   -2.659971
     52          1           0       -8.527288    2.679422   -3.790973
     53          1           0       -4.017490    2.978474   -3.308601
     54          1           0       -3.678270    4.047259   -1.889057
     55          1           0       -5.407304    5.434694   -3.670198
     56          1           0       -4.410633    4.477678   -4.699091
     57          1           0       -5.965511   -1.647974   -5.488106
     58          1           0       -6.345891   -3.326255   -5.419567
     59          1           0       -4.635963   -2.859548   -5.608369
     60          1           0       -5.443045   -5.339250   -5.032905
     61          1           0       -4.253465   -6.616071   -4.413952
     62          1           0       -3.760990   -4.942834   -4.789017
     63          1           0       -5.027556   -5.148050    2.210237
     64          1           0       -6.498954   -3.434302    4.150865
     65          1           0       -6.982821   -6.260883    2.419832
     66          1           0       -7.774684   -4.900534    1.553150
     67          1           0       -7.732551   -4.902966    3.239920
     68          1           0       -4.564314   -4.930817    4.772091
     69          1           0       -4.483390   -3.301682    5.433315
     70          1           0       -3.010477   -4.619256    3.278968
     71          1           0       -2.346484   -3.592915    4.595184
     72          1           0       -3.147761   -2.874779    3.126530
     73          1           0       -4.877222    2.482072    5.621471
     74          1           0       -5.427559    0.776960    5.791137
     75          1           0       -6.630156    2.051005    5.326238
     76          1           0       -6.414923    4.661582    0.932147
     77          1           0       -4.179324    8.240069    0.028804
     78          1           0       -3.903502    7.211726   -1.502916
     79          1           0       -2.900348    7.151262   -0.041493
     80         12           0        5.365395   -0.875970    0.071842
     81          6           0        5.226028    2.710031    0.058301
     82          6           0        4.490694   -0.773492   -3.223459
     83          6           0        5.039428   -4.030807    0.162652
     84          6           0        5.100027   -0.734705    3.543921
     85          7           0        4.941197    0.810723   -1.294676
     86          6           0        4.979664    2.131597   -1.204295
     87          6           0        4.820178    2.873839   -2.558251
     88          6           0        4.039137    1.729010   -3.369548
     89          6           0        4.543880    0.503707   -2.610241
     90          6           0        2.529635    1.801499   -3.209869
     91          6           0        6.201624    3.208157   -3.222964
     92          6           0        6.132157    4.199174   -4.386943
     93          1           0        7.231571    5.144006   -4.563187
     94          7           0        5.324772   -2.205790   -1.400746
     95          6           0        4.966202   -1.988693   -2.683549
     96          6           0        5.086799   -3.289167   -3.360600
     97          6           0        5.387137   -4.325533   -2.335675
     98          6           0        5.238266   -3.547255   -1.122332
     99          6           0        4.998489   -3.441706   -4.851351
    100          6           0        5.736366   -5.779875   -2.431181
    101          8           0        5.722819   -6.544561   -1.402649
    102          6           0        6.003740   -6.302746   -3.779002
    103          7           0        4.895014   -2.201359    1.603005
    104          6           0        4.870603   -3.528061    1.385796
    105          6           0        4.781739   -4.292026    2.685354
    106          6           0        4.996206   -3.204789    3.838393
    107          6           0        5.087024   -1.930303    2.970736
    108          6           0        3.471230   -5.040087    2.928976
    109          6           0        6.128070   -3.482013    4.865383
    110          6           0        7.475049   -3.397137    4.184347
    111          7           0        5.378635    0.680039    1.570732
    112          6           0        5.227729    0.521829    2.965823
    113          6           0        5.188617    1.875652    3.555809
    114          6           0        5.297221    2.734765    2.451891
    115          6           0        5.376655    1.970641    1.256363
    116          6           0        5.018786    2.176762    4.936605
    117          6           0        5.352039    4.114480    2.025193
    118          8           0        5.414111    5.200007    2.600951
    119          6           0        5.181095    4.162116    0.445666
    120          6           0        6.245272    5.068619   -0.109577
    121          8           0        7.446937    4.760712   -0.021382
    122          8           0        5.662422    6.036215   -0.840612
    123          6           0        6.678014    6.954312   -1.421553
    124          1           0        4.000598   -0.863358   -4.193310
    125          1           0        5.031109   -5.118804    0.260985
    126          1           0        5.117757   -0.607416    4.628431
    127          1           0        4.219395    3.774347   -2.514614
    128          1           0        4.358793    1.692599   -4.407748
    129          1           0        2.236801    2.541373   -2.479826
    130          1           0        2.219570    0.814228   -2.893314
    131          1           0        2.055466    1.969345   -4.181112
    132          1           0        6.567756    2.320047   -3.753951
    133          1           0        6.901821    3.559748   -2.490340
    134          1           0        5.167688    4.719801   -4.428013
    135          1           0        6.173843    3.637875   -5.323543
    136          1           0        4.607343   -2.533445   -5.326180
    137          1           0        4.235724   -4.202277   -5.050327
    138          1           0        5.941942   -3.761892   -5.298617
    139          1           0        5.131828   -6.141448   -4.408458
    140          1           0        6.322315   -7.336771   -3.633429
    141          1           0        6.822902   -5.725455   -4.222079
    142          1           0        5.567439   -5.034556    2.751947
    143          1           0        4.099779   -3.094367    4.466134
    144          1           0        3.613073   -6.123176    3.104737
    145          1           0        2.820856   -4.874544    2.080368
    146          1           0        2.871762   -4.664092    3.756302
    147          1           0        6.042412   -4.498103    5.258287
    148          1           0        6.116124   -2.806443    5.714178
    149          1           0        7.588151   -4.389030    3.736639
    150          1           0        8.260264   -3.200459    4.911536
    151          1           0        7.457563   -2.666683    3.367167
    152          1           0        5.724701    2.961758    5.173196
    153          1           0        5.177691    1.297692    5.557707
    154          1           0        3.973673    2.497681    4.939135
    155          1           0        4.177079    4.532952    0.235851
    156          1           0        6.412995    7.967013   -1.102345
    157          1           0        6.676001    6.752270   -2.509177
    158          1           0        7.694073    6.875483   -1.052962
 ---------------------------------------------------------------------

 SCF Done:  E(RCAM-B3LYP) =  -4069.81138372     A.U. after   19 cycles

 Excitation energies and oscillator strengths:

 Excited State   1:      Singlet-A      1.6569 eV  748.27 nm  f=0.0062  <S**2>=0.000
     309 -> 315       -0.11392
     310 -> 316        0.12501
     311 -> 313       -0.46100
     312 -> 314        0.50954
 This state for optimization and/or second-order correction.
 Total Energy, E(TD-HF/TD-DFT) =  -4069.75049205
 Copying the excited state density for this state as the 1-particle RhoCI density.

 Excited State   2:      Singlet-A      1.6967 eV  730.73 nm  f=0.7133  <S**2>=0.000
     309 -> 315        0.13355
     310 -> 316        0.12006
     311 -> 313        0.50762
     312 -> 314        0.45936

 Excited State   3:      Singlet-A      2.1829 eV  567.97 nm  f=0.0215  <S**2>=0.000
     309 -> 313       -0.28186
     310 -> 314        0.57893
     311 -> 315        0.11774
     312 -> 316       -0.24347

 Excited State   4:      Singlet-A      2.1944 eV  565.01 nm  f=0.1602  <S**2>=0.000
     309 -> 313        0.57541
     310 -> 314        0.27872
     311 -> 315       -0.25225
     312 -> 316       -0.12317

 Excited State   5:      Singlet-A      2.4847 eV  498.99 nm  f=0.0000  <S**2>=0.000
     312 -> 313        0.70710

 The electronic state is 1-A.
 Alpha  occ. eigenvalues --  -46.87876 -46.87488 -19.26319 -19.26181 -19.19059
 Alpha  occ. eigenvalues --  -19.18990 -19.18891 -19.18571 -19.18216 -19.17837
 Alpha  occ. eigenvalues --  -14.42533 -14.42328 -14.41526 -14.41190 -14.39483
 Alpha  occ. eigenvalues --  -14.39184 -14.38661 -14.38418 -10.39121 -10.38913
 Alpha  occ. eigenvalues --  -10.35526 -10.35252 -10.34437 -10.34012 -10.31701
 Alpha  occ. eigenvalues --  -10.31618 -10.31485 -10.31131 -10.30997 -10.30862
 Alpha  occ. eigenvalues --  -10.30646 -10.30579 -10.30288 -10.30218 -10.30180
 Alpha  occ. eigenvalues --  -10.29990 -10.29988 -10.29717 -10.29705 -10.29335
 Alpha  occ. eigenvalues --  -10.29275 -10.29227 -10.28853 -10.28687 -10.28566
 Alpha  occ. eigenvalues --  -10.28562 -10.28441 -10.28228 -10.28214 -10.27984
 Alpha  occ. eigenvalues --  -10.27865 -10.27821 -10.27812 -10.27663 -10.27597
 Alpha  occ. eigenvalues --  -10.27572 -10.27512 -10.27510 -10.27479 -10.27380
 Alpha  occ. eigenvalues --  -10.27367 -10.27307 -10.27300 -10.27230 -10.27212
 Alpha  occ. eigenvalues --  -10.26843 -10.26829 -10.26570 -10.26509 -10.26319
 Alpha  occ. eigenvalues --  -10.26310 -10.26260 -10.26096 -10.26019 -10.25891
 Alpha  occ. eigenvalues --  -10.25842 -10.25769 -10.25623 -10.25489 -10.25255
 Alpha  occ. eigenvalues --  -10.24901 -10.24860 -10.24774 -10.24683 -10.24616
 Alpha  occ. eigenvalues --  -10.24519  -3.16619  -3.16238  -1.91500  -1.91120
 Alpha  occ. eigenvalues --   -1.91087  -1.90929  -1.90709  -1.90546  -1.16669
 Alpha  occ. eigenvalues --   -1.16474  -1.08670  -1.08440  -1.07291  -1.06826
 Alpha  occ. eigenvalues --   -1.06773  -1.06681  -1.04664  -1.04324  -1.03838
 Alpha  occ. eigenvalues --   -1.03493  -1.03310  -1.02867  -1.02487  -1.01937
 Alpha  occ. eigenvalues --   -0.92042  -0.91800  -0.89593  -0.89337  -0.89288
 Alpha  occ. eigenvalues --   -0.88996  -0.88359  -0.88069  -0.87937  -0.87760
 Alpha  occ. eigenvalues --   -0.87600  -0.87523  -0.87362  -0.86977  -0.85078
 Alpha  occ. eigenvalues --   -0.84848  -0.84005  -0.83728  -0.83054  -0.82800
 Alpha  occ. eigenvalues --   -0.82734  -0.82503  -0.81645  -0.81428  -0.80668
 Alpha  occ. eigenvalues --   -0.80279  -0.78880  -0.78476  -0.77303  -0.77015
 Alpha  occ. eigenvalues --   -0.76991  -0.76745  -0.75998  -0.75673  -0.74965
 Alpha  occ. eigenvalues --   -0.74649  -0.72849  -0.72526  -0.71746  -0.71414
 Alpha  occ. eigenvalues --   -0.69982  -0.69619  -0.68964  -0.68675  -0.67715
 Alpha  occ. eigenvalues --   -0.67437  -0.67326  -0.67064  -0.65377  -0.65113
 Alpha  occ. eigenvalues --   -0.64924  -0.64696  -0.64605  -0.64494  -0.64342
 Alpha  occ. eigenvalues --   -0.64050  -0.62350  -0.62113  -0.60524  -0.60189
 Alpha  occ. eigenvalues --   -0.59895  -0.59633  -0.59060  -0.58824  -0.58575
 Alpha  occ. eigenvalues --   -0.58256  -0.57640  -0.57377  -0.57359  -0.57073
 Alpha  occ. eigenvalues --   -0.56384  -0.56037  -0.56037  -0.55729  -0.55598
 Alpha  occ. eigenvalues --   -0.55401  -0.55297  -0.55088  -0.54581  -0.54333
 Alpha  occ. eigenvalues --   -0.53994  -0.53761  -0.53376  -0.53309  -0.53070
 Alpha  occ. eigenvalues --   -0.52987  -0.52983  -0.52850  -0.52746  -0.52536
 Alpha  occ. eigenvalues --   -0.52512  -0.52266  -0.51972  -0.51712  -0.51673
 Alpha  occ. eigenvalues --   -0.51513  -0.51264  -0.51029  -0.50672  -0.50353
 Alpha  occ. eigenvalues --   -0.50111  -0.50005  -0.49832  -0.49721  -0.49601
 Alpha  occ. eigenvalues --   -0.49338  -0.49287  -0.49179  -0.49035  -0.48930
 Alpha  occ. eigenvalues --   -0.48658  -0.48535  -0.48509  -0.48390  -0.48221
 Alpha  occ. eigenvalues --   -0.48186  -0.47776  -0.47446  -0.47373  -0.46973
 Alpha  occ. eigenvalues --   -0.46876  -0.46651  -0.46553  -0.46432  -0.46408
 Alpha  occ. eigenvalues --   -0.46226  -0.46113  -0.45913  -0.45880  -0.45642
 Alpha  occ. eigenvalues --   -0.45271  -0.45053  -0.44641  -0.44597  -0.44350
 Alpha  occ. eigenvalues --   -0.44319  -0.44222  -0.44179  -0.44088  -0.43963
 Alpha  occ. eigenvalues --   -0.43930  -0.43780  -0.43552  -0.43471  -0.43392
 Alpha  occ. eigenvalues --   -0.43224  -0.43098  -0.42767  -0.42759  -0.42725
 Alpha  occ. eigenvalues --   -0.42710  -0.42408  -0.42088  -0.41818  -0.41774
 Alpha  occ. eigenvalues --   -0.41630  -0.41487  -0.41312  -0.41218  -0.40962
 Alpha  occ. eigenvalues --   -0.40912  -0.40825  -0.40645  -0.40586  -0.40557
 Alpha  occ. eigenvalues --   -0.40354  -0.40342  -0.40097  -0.39519  -0.39290
 Alpha  occ. eigenvalues --   -0.38547  -0.38204  -0.37858  -0.37519  -0.37397
 Alpha  occ. eigenvalues --   -0.37357  -0.37111  -0.37041  -0.36763  -0.36609
 Alpha  occ. eigenvalues --   -0.36257  -0.36060  -0.34362  -0.34081  -0.33816
 Alpha  occ. eigenvalues --   -0.33690  -0.33259  -0.33005  -0.31420  -0.31130
 Alpha  occ. eigenvalues --   -0.31111  -0.30802  -0.30075  -0.29739  -0.29527
 Alpha  occ. eigenvalues --   -0.29390  -0.29161  -0.29018  -0.24157  -0.23860
 Alpha  occ. eigenvalues --   -0.21206  -0.20946
 Alpha virt. eigenvalues --   -0.08851  -0.08618  -0.01827  -0.01517  -0.00138
 Alpha virt. eigenvalues --    0.00131   0.02139   0.02403   0.03021   0.03385
 Alpha virt. eigenvalues --    0.04626   0.04889   0.05054   0.05343   0.06065

 Mulliken charges:
               1
     1  Mg   0.838572
     2  C   -0.003048
     3  C   -0.094781
     4  C   -0.045647
     5  C   -0.063908
     6  N   -0.256729
     7  C   -0.052655
     8  C   -0.013855
     9  C   -0.086897
    10  C    0.046069
    11  C    0.104804
    12  C    0.053738
    13  C   -0.071528
    14  H    0.035461
    15  N   -0.433121
    16  C    0.168171
    17  C   -0.177640
    18  C   -0.004064
    19  C    0.148688
    20  C    0.110289
    21  C    0.012398
    22  O   -0.249106
    23  C    0.062614
    24  N   -0.341100
    25  C    0.041144
    26  C   -0.028272
    27  C   -0.023997
    28  C    0.074879
    29  C    0.076090
    30  C    0.035117
    31  C   -0.004499
    32  N   -0.310575
    33  C    0.080551
    34  C   -0.169474
    35  C    0.008683
    36  C    0.083095
    37  C    0.127219
    38  C    0.046498
    39  O   -0.187475
    40  C   -0.005500
    41  C    0.213157
    42  O   -0.257024
    43  O   -0.304892
    44  C    0.157289
    45  H   -0.017768
    46  H   -0.016588
    47  H   -0.041326
    48  H    0.001280
    49  H   -0.004581
    50  H    0.025703
    51  H    0.016598
    52  H    0.016620
    53  H    0.010047
    54  H    0.044013
    55  H    0.018509
    56  H    0.017277
    57  H    0.005584
    58  H    0.027023
    59  H    0.038369
    60  H    0.037317
    61  H    0.035974
    62  H    0.030474
    63  H    0.016794
    64  H    0.009651
    65  H    0.023440
    66  H    0.012572
    67  H    0.004850
    68  H    0.006547
    69  H    0.004703
    70  H    0.009222
    71  H    0.017185
    72  H    0.029173
    73  H    0.048144
    74  H    0.009058
    75  H    0.046235
    76  H    0.035282
    77  H    0.043613
    78  H    0.045734
    79  H    0.054531
    80  Mg   0.838096
    81  C   -0.016311
    82  C   -0.088006
    83  C   -0.045439
    84  C   -0.064657
    85  N   -0.254506
    86  C   -0.049008
    87  C   -0.015134
    88  C   -0.090754
    89  C    0.045974
    90  C    0.114192
    91  C    0.062634
    92  C   -0.077450
    93  H    0.034370
    94  N   -0.423403
    95  C    0.162795
    96  C   -0.175210
    97  C   -0.007972
    98  C    0.151869
    99  C    0.099686
   100  C    0.015404
   101  O   -0.253344
   102  C    0.061335
   103  N   -0.349943
   104  C    0.037385
   105  C   -0.019737
   106  C   -0.034828
   107  C    0.089174
   108  C    0.073768
   109  C    0.034776
   110  C   -0.007586
   111  N   -0.324433
   112  C    0.078969
   113  C   -0.162342
   114  C    0.003343
   115  C    0.096235
   116  C    0.131037
   117  C    0.043714
   118  O   -0.187000
   119  C    0.000287
   120  C    0.210950
   121  O   -0.251518
   122  O   -0.305207
   123  C    0.152215
   124  H   -0.020935
   125  H   -0.015790
   126  H   -0.040483
   127  H   -0.000046
   128  H   -0.005443
   129  H    0.025817
   130  H    0.014298
   131  H    0.014059
   132  H    0.013607
   133  H    0.037688
   134  H    0.020534
   135  H    0.018959
   136  H    0.007871
   137  H    0.025163
   138  H    0.039246
   139  H    0.037813
   140  H    0.036068
   141  H    0.033571
   142  H    0.014052
   143  H    0.012247
   144  H    0.024729
   145  H    0.012401
   146  H    0.005007
   147  H    0.005836
   148  H    0.003570
   149  H    0.010768
   150  H    0.017661
   151  H    0.030284
   152  H    0.045756
   153  H    0.007841
   154  H    0.049540
   155  H    0.037885
   156  H    0.043802
   157  H    0.048909
   158  H    0.053294
 Sum of Mulliken charges =  -0.00000

 Dipole moment (field-independent basis, Debye):
    X=             -4.1500    Y=             -2.0963    Z=             -7.3994  Tot=              8.7389
 Quadrupole moment (field-independent basis, Debye-Ang):
   XX=           -518.3075   YY=           -550.9372   ZZ=           -448.3899
   XY=             -7.6551   XZ=              0.3617   YZ=            -47.8796

 Normal termination of Gaussian 16 at Sat Sep  4 05:35:56 2021.
