 Gaussian 16, Revision A.03,
 Gaussian 16:  ES64L-G16RevA.03 25-Dec-2016

 -----------------------------------
 #p cam-b3lyp/Def2SVP td=(nstates=5)
 -----------------------------------

 --------------------------------
 TDDFT excited states in gaussian
 --------------------------------
 Symbolic Z-matrix:
 Charge =  0 Multiplicity = 1

                         Standard orientation:
 ---------------------------------------------------------------------
 Center     Atomic      Atomic             Coordinates (Angstroms)
 Number     Number       Type             X           Y           Z
 ---------------------------------------------------------------------
      1         12           0        5.088769   -1.161302    0.238272
      2          6           0        5.876533    1.755553   -1.680998
      3          6           0        6.418526    0.440460    2.941820
      4          6           0        4.819818   -3.881715    1.845643
      5          6           0        4.882252   -2.905661   -2.771749
      6          7           0        5.999105    0.842704    0.474690
      7          6           0        6.186806    1.887409   -0.325642
      8          6           0        6.674041    3.162026    0.426242
      9          6           0        7.331639    2.466268    1.701187
     10          6           0        6.511415    1.188661    1.730788
     11          6           0        8.800223    2.102743    1.507241
     12          6           0        5.489346    4.101376    0.833487
     13          6           0        5.895008    5.510210    1.276182
     14          1           0        5.027843    6.628061    0.935917
     15          7           0        5.093028   -1.505828    2.183557
     16          6           0        5.668516   -0.738882    3.140580
     17          6           0        5.395579   -1.417696    4.425648
     18          6           0        4.778968   -2.738602    4.120535
     19          6           0        4.898160   -2.773116    2.685272
     20          6           0        5.669605   -0.794445    5.759896
     21          6           0        4.187221   -3.805732    4.986099
     22          8           0        3.918485   -4.972952    4.538938
     23          6           0        4.010189   -3.472655    6.411147
     24          7           0        5.096170   -3.164440   -0.349110
     25          6           0        4.902999   -4.144940    0.539872
     26          6           0        4.667287   -5.460579   -0.140917
     27          6           0        4.497524   -5.130522   -1.693977
     28          6           0        4.761544   -3.605466   -1.641364
     29          6           0        5.768738   -6.514278    0.039456
     30          6           0        3.202929   -5.631643   -2.381960
     31          6           0        2.007521   -4.887530   -1.830242
     32          7           0        5.155041   -0.657570   -1.871919
     33          6           0        5.071431   -1.545907   -2.953835
     34          6           0        5.273436   -0.752991   -4.180435
     35          6           0        5.478346    0.547228   -3.722956
     36          6           0        5.434853    0.560858   -2.299505
     37          6           0        5.310490   -1.265335   -5.507298
     38          6           0        5.748417    1.923943   -4.104497
     39          8           0        5.798741    2.533511   -5.173790
     40          6           0        6.138108    2.739922   -2.793716
     41          6           0        5.345643    4.018687   -2.802000
     42          8           0        4.104307    4.002871   -2.674716
     43          8           0        6.184959    5.062356   -2.719267
     44          6           0        5.461114    6.361401   -2.693098
     45          1           0        7.018942    0.748613    3.800005
     46          1           0        4.616208   -4.825766    2.355298
     47          1           0        4.747401   -3.367259   -3.751644
     48          1           0        7.424132    3.745771   -0.107638
     49          1           0        7.166392    3.043817    2.610501
     50          1           0        9.118186    2.265058    0.477448
     51          1           0        8.875381    1.046609    1.766903
     52          1           0        9.428362    2.632866    2.223613
     53          1           0        5.043708    3.737157    1.759128
     54          1           0        4.759097    4.173255    0.026705
     55          1           0        6.927625    5.731430    1.004752
     56          1           0        5.888803    5.540882    2.365779
     57          1           0        6.274519    0.106399    5.664478
     58          1           0        6.302228   -1.489221    6.311968
     59          1           0        4.753968   -0.605969    6.320625
     60          1           0        4.977370   -3.215233    6.843402
     61          1           0        3.492782   -4.321718    6.856379
     62          1           0        3.391181   -2.578518    6.490508
     63          1           0        3.756745   -5.932895    0.225496
     64          1           0        5.300553   -5.559884   -2.293533
     65          1           0        5.412540   -7.450934    0.468994
     66          1           0        6.556074   -6.077166    0.652911
     67          1           0        6.315606   -6.764042   -0.869373
     68          1           0        3.047119   -6.689323   -2.172238
     69          1           0        3.214852   -5.506482   -3.464754
     70          1           0        1.773687   -5.441847   -0.922009
     71          1           0        1.176860   -4.925793   -2.535755
     72          1           0        2.272664   -3.872607   -1.533397
     73          1           0        4.727708   -0.575126   -6.117172
     74          1           0        4.903483   -2.275201   -5.553332
     75          1           0        6.382008   -1.237587   -5.704620
     76          1           0        7.210942    2.922808   -2.845696
     77          1           0        5.855344    6.965042   -3.510677
     78          1           0        5.562907    6.752511   -1.680638
     79          1           0        4.402547    6.328694   -2.953303
     80         12           0       -5.252048    1.105207    0.546327
     81          6           0       -5.778329   -2.028716   -1.121210
     82          6           0       -4.173564    2.344292   -2.443009
     83          6           0       -4.355193    3.737609    2.073912
     84          6           0       -5.271265   -0.651536    3.556173
     85          7           0       -5.048954    0.179770   -1.452323
     86          6           0       -5.337762   -1.000251   -1.980033
     87          6           0       -5.220162   -1.059277   -3.526730
     88          6           0       -4.183661    0.149431   -3.735388
     89          6           0       -4.506842    0.966917   -2.486414
     90          6           0       -2.729403   -0.284864   -3.658903
     91          6           0       -6.587426   -0.773352   -4.241470
     92          6           0       -6.617945   -1.117035   -5.732347
     93          1           0       -7.857432   -1.639317   -6.301001
     94          7           0       -4.858703    2.922191   -0.148223
     95          6           0       -4.453977    3.247167   -1.393961
     96          6           0       -4.282058    4.708204   -1.392806
     97          6           0       -4.459259    5.200271    0.000458
     98          6           0       -4.545900    3.942592    0.715177
     99          6           0       -4.058594    5.502212   -2.647017
    100          6           0       -4.525318    6.575181    0.593286
    101          8           0       -4.445461    6.767693    1.857965
    102          6           0       -4.592291    7.695872   -0.355943
    103          7           0       -4.657351    1.465039    2.505711
    104          6           0       -4.371989    2.710676    2.923884
    105          6           0       -4.238211    2.764200    4.427089
    106          6           0       -4.733722    1.337717    4.953574
    107          6           0       -4.995410    0.644719    3.598336
    108          6           0       -2.833185    3.043240    4.960397
    109          6           0       -5.866516    1.334444    6.016333
    110          6           0       -7.152634    1.837497    5.401333
    111          7           0       -5.662352   -0.925530    1.159392
    112          6           0       -5.586887   -1.453565    2.466894
    113          6           0       -5.842192   -2.905107    2.365627
    114          6           0       -6.027179   -3.126439    0.992570
    115          6           0       -5.876416   -1.902896    0.285668
    116          6           0       -5.832162   -3.829048    3.448379
    117          6           0       -6.305204   -4.118763   -0.020692
    118          8           0       -6.608970   -5.310945   -0.008814
    119          6           0       -6.031339   -3.474409   -1.447649
    120          6           0       -7.201575   -3.797757   -2.335631
    121          8           0       -8.328660   -3.332927   -2.090185
    122          8           0       -6.756213   -4.419901   -3.442411
    123          6           0       -7.879114   -4.751202   -4.359568
    124          1           0       -3.605928    2.767118   -3.272406
    125          1           0       -4.152807    4.635507    2.662374
    126          1           0       -5.391267   -1.252534    4.460103
    127          1           0       -4.801275   -1.979630   -3.915650
    128          1           0       -4.414500    0.717205   -4.632998
    129          1           0       -2.632601   -1.317547   -3.358309
    130          1           0       -2.265836    0.366497   -2.929593
    131          1           0       -2.224968   -0.081942   -4.607949
    132          1           0       -6.743111    0.311812   -4.295592
    133          1           0       -7.392108   -1.273721   -3.738753
    134          1           0       -5.766142   -1.741027   -6.029025
    135          1           0       -6.486602   -0.194957   -6.303789
    136          1           0       -3.808789    4.852788   -3.495095
    137          1           0       -3.155770    6.102086   -2.489104
    138          1           0       -4.891299    6.170517   -2.876430
    139          1           0       -3.721778    7.670105   -1.007105
    140          1           0       -4.723685    8.590077    0.256443
    141          1           0       -5.469642    7.558709   -0.997853
    142          1           0       -4.875604    3.533793    4.844904
    143          1           0       -3.921434    0.778568    5.440778
    144          1           0       -2.784500    3.931318    5.618450
    145          1           0       -2.164596    3.157442    4.117501
    146          1           0       -2.375625    2.221422    5.508525
    147          1           0       -5.623122    2.020443    6.831395
    148          1           0       -6.041756    0.359064    6.457835
    149          1           0       -7.047211    2.924746    5.463602
    150          1           0       -8.011569    1.490883    5.972413
    151          1           0       -7.211139    1.572276    4.339317
    152          1           0       -6.686526   -4.478509    3.311383
    153          1           0       -5.870437   -3.317540    4.407893
    154          1           0       -4.867534   -4.315523    3.280733
    155          1           0       -5.100761   -3.899336   -1.825830
    156          1           0       -7.830123   -5.828028   -4.548622
    157          1           0       -7.760438   -4.080789   -5.231470
    158          1           0       -8.887127   -4.649663   -3.974810
 ---------------------------------------------------------------------

 SCF Done:  E(RCAM-B3LYP) =  -4069.81215671     A.U. after   19 cycles

 Excitation energies and oscillator strengths:

 Excited State   1:      Singlet-A      1.6659 eV  744.26 nm  f=0.1861  <S**2>=0.000
     309 -> 315        0.11034
     310 -> 316        0.13077
     311 -> 313        0.43979
     312 -> 314        0.52703
 This state for optimization and/or second-order correction.
 Total Energy, E(TD-HF/TD-DFT) =  -4069.75093695
 Copying the excited state density for this state as the 1-particle RhoCI density.

 Excited State   2:      Singlet-A      1.6868 eV  735.04 nm  f=0.5176  <S**2>=0.000
     309 -> 315        0.13604
     310 -> 316       -0.11296
     311 -> 313        0.52605
     312 -> 314       -0.43914

 Excited State   3:      Singlet-A      2.1859 eV  567.20 nm  f=0.0774  <S**2>=0.000
     309 -> 313        0.16098
     310 -> 314        0.62226
     312 -> 316       -0.26353

 Excited State   4:      Singlet-A      2.1929 eV  565.38 nm  f=0.1169  <S**2>=0.000
     309 -> 313        0.62033
     310 -> 314       -0.15955
     311 -> 315       -0.26946

 Excited State   5:      Singlet-A      2.4790 eV  500.15 nm  f=0.0000  <S**2>=0.000
     312 -> 313        0.70709

 The electronic state is 1-A.
 Alpha  occ. eigenvalues --  -46.87890 -46.87489 -19.26442 -19.26230 -19.19188
 Alpha  occ. eigenvalues --  -19.19033 -19.18890 -19.18566 -19.18303 -19.17896
 Alpha  occ. eigenvalues --  -14.42541 -14.42313 -14.41537 -14.41199 -14.39495
 Alpha  occ. eigenvalues --  -14.39176 -14.38690 -14.38431 -10.39241 -10.38961
 Alpha  occ. eigenvalues --  -10.35522 -10.35243 -10.34523 -10.34075 -10.31842
 Alpha  occ. eigenvalues --  -10.31651 -10.31505 -10.31114 -10.30997 -10.30832
 Alpha  occ. eigenvalues --  -10.30675 -10.30606 -10.30284 -10.30241 -10.30181
 Alpha  occ. eigenvalues --  -10.30011 -10.29982 -10.29757 -10.29732 -10.29345
 Alpha  occ. eigenvalues --  -10.29255 -10.29233 -10.28832 -10.28599 -10.28518
 Alpha  occ. eigenvalues --  -10.28489 -10.28464 -10.28225 -10.28198 -10.27899
 Alpha  occ. eigenvalues --  -10.27898 -10.27823 -10.27818 -10.27681 -10.27563
 Alpha  occ. eigenvalues --  -10.27562 -10.27505 -10.27502 -10.27458 -10.27428
 Alpha  occ. eigenvalues --  -10.27313 -10.27295 -10.27292 -10.27285 -10.27212
 Alpha  occ. eigenvalues --  -10.26901 -10.26780 -10.26515 -10.26481 -10.26311
 Alpha  occ. eigenvalues --  -10.26264 -10.26237 -10.26112 -10.26070 -10.25987
 Alpha  occ. eigenvalues --  -10.25776 -10.25705 -10.25699 -10.25477 -10.25366
 Alpha  occ. eigenvalues --  -10.24944 -10.24874 -10.24743 -10.24699 -10.24660
 Alpha  occ. eigenvalues --  -10.24535  -3.16633  -3.16238  -1.91514  -1.91121
 Alpha  occ. eigenvalues --   -1.91101  -1.90943  -1.90709  -1.90546  -1.16791
 Alpha  occ. eigenvalues --   -1.16521  -1.08766  -1.08508  -1.07289  -1.06820
 Alpha  occ. eigenvalues --   -1.06817  -1.06808  -1.04674  -1.04311  -1.03849
 Alpha  occ. eigenvalues --   -1.03493  -1.03330  -1.02877  -1.02506  -1.01944
 Alpha  occ. eigenvalues --   -0.92079  -0.91820  -0.89600  -0.89362  -0.89271
 Alpha  occ. eigenvalues --   -0.88937  -0.88360  -0.88106  -0.87986  -0.87761
 Alpha  occ. eigenvalues --   -0.87627  -0.87503  -0.87362  -0.86934  -0.85067
 Alpha  occ. eigenvalues --   -0.84810  -0.84012  -0.83775  -0.83045  -0.82778
 Alpha  occ. eigenvalues --   -0.82738  -0.82473  -0.81706  -0.81450  -0.80700
 Alpha  occ. eigenvalues --   -0.80284  -0.78893  -0.78452  -0.77306  -0.77027
 Alpha  occ. eigenvalues --   -0.76972  -0.76742  -0.76025  -0.75649  -0.74975
 Alpha  occ. eigenvalues --   -0.74686  -0.72872  -0.72529  -0.71761  -0.71416
 Alpha  occ. eigenvalues --   -0.69974  -0.69657  -0.68961  -0.68644  -0.67738
 Alpha  occ. eigenvalues --   -0.67442  -0.67300  -0.67026  -0.65378  -0.65091
 Alpha  occ. eigenvalues --   -0.64957  -0.64714  -0.64611  -0.64494  -0.64349
 Alpha  occ. eigenvalues --   -0.64076  -0.62423  -0.62141  -0.60527  -0.60176
 Alpha  occ. eigenvalues --   -0.59894  -0.59598  -0.59082  -0.58833  -0.58603
 Alpha  occ. eigenvalues --   -0.58269  -0.57713  -0.57405  -0.57401  -0.57095
 Alpha  occ. eigenvalues --   -0.56414  -0.56104  -0.56031  -0.55738  -0.55614
 Alpha  occ. eigenvalues --   -0.55435  -0.55288  -0.55131  -0.54630  -0.54373
 Alpha  occ. eigenvalues --   -0.53980  -0.53709  -0.53393  -0.53315  -0.53072
 Alpha  occ. eigenvalues --   -0.53025  -0.52974  -0.52839  -0.52738  -0.52508
 Alpha  occ. eigenvalues --   -0.52477  -0.52304  -0.52044  -0.51728  -0.51708
 Alpha  occ. eigenvalues --   -0.51473  -0.51299  -0.51048  -0.50651  -0.50294
 Alpha  occ. eigenvalues --   -0.50102  -0.50001  -0.49811  -0.49721  -0.49605
 Alpha  occ. eigenvalues --   -0.49322  -0.49310  -0.49189  -0.49021  -0.48915
 Alpha  occ. eigenvalues --   -0.48703  -0.48549  -0.48533  -0.48386  -0.48262
 Alpha  occ. eigenvalues --   -0.48174  -0.47783  -0.47423  -0.47386  -0.46950
 Alpha  occ. eigenvalues --   -0.46886  -0.46642  -0.46550  -0.46457  -0.46364
 Alpha  occ. eigenvalues --   -0.46264  -0.46109  -0.45951  -0.45943  -0.45673
 Alpha  occ. eigenvalues --   -0.45275  -0.45095  -0.44694  -0.44586  -0.44363
 Alpha  occ. eigenvalues --   -0.44290  -0.44236  -0.44174  -0.44119  -0.43953
 Alpha  occ. eigenvalues --   -0.43931  -0.43769  -0.43617  -0.43467  -0.43415
 Alpha  occ. eigenvalues --   -0.43219  -0.43124  -0.42835  -0.42794  -0.42751
 Alpha  occ. eigenvalues --   -0.42736  -0.42423  -0.42094  -0.41829  -0.41803
 Alpha  occ. eigenvalues --   -0.41615  -0.41511  -0.41289  -0.41227  -0.40947
 Alpha  occ. eigenvalues --   -0.40897  -0.40813  -0.40646  -0.40560  -0.40533
 Alpha  occ. eigenvalues --   -0.40357  -0.40308  -0.40052  -0.39503  -0.39328
 Alpha  occ. eigenvalues --   -0.38538  -0.38230  -0.37829  -0.37480  -0.37399
 Alpha  occ. eigenvalues --   -0.37355  -0.37125  -0.37014  -0.36846  -0.36648
 Alpha  occ. eigenvalues --   -0.36296  -0.36080  -0.34383  -0.34087  -0.33927
 Alpha  occ. eigenvalues --   -0.33726  -0.33287  -0.33006  -0.31419  -0.31129
 Alpha  occ. eigenvalues --   -0.31126  -0.30805  -0.30164  -0.29803  -0.29547
 Alpha  occ. eigenvalues --   -0.29431  -0.29150  -0.29040  -0.24176  -0.23864
 Alpha  occ. eigenvalues --   -0.21222  -0.20943
 Alpha virt. eigenvalues --   -0.08871  -0.08617  -0.01838  -0.01520  -0.00149
 Alpha virt. eigenvalues --    0.00149   0.02087   0.02361   0.03014   0.03386
 Alpha virt. eigenvalues --    0.04634   0.04914   0.04945   0.05299   0.06101

 Mulliken charges:
               1
     1  Mg   0.838793
     2  C   -0.003204
     3  C   -0.094053
     4  C   -0.045651
     5  C   -0.064117
     6  N   -0.256896
     7  C   -0.052378
     8  C   -0.014085
     9  C   -0.087042
    10  C    0.046557
    11  C    0.104744
    12  C    0.053411
    13  C   -0.072040
    14  H    0.036445
    15  N   -0.433252
    16  C    0.168673
    17  C   -0.177031
    18  C   -0.003769
    19  C    0.148891
    20  C    0.110148
    21  C    0.012433
    22  O   -0.248918
    23  C    0.062447
    24  N   -0.341191
    25  C    0.041381
    26  C   -0.028400
    27  C   -0.023980
    28  C    0.074842
    29  C    0.076031
    30  C    0.035068
    31  C   -0.004529
    32  N   -0.310211
    33  C    0.079990
    34  C   -0.170651
    35  C    0.007961
    36  C    0.082529
    37  C    0.127573
    38  C    0.045317
    39  O   -0.189349
    40  C   -0.005037
    41  C    0.212826
    42  O   -0.258239
    43  O   -0.304425
    44  C    0.158052
    45  H   -0.017321
    46  H   -0.016286
    47  H   -0.041714
    48  H    0.000866
    49  H   -0.003728
    50  H    0.025466
    51  H    0.016520
    52  H    0.016929
    53  H    0.011611
    54  H    0.043668
    55  H    0.017798
    56  H    0.018443
    57  H    0.006118
    58  H    0.027155
    59  H    0.039555
    60  H    0.037509
    61  H    0.036030
    62  H    0.031107
    63  H    0.017272
    64  H    0.009545
    65  H    0.023839
    66  H    0.012492
    67  H    0.004872
    68  H    0.007337
    69  H    0.004169
    70  H    0.010235
    71  H    0.017423
    72  H    0.028189
    73  H    0.046231
    74  H    0.008950
    75  H    0.046302
    76  H    0.035380
    77  H    0.042861
    78  H    0.047067
    79  H    0.052445
    80  Mg   0.837979
    81  C   -0.016774
    82  C   -0.086658
    83  C   -0.045510
    84  C   -0.065115
    85  N   -0.254586
    86  C   -0.049822
    87  C   -0.015098
    88  C   -0.090381
    89  C    0.045177
    90  C    0.113735
    91  C    0.062517
    92  C   -0.077675
    93  H    0.034111
    94  N   -0.423775
    95  C    0.162626
    96  C   -0.172688
    97  C   -0.008071
    98  C    0.152753
    99  C    0.098764
   100  C    0.015639
   101  O   -0.254071
   102  C    0.061157
   103  N   -0.350005
   104  C    0.037597
   105  C   -0.019724
   106  C   -0.034625
   107  C    0.088736
   108  C    0.074030
   109  C    0.034926
   110  C   -0.007561
   111  N   -0.323990
   112  C    0.078133
   113  C   -0.163361
   114  C    0.002156
   115  C    0.095997
   116  C    0.131482
   117  C    0.042160
   118  O   -0.188577
   119  C    0.001049
   120  C    0.211225
   121  O   -0.251137
   122  O   -0.305721
   123  C    0.152129
   124  H   -0.016500
   125  H   -0.016296
   126  H   -0.041114
   127  H   -0.001193
   128  H   -0.003977
   129  H    0.021040
   130  H    0.017188
   131  H    0.018350
   132  H    0.013925
   133  H    0.037232
   134  H    0.020696
   135  H    0.019981
   136  H    0.010316
   137  H    0.028128
   138  H    0.039095
   139  H    0.038994
   140  H    0.035572
   141  H    0.033810
   142  H    0.014022
   143  H    0.011545
   144  H    0.024131
   145  H    0.012131
   146  H    0.004184
   147  H    0.005366
   148  H    0.003408
   149  H    0.010668
   150  H    0.017605
   151  H    0.030604
   152  H    0.045525
   153  H    0.007942
   154  H    0.047324
   155  H    0.034673
   156  H    0.043426
   157  H    0.049622
   158  H    0.053423
 Sum of Mulliken charges =  -0.00000

 Dipole moment (field-independent basis, Debye):
    X=              4.8995    Y=              2.8159    Z=              1.2213  Tot=              5.7815
 Quadrupole moment (field-independent basis, Debye-Ang):
   XX=           -521.4780   YY=           -523.9507   ZZ=           -474.0347
   XY=            -13.6998   XZ=             41.1590   YZ=             19.1553

 Normal termination of Gaussian 16 at Sat Sep  4 01:28:25 2021.
