 Gaussian 16, Revision A.03,
 Gaussian 16:  ES64L-G16RevA.03 25-Dec-2016

 -----------------------------------
 #p cam-b3lyp/Def2SVP td=(nstates=5)
 -----------------------------------

 --------------------------------
 TDDFT excited states in gaussian
 --------------------------------
 Symbolic Z-matrix:
 Charge =  0 Multiplicity = 1

                         Standard orientation:
 ---------------------------------------------------------------------
 Center     Atomic      Atomic             Coordinates (Angstroms)
 Number     Number       Type             X           Y           Z
 ---------------------------------------------------------------------
      1         12           0        5.051676   -1.292342    0.103566
      2          6           0        6.033445    1.918385   -1.137231
      3          6           0        6.275903   -0.328243    3.139163
      4          6           0        4.611063   -4.268889    1.104887
      5          6           0        4.961251   -2.379854   -3.206238
      6          7           0        6.007543    0.582974    0.789245
      7          6           0        6.271239    1.759714    0.229854
      8          6           0        6.753960    2.834221    1.249554
      9          6           0        7.317848    1.867920    2.385464
     10          6           0        6.458992    0.645616    2.112951
     11          6           0        8.783317    1.491369    2.192818
     12          6           0        5.577283    3.719217    1.782418
     13          6           0        5.999957    4.991103    2.523368
     14          1           0        5.187392    6.189347    2.377441
     15          7           0        4.936660   -2.024200    1.934960
     16          6           0        5.480626   -1.491606    3.055554
     17          6           0        5.115809   -2.405213    4.159597
     18          6           0        4.477573   -3.610331    3.560898
     19          6           0        4.675790   -3.357832    2.156501
     20          6           0        5.333469   -2.077359    5.604895
     21          6           0        3.806321   -4.805670    4.159829
     22          8           0        3.527852   -5.845884    3.470639
     23          6           0        3.559983   -4.761625    5.612558
     24          7           0        5.031353   -3.133258   -0.880432
     25          6           0        4.759179   -4.264942   -0.221496
     26          6           0        4.522252   -5.404323   -1.167866
     27          6           0        4.449715   -4.759397   -2.626825
     28          6           0        4.756375   -3.288864   -2.250312
     29          6           0        5.579516   -6.516979   -1.153728
     30          6           0        3.181083   -5.057002   -3.464931
     31          6           0        1.979727   -4.391885   -2.831323
     32          7           0        5.251122   -0.374166   -1.853018
     33          6           0        5.201356   -1.020364   -3.096652
     34          6           0        5.495564   -0.004076   -4.123623
     35          6           0        5.713781    1.166783   -3.400218
     36          6           0        5.591139    0.893143   -2.007963
     37          6           0        5.591294   -0.237682   -5.523872
     38          6           0        6.046286    2.580011   -3.478215
     39          8           0        6.174774    3.391230   -4.396314
     40          6           0        6.386520    3.096435   -2.010777
     41          6           0        5.634793    4.381700   -1.795578
     42          8           0        4.388370    4.391325   -1.734722
     43          8           0        6.499342    5.351561   -1.460217
     44          6           0        5.814782    6.646862   -1.203849
     45          1           0        6.836403   -0.225480    4.070409
     46          1           0        4.350799   -5.287536    1.399946
     47          1           0        4.867544   -2.627148   -4.265256
     48          1           0        7.550059    3.482861    0.883607
     49          1           0        7.119520    2.255281    3.384633
     50          1           0        9.163166    1.846028    1.234772
     51          1           0        8.811856    0.402344    2.234083
     52          1           0        9.386132    1.838926    3.032220
     53          1           0        5.069740    3.193389    2.591100
     54          1           0        4.895830    3.983156    0.972922
     55          1           0        7.052360    5.220237    2.353503
     56          1           0        5.933724    4.800332    3.594545
     57          1           0        5.969740   -1.201477    5.725459
     58          1           0        5.912910   -2.895035    6.033106
     59          1           0        4.394011   -1.969153    6.147150
     60          1           0        4.508803   -4.637136    6.134853
     61          1           0        2.993034   -5.661399    5.848831
     62          1           0        2.964827   -3.877555    5.843120
     63          1           0        3.578769   -5.903392   -0.950620
     64          1           0        5.271683   -5.090778   -3.261829
     65          1           0        5.171679   -7.505879   -0.942896
     66          1           0        6.344150   -6.246072   -0.426242
     67          1           0        6.168577   -6.599404   -2.066762
     68          1           0        2.981868   -6.127934   -3.484031
     69          1           0        3.257354   -4.715386   -4.497275
     70          1           0        1.678784   -5.108851   -2.068286
     71          1           0        1.189067   -4.252127   -3.569250
     72          1           0        2.258414   -3.470030   -2.320438
     73          1           0        5.064689    0.585206   -6.007103
     74          1           0        5.157148   -1.199649   -5.795423
     75          1           0        6.672522   -0.214460   -5.659010
     76          1           0        7.465621    3.241898   -1.972000
     77          1           0        6.272215    7.387115   -1.860367
     78          1           0        5.871544    6.819943   -0.129035
     79          1           0        4.771929    6.711071   -1.516379
     80         12           0       -5.217736    1.283516    0.365600
     81          6           0       -5.884454   -2.128052   -0.526467
     82          6           0       -4.271454    1.788697   -2.872291
     83          6           0       -4.197093    4.164452    1.217586
     84          6           0       -5.114504    0.248069    3.691693
     85          7           0       -5.133604   -0.072166   -1.380051
     86          6           0       -5.470053   -1.331634   -1.614323
     87          6           0       -5.432723   -1.739523   -3.111585
     88          6           0       -4.386798   -0.638906   -3.634637
     89          6           0       -4.631065    0.446920   -2.588703
     90          6           0       -2.938526   -1.086841   -3.528834
     91          6           0       -6.829395   -1.581809   -3.809053
     92          6           0       -6.942191   -2.250160   -5.181038
     93          1           0       -8.218261   -2.850639   -5.559933
     94          7           0       -4.827986    2.886233   -0.738016
     95          6           0       -4.481709    2.911620   -2.042133
     96          6           0       -4.283877    4.330069   -2.378323
     97          6           0       -4.380820    5.127063   -1.125285
     98          6           0       -4.453285    4.064830   -0.142183
     99          6           0       -4.110649    4.815681   -3.788149
    100          6           0       -4.391915    6.601250   -0.855350
    101          8           0       -4.244117    7.070172    0.328326
    102          6           0       -4.487271    7.481892   -2.028742
    103          7           0       -4.517339    2.056383    2.164064
    104          6           0       -4.188774    3.355297    2.277082
    105          6           0       -3.977419    3.740797    3.721767
    106          6           0       -4.470794    2.483715    4.578458
    107          6           0       -4.813726    1.512218    3.427808
    108          6           0       -2.542217    4.091617    4.113538
    109          6           0       -5.547659    2.751694    5.665292
    110          6           0       -6.854331    3.140925    5.012221
    111          7           0       -5.632399   -0.545185    1.438884
    112          6           0       -5.499655   -0.768406    2.826925
    113          6           0       -5.785703   -2.197671    3.067359
    114          6           0       -6.044543   -2.715942    1.789514
    115          6           0       -5.908257   -1.687050    0.818788
    116          6           0       -5.736865   -2.855055    4.328930
    117          6           0       -6.391668   -3.901815    1.039906
    118          8           0       -6.715694   -5.051658    1.334196
    119          6           0       -6.179620   -3.602191   -0.506589
    120          6           0       -7.399292   -4.082533   -1.244279
    121          8           0       -8.503865   -3.542101   -1.058645
    122          8           0       -7.022264   -4.949710   -2.201464
    123          6           0       -8.196298   -5.445713   -2.967911
    124          1           0       -3.739486    1.998091   -3.800760
    125          1           0       -3.948876    5.165243    1.578537
    126          1           0       -5.198873   -0.131101    4.712372
    127          1           0       -5.050771   -2.735377   -3.301723
    128          1           0       -4.653021   -0.280548   -4.625620
    129          1           0       -2.844965   -2.028126   -3.007892
    130          1           0       -2.426734   -0.302159   -2.987182
    131          1           0       -2.479704   -1.116668   -4.521273
    132          1           0       -6.968225   -0.532417   -4.099277
    133          1           0       -7.616150   -1.933165   -3.170157
    134          1           0       -6.117949   -2.949164   -5.368045
    135          1           0       -6.823773   -1.483967   -5.951068
    136          1           0       -3.916148    3.985605   -4.478476
    137          1           0       -3.190364    5.409327   -3.811058
    138          1           0       -4.941911    5.439273   -4.123983
    139          1           0       -3.651784    7.285547   -2.696477
    140          1           0       -4.571202    8.494101   -1.628403
    141          1           0       -5.398601    7.229646   -2.582342
    142          1           0       -4.578777    4.602594    3.984009
    143          1           0       -3.644776    2.024871    5.141488
    144          1           0       -2.444099    5.102883    4.551470
    145          1           0       -1.915634    3.994441    3.236901
    146          1           0       -2.071998    3.400837    4.811330
    147          1           0       -5.250715    3.595726    6.292650
    148          1           0       -5.717515    1.905704    6.322897
    149          1           0       -6.726455    4.210913    4.822835
    150          1           0       -7.689019    2.956246    5.685457
    151          1           0       -6.971775    2.646028    4.041184
    152          1           0       -6.608584   -3.493716    4.381158
    153          1           0       -5.716907   -2.140447    5.149116
    154          1           0       -4.790908   -3.394417    4.231320
    155          1           0       -5.277314   -4.127855   -0.821412
    156          1           0       -8.176287   -6.538455   -2.911337
    157          1           0       -8.110380   -4.991708   -3.973022
    158          1           0       -9.181370   -5.231352   -2.570241
 ---------------------------------------------------------------------

 SCF Done:  E(RCAM-B3LYP) =  -4069.81187580     A.U. after   19 cycles

 Excitation energies and oscillator strengths:

 Excited State   1:      Singlet-A      1.6603 eV  746.74 nm  f=0.0695  <S**2>=0.000
     309 -> 315        0.11344
     310 -> 316        0.12654
     311 -> 313        0.45651
     312 -> 314        0.51322
 This state for optimization and/or second-order correction.
 Total Energy, E(TD-HF/TD-DFT) =  -4069.75085922
 Copying the excited state density for this state as the 1-particle RhoCI density.

 Excited State   2:      Singlet-A      1.6939 eV  731.96 nm  f=0.6429  <S**2>=0.000
     309 -> 315        0.13384
     310 -> 316       -0.11860
     311 -> 313        0.51164
     312 -> 314       -0.45522

 Excited State   3:      Singlet-A      2.1854 eV  567.32 nm  f=0.0385  <S**2>=0.000
     309 -> 313        0.27180
     310 -> 314        0.58312
     311 -> 315       -0.11407
     312 -> 316       -0.24646

 Excited State   4:      Singlet-A      2.1943 eV  565.04 nm  f=0.1487  <S**2>=0.000
     309 -> 313        0.58035
     310 -> 314       -0.26931
     311 -> 315       -0.25355
     312 -> 316        0.11834

 Excited State   5:      Singlet-A      2.4826 eV  499.41 nm  f=0.0000  <S**2>=0.000
     312 -> 313        0.70709

 The electronic state is 1-A.
 Alpha  occ. eigenvalues --  -46.87883 -46.87491 -19.26364 -19.26234 -19.19111
 Alpha  occ. eigenvalues --  -19.19036 -19.18863 -19.18530 -19.18274 -19.17890
 Alpha  occ. eigenvalues --  -14.42532 -14.42326 -14.41536 -14.41200 -14.39485
 Alpha  occ. eigenvalues --  -14.39175 -14.38680 -14.38434 -10.39169 -10.38964
 Alpha  occ. eigenvalues --  -10.35494 -10.35205 -10.34493 -10.34070 -10.31745
 Alpha  occ. eigenvalues --  -10.31659 -10.31495 -10.31139 -10.30981 -10.30841
 Alpha  occ. eigenvalues --  -10.30666 -10.30597 -10.30289 -10.30236 -10.30191
 Alpha  occ. eigenvalues --  -10.30013 -10.29979 -10.29753 -10.29721 -10.29337
 Alpha  occ. eigenvalues --  -10.29254 -10.29229 -10.28811 -10.28569 -10.28558
 Alpha  occ. eigenvalues --  -10.28535 -10.28449 -10.28225 -10.28185 -10.27963
 Alpha  occ. eigenvalues --  -10.27886 -10.27823 -10.27811 -10.27667 -10.27597
 Alpha  occ. eigenvalues --  -10.27551 -10.27529 -10.27487 -10.27480 -10.27421
 Alpha  occ. eigenvalues --  -10.27317 -10.27283 -10.27275 -10.27248 -10.27202
 Alpha  occ. eigenvalues --  -10.26899 -10.26754 -10.26551 -10.26439 -10.26311
 Alpha  occ. eigenvalues --  -10.26298 -10.26208 -10.26115 -10.26070 -10.25986
 Alpha  occ. eigenvalues --  -10.25822 -10.25782 -10.25722 -10.25497 -10.25317
 Alpha  occ. eigenvalues --  -10.24928 -10.24868 -10.24844 -10.24700 -10.24658
 Alpha  occ. eigenvalues --  -10.24527  -3.16626  -3.16241  -1.91507  -1.91123
 Alpha  occ. eigenvalues --   -1.91094  -1.90936  -1.90712  -1.90549  -1.16715
 Alpha  occ. eigenvalues --   -1.16526  -1.08733  -1.08502  -1.07260  -1.06821
 Alpha  occ. eigenvalues --   -1.06782  -1.06732  -1.04663  -1.04322  -1.03845
 Alpha  occ. eigenvalues --   -1.03496  -1.03322  -1.02876  -1.02499  -1.01945
 Alpha  occ. eigenvalues --   -0.92060  -0.91823  -0.89618  -0.89360  -0.89256
 Alpha  occ. eigenvalues --   -0.88985  -0.88378  -0.88098  -0.87978  -0.87753
 Alpha  occ. eigenvalues --   -0.87637  -0.87517  -0.87346  -0.86917  -0.85051
 Alpha  occ. eigenvalues --   -0.84838  -0.84035  -0.83765  -0.83032  -0.82754
 Alpha  occ. eigenvalues --   -0.82717  -0.82484  -0.81669  -0.81456  -0.80676
 Alpha  occ. eigenvalues --   -0.80286  -0.78880  -0.78449  -0.77306  -0.77010
 Alpha  occ. eigenvalues --   -0.76985  -0.76761  -0.76002  -0.75675  -0.74982
 Alpha  occ. eigenvalues --   -0.74676  -0.72867  -0.72537  -0.71752  -0.71426
 Alpha  occ. eigenvalues --   -0.70015  -0.69653  -0.68945  -0.68665  -0.67722
 Alpha  occ. eigenvalues --   -0.67441  -0.67279  -0.67037  -0.65361  -0.65115
 Alpha  occ. eigenvalues --   -0.64940  -0.64702  -0.64617  -0.64505  -0.64362
 Alpha  occ. eigenvalues --   -0.64074  -0.62382  -0.62144  -0.60518  -0.60163
 Alpha  occ. eigenvalues --   -0.59880  -0.59628  -0.59074  -0.58837  -0.58591
 Alpha  occ. eigenvalues --   -0.58271  -0.57676  -0.57407  -0.57394  -0.57087
 Alpha  occ. eigenvalues --   -0.56398  -0.56054  -0.56037  -0.55745  -0.55594
 Alpha  occ. eigenvalues --   -0.55433  -0.55284  -0.55126  -0.54616  -0.54371
 Alpha  occ. eigenvalues --   -0.53962  -0.53749  -0.53383  -0.53291  -0.53073
 Alpha  occ. eigenvalues --   -0.52999  -0.52977  -0.52819  -0.52751  -0.52553
 Alpha  occ. eigenvalues --   -0.52468  -0.52302  -0.52035  -0.51742  -0.51683
 Alpha  occ. eigenvalues --   -0.51489  -0.51289  -0.51054  -0.50634  -0.50275
 Alpha  occ. eigenvalues --   -0.50124  -0.49984  -0.49811  -0.49722  -0.49582
 Alpha  occ. eigenvalues --   -0.49314  -0.49300  -0.49171  -0.49029  -0.48946
 Alpha  occ. eigenvalues --   -0.48678  -0.48546  -0.48510  -0.48403  -0.48252
 Alpha  occ. eigenvalues --   -0.48157  -0.47772  -0.47429  -0.47373  -0.46946
 Alpha  occ. eigenvalues --   -0.46887  -0.46622  -0.46561  -0.46449  -0.46393
 Alpha  occ. eigenvalues --   -0.46255  -0.46108  -0.45949  -0.45919  -0.45686
 Alpha  occ. eigenvalues --   -0.45286  -0.45079  -0.44673  -0.44577  -0.44369
 Alpha  occ. eigenvalues --   -0.44315  -0.44235  -0.44161  -0.44095  -0.43971
 Alpha  occ. eigenvalues --   -0.43929  -0.43762  -0.43584  -0.43462  -0.43423
 Alpha  occ. eigenvalues --   -0.43232  -0.43114  -0.42796  -0.42786  -0.42756
 Alpha  occ. eigenvalues --   -0.42752  -0.42417  -0.42106  -0.41836  -0.41791
 Alpha  occ. eigenvalues --   -0.41602  -0.41514  -0.41310  -0.41218  -0.40947
 Alpha  occ. eigenvalues --   -0.40874  -0.40831  -0.40660  -0.40569  -0.40530
 Alpha  occ. eigenvalues --   -0.40367  -0.40286  -0.40074  -0.39553  -0.39324
 Alpha  occ. eigenvalues --   -0.38553  -0.38228  -0.37810  -0.37507  -0.37409
 Alpha  occ. eigenvalues --   -0.37335  -0.37128  -0.37033  -0.36800  -0.36650
 Alpha  occ. eigenvalues --   -0.36278  -0.36083  -0.34374  -0.34092  -0.33861
 Alpha  occ. eigenvalues --   -0.33729  -0.33275  -0.33009  -0.31393  -0.31117
 Alpha  occ. eigenvalues --   -0.31092  -0.30807  -0.30134  -0.29798  -0.29533
 Alpha  occ. eigenvalues --   -0.29417  -0.29141  -0.29039  -0.24167  -0.23868
 Alpha  occ. eigenvalues --   -0.21216  -0.20947
 Alpha virt. eigenvalues --   -0.08860  -0.08615  -0.01832  -0.01518  -0.00129
 Alpha virt. eigenvalues --    0.00158   0.02104   0.02365   0.03017   0.03382
 Alpha virt. eigenvalues --    0.04645   0.04892   0.05009   0.05296   0.06128

 Mulliken charges:
               1
     1  Mg   0.838729
     2  C   -0.002882
     3  C   -0.094109
     4  C   -0.045674
     5  C   -0.064377
     6  N   -0.256836
     7  C   -0.052445
     8  C   -0.014027
     9  C   -0.087024
    10  C    0.046518
    11  C    0.104762
    12  C    0.053455
    13  C   -0.072206
    14  H    0.037095
    15  N   -0.433262
    16  C    0.168652
    17  C   -0.177018
    18  C   -0.003664
    19  C    0.148891
    20  C    0.110168
    21  C    0.012651
    22  O   -0.248761
    23  C    0.062344
    24  N   -0.341114
    25  C    0.041236
    26  C   -0.028426
    27  C   -0.023833
    28  C    0.074648
    29  C    0.076023
    30  C    0.035215
    31  C   -0.004671
    32  N   -0.310261
    33  C    0.079991
    34  C   -0.170735
    35  C    0.008107
    36  C    0.082581
    37  C    0.127565
    38  C    0.045534
    39  O   -0.189078
    40  C   -0.005064
    41  C    0.212688
    42  O   -0.257429
    43  O   -0.304709
    44  C    0.157717
    45  H   -0.017327
    46  H   -0.016273
    47  H   -0.042081
    48  H    0.000986
    49  H   -0.003856
    50  H    0.025517
    51  H    0.016466
    52  H    0.016894
    53  H    0.011122
    54  H    0.044256
    55  H    0.017816
    56  H    0.017958
    57  H    0.005971
    58  H    0.027218
    59  H    0.039581
    60  H    0.037335
    61  H    0.036537
    62  H    0.031270
    63  H    0.017113
    64  H    0.009535
    65  H    0.023800
    66  H    0.012697
    67  H    0.004764
    68  H    0.006954
    69  H    0.003958
    70  H    0.010139
    71  H    0.015977
    72  H    0.028859
    73  H    0.046369
    74  H    0.008520
    75  H    0.046295
    76  H    0.035303
    77  H    0.042846
    78  H    0.046919
    79  H    0.053588
    80  Mg   0.838000
    81  C   -0.016697
    82  C   -0.086839
    83  C   -0.044748
    84  C   -0.065336
    85  N   -0.254508
    86  C   -0.050022
    87  C   -0.015060
    88  C   -0.090477
    89  C    0.045428
    90  C    0.113730
    91  C    0.062578
    92  C   -0.077634
    93  H    0.034349
    94  N   -0.423871
    95  C    0.162875
    96  C   -0.172401
    97  C   -0.007344
    98  C    0.152679
    99  C    0.098478
   100  C    0.016194
   101  O   -0.253695
   102  C    0.060964
   103  N   -0.349937
   104  C    0.037661
   105  C   -0.019812
   106  C   -0.034491
   107  C    0.088719
   108  C    0.073691
   109  C    0.034957
   110  C   -0.007563
   111  N   -0.323979
   112  C    0.078152
   113  C   -0.163562
   114  C    0.002275
   115  C    0.095885
   116  C    0.131431
   117  C    0.042276
   118  O   -0.188423
   119  C    0.000895
   120  C    0.211193
   121  O   -0.251201
   122  O   -0.305653
   123  C    0.152136
   124  H   -0.017759
   125  H   -0.015778
   126  H   -0.041470
   127  H   -0.001186
   128  H   -0.004335
   129  H    0.022013
   130  H    0.016673
   131  H    0.016136
   132  H    0.013955
   133  H    0.037456
   134  H    0.020383
   135  H    0.019697
   136  H    0.009422
   137  H    0.029198
   138  H    0.039207
   139  H    0.039834
   140  H    0.035774
   141  H    0.033459
   142  H    0.014053
   143  H    0.011200
   144  H    0.024311
   145  H    0.013352
   146  H    0.004072
   147  H    0.005447
   148  H    0.003092
   149  H    0.010800
   150  H    0.017511
   151  H    0.030588
   152  H    0.045592
   153  H    0.007663
   154  H    0.046924
   155  H    0.035044
   156  H    0.043585
   157  H    0.049377
   158  H    0.053422
 Sum of Mulliken charges =  -0.00000

 Dipole moment (field-independent basis, Debye):
    X=              4.5734    Y=              1.2286    Z=              0.7154  Tot=              4.7893
 Quadrupole moment (field-independent basis, Debye-Ang):
   XX=           -523.7260   YY=           -538.7143   ZZ=           -457.2367
   XY=            -18.4654   XZ=             50.8249   YZ=             33.0087

 Normal termination of Gaussian 16 at Fri Sep 10 11:38:00 2021.
