 Gaussian 16, Revision A.03,
 Gaussian 16:  ES64L-G16RevA.03 25-Dec-2016

 -----------------------------------
 #p cam-b3lyp/Def2SVP td=(nstates=5)
 -----------------------------------

 --------------------------------
 TDDFT excited states in gaussian
 --------------------------------
 Symbolic Z-matrix:
 Charge =  0 Multiplicity = 1

                         Standard orientation:
 ---------------------------------------------------------------------
 Center     Atomic      Atomic             Coordinates (Angstroms)
 Number     Number       Type             X           Y           Z
 ---------------------------------------------------------------------
      1         12           0       15.773656   -0.809565    0.129254
      2          6           0       16.138880    2.558599   -1.025865
      3          6           0       16.721961    0.302629    3.212565
      4          6           0       15.898737   -3.837558    1.063189
      5          6           0       15.967112   -1.816582   -3.201534
      6          7           0       16.331883    1.199005    0.874020
      7          6           0       16.373706    2.417246    0.343632
      8          6           0       16.616448    3.540909    1.395218
      9          6           0       17.333002    2.676084    2.526865
     10          6           0       16.734148    1.317139    2.209743
     11          6           0       18.847489    2.595403    2.364629
     12          6           0       15.279072    4.168314    1.914370
     13          6           0       15.430516    5.480405    2.689505
     14          1           0       14.403839    6.501435    2.545344
     15          7           0       15.763978   -1.592289    1.943117
     16          6           0       16.169963   -0.990582    3.086975
     17          6           0       15.966181   -1.983047    4.164085
     18          6           0       15.587319   -3.274764    3.526884
     19          6           0       15.762644   -2.955985    2.132962
     20          6           0       16.085020   -1.652967    5.620339
     21          6           0       15.148579   -4.591186    4.086056
     22          8           0       15.092417   -5.649313    3.370662
     23          6           0       14.867385   -4.629587    5.532603
     24          7           0       16.132598   -2.596060   -0.889190
     25          6           0       16.071576   -3.774075   -0.258681
     26          6           0       16.080926   -4.915415   -1.231921
     27          6           0       15.915611   -4.262988   -2.679942
     28          6           0       15.922456   -2.770079   -2.268305
     29          6           0       17.333757   -5.801990   -1.211645
     30          6           0       14.747235   -4.781312   -3.555531
     31          6           0       13.426243   -4.376684   -2.940424
     32          7           0       15.832592    0.175175   -1.804100
     33          6           0       15.935978   -0.439265   -3.060463
     34          6           0       16.048906    0.638419   -4.060420
     35          6           0       16.019854    1.812196   -3.309921
     36          6           0       15.923014    1.487619   -1.926605
     37          6           0       16.218125    0.460486   -5.461897
     38          6           0       16.072900    3.264501   -3.352979
     39          8           0       16.060842    4.106399   -4.252177
     40          6           0       16.274816    3.802770   -1.867946
     41          6           0       15.283170    4.912529   -1.647985
     42          8           0       14.057641    4.678888   -1.618750
     43          8           0       15.935335    6.023531   -1.272620
     44          6           0       15.006728    7.155197   -1.009611
     45          1           0       17.231760    0.490396    4.159555
     46          1           0       15.835199   -4.893927    1.332420
     47          1           0       15.945919   -2.052617   -4.267035
     48          1           0       17.278913    4.339936    1.061874
     49          1           0       17.041852    2.994262    3.527723
     50          1           0       19.171542    3.039196    1.423375
     51          1           0       19.086283    1.531917    2.386239
     52          1           0       19.353166    3.033595    3.225476
     53          1           0       14.866255    3.535368    2.699879
     54          1           0       14.576772    4.313901    1.092844
     55          1           0       16.421691    5.913131    2.550834
     56          1           0       15.379749    5.255516    3.754891
     57          1           0       16.536172   -0.673392    5.773437
     58          1           0       16.803062   -2.352529    6.047816
     59          1           0       15.131076   -1.741623    6.140399
     60          1           0       15.762524   -4.335697    6.081149
     61          1           0       14.481233   -5.627465    5.737483
     62          1           0       14.106944   -3.883300    5.764410
     63          1           0       15.248026   -5.592863   -1.048165
     64          1           0       16.799695   -4.413831   -3.299873
     65          1           0       17.121513   -6.855836   -1.029805
     66          1           0       18.015419   -5.404991   -0.459968
     67          1           0       17.946981   -5.747352   -2.110749
     68          1           0       14.760445   -5.869806   -3.599723
     69          1           0       14.777694   -4.407441   -4.579026
     70          1           0       13.254168   -5.155968   -2.198845
     71          1           0       12.639455   -4.375727   -3.695523
     72          1           0       13.509438   -3.430443   -2.405455
     73          1           0       15.552061    1.176685   -5.942923
     74          1           0       15.985155   -0.560811   -5.762364
     75          1           0       17.276853    0.696043   -5.568973
     76          1           0       17.303978    4.153753   -1.798963
     77          1           0       15.325470    7.985179   -1.640299
     78          1           0       15.005778    7.310917    0.069350
     79          1           0       13.978209    7.023254   -1.347365
     80         12           0      -15.944095    0.777094    0.289569
     81          6           0      -15.917298   -2.731924   -0.462150
     82          6           0      -15.055536    1.327264   -2.957329
     83          6           0      -15.519741    3.833685    1.027550
     84          6           0      -15.701756   -0.084134    3.657837
     85          7           0      -15.565795   -0.604859   -1.395466
     86          6           0      -15.646194   -1.914147   -1.578915
     87          6           0      -15.502888   -2.366524   -3.056877
     88          6           0      -14.681997   -1.104664   -3.616083
     89          6           0      -15.152053   -0.046446   -2.620138
     90          6           0      -13.176387   -1.256451   -3.476659
     91          6           0      -16.890594   -2.512750   -3.774447
     92          6           0      -16.846081   -3.244687   -5.117598
     93          1           0      -17.973664   -4.097541   -5.483212
     94          7           0      -15.853919    2.379542   -0.877736
     95          6           0      -15.495534    2.419823   -2.178206
     96          6           0      -15.571634    3.834965   -2.572851
     97          6           0      -15.844735    4.647215   -1.356145
     98          6           0      -15.726828    3.631535   -0.329218
     99          6           0      -15.470666    4.288184   -4.000378
    100          6           0      -16.147631    6.100434   -1.149743
    101          8           0      -16.115561    6.636240    0.014181
    102          6           0      -16.391291    6.897761   -2.360696
    103          7           0      -15.440488    1.743307    2.060202
    104          6           0      -15.373286    3.084861    2.120762
    105          6           0      -15.267394    3.561769    3.549652
    106          6           0      -15.522009    2.267883    4.454420
    107          6           0      -15.648179    1.202812    3.343077
    108          6           0      -13.935367    4.201605    3.940424
    109          6           0      -16.650057    2.363660    5.517911
    110          6           0      -17.995403    2.463674    4.835688
    111          7           0      -16.014150   -1.052874    1.436006
    112          6           0      -15.865763   -1.190077    2.833596
    113          6           0      -15.872311   -2.636876    3.132158
    114          6           0      -16.001962   -3.246492    1.875162
    115          6           0      -16.051007   -2.250537    0.862666
    116          6           0      -15.719364   -3.220987    4.421167
    117          6           0      -16.097787   -4.506393    1.173607
    118          8           0      -16.196973   -5.684645    1.513625
    119          6           0      -15.920026   -4.233324   -0.382102
    120          6           0      -17.009167   -4.971822   -1.110729
    121          8           0      -18.201041   -4.650581   -0.959528
    122          8           0      -16.453109   -5.786292   -2.026054
    123          6           0      -17.493916   -6.532372   -2.782292
    124          1           0      -14.557708    1.599178   -3.888524
    125          1           0      -15.477800    4.877329    1.347753
    126          1           0      -15.729236   -0.431272    4.692927
    127          1           0      -14.930910   -3.275387   -3.200335
    128          1           0      -14.994821   -0.845199   -4.624140
    129          1           0      -12.910799   -2.139679   -2.914952
    130          1           0      -12.837159   -0.365847   -2.964009
    131          1           0      -12.702557   -1.235813   -4.462244
    132          1           0      -17.225836   -1.523176   -4.110752
    133          1           0      -17.605368   -2.985144   -3.129017
    134          1           0      -15.898229   -3.776128   -5.266204
    135          1           0      -16.865150   -2.501600   -5.918519
    136          1           0      -15.105699    3.485115   -4.652515
    137          1           0      -14.683346    5.048753   -4.039467
    138          1           0      -16.401205    4.723413   -4.370949
    139          1           0      -15.521543    6.841803   -3.010977
    140          1           0      -16.678019    7.889276   -2.004954
    141          1           0      -17.225806    6.450379   -2.912094
    142          1           0      -16.029745    4.299299    3.768687
    143          1           0      -14.632843    2.002157    5.044857
    144          1           0      -14.044072    5.229276    4.335582
    145          1           0      -13.286002    4.193643    3.075088
    146          1           0      -13.352398    3.644501    4.671850
    147          1           0      -16.534648    3.273881    6.111487
    148          1           0      -16.663845    1.527825    6.209422
    149          1           0      -18.074928    3.529564    4.601928
    150          1           0      -18.790260    2.146615    5.507799
    151          1           0      -17.996509    1.916859    3.885605
    152          1           0      -16.450816   -4.015003    4.491968
    153          1           0      -15.853893   -2.483967    5.210144
    154          1           0      -14.684862   -3.568641    4.356257
    155          1           0      -14.927057   -4.584787   -0.665037
    156          1           0      -17.262518   -7.596991   -2.678754
    157          1           0      -17.479776   -6.110967   -3.805023
    158          1           0      -18.508948   -6.498804   -2.404084
 ---------------------------------------------------------------------

 SCF Done:  E(RCAM-B3LYP) =  -4069.81179358     A.U. after   19 cycles

 Excitation energies and oscillator strengths:

 Excited State   1:      Singlet-A      1.6754 eV  740.03 nm  f=0.2579  <S**2>=0.000
     310 -> 316        0.16976
     311 -> 314        0.14258
     312 -> 313        0.67107
     310 <- 316        0.10234
 This state for optimization and/or second-order correction.
 Total Energy, E(TD-HF/TD-DFT) =  -4069.75022393
 Copying the excited state density for this state as the 1-particle RhoCI density.

 Excited State   2:      Singlet-A      1.6801 eV  737.96 nm  f=0.5190  <S**2>=0.000
     309 -> 315        0.17178
     311 -> 314        0.67071
     312 -> 313       -0.14255
     309 <- 315        0.10285

 Excited State   3:      Singlet-A      2.1861 eV  567.14 nm  f=0.0974  <S**2>=0.000
     310 -> 313        0.64222
     312 -> 316       -0.27300

 Excited State   4:      Singlet-A      2.1926 eV  565.47 nm  f=0.1030  <S**2>=0.000
     309 -> 314        0.64045
     311 -> 315       -0.27821

 Excited State   5:      Singlet-A      3.0660 eV  404.39 nm  f=0.0000  <S**2>=0.000
     311 -> 313        0.70711

 The electronic state is 1-A.
 Alpha  occ. eigenvalues --  -46.87796 -46.87660 -19.26349 -19.26286 -19.19161
 Alpha  occ. eigenvalues --  -19.19022 -19.18812 -19.18713 -19.18171 -19.18052
 Alpha  occ. eigenvalues --  -14.42497 -14.42450 -14.41449 -14.41359 -14.39402
 Alpha  occ. eigenvalues --  -14.39352 -14.38600 -14.38587 -10.39090 -10.39082
 Alpha  occ. eigenvalues --  -10.35445 -10.35390 -10.34391 -10.34229 -10.31755
 Alpha  occ. eigenvalues --  -10.31682 -10.31405 -10.31308 -10.31021 -10.30908
 Alpha  occ. eigenvalues --  -10.30570 -10.30508 -10.30398 -10.30361 -10.30206
 Alpha  occ. eigenvalues --  -10.30141 -10.29921 -10.29896 -10.29630 -10.29436
 Alpha  occ. eigenvalues --  -10.29401 -10.29254 -10.28748 -10.28716 -10.28650
 Alpha  occ. eigenvalues --  -10.28537 -10.28404 -10.28364 -10.28136 -10.28116
 Alpha  occ. eigenvalues --  -10.28001 -10.27793 -10.27727 -10.27668 -10.27584
 Alpha  occ. eigenvalues --  -10.27521 -10.27502 -10.27483 -10.27478 -10.27466
 Alpha  occ. eigenvalues --  -10.27461 -10.27450 -10.27403 -10.27379 -10.27159
 Alpha  occ. eigenvalues --  -10.27050 -10.26704 -10.26689 -10.26411 -10.26405
 Alpha  occ. eigenvalues --  -10.26233 -10.26186 -10.26143 -10.26020 -10.26018
 Alpha  occ. eigenvalues --  -10.25935 -10.25855 -10.25847 -10.25435 -10.25400
 Alpha  occ. eigenvalues --  -10.24873 -10.24833 -10.24787 -10.24736 -10.24690
 Alpha  occ. eigenvalues --  -10.24689  -3.16539  -3.16410  -1.91421  -1.91292
 Alpha  occ. eigenvalues --   -1.91007  -1.90881  -1.90849  -1.90718  -1.16643
 Alpha  occ. eigenvalues --   -1.16635  -1.08659  -1.08629  -1.07213  -1.06965
 Alpha  occ. eigenvalues --   -1.06945  -1.06645  -1.04581  -1.04494  -1.03760
 Alpha  occ. eigenvalues --   -1.03663  -1.03234  -1.03039  -1.02411  -1.02111
 Alpha  occ. eigenvalues --   -0.91987  -0.91972  -0.89520  -0.89496  -0.89187
 Alpha  occ. eigenvalues --   -0.89148  -0.88287  -0.88222  -0.87871  -0.87795
 Alpha  occ. eigenvalues --   -0.87683  -0.87672  -0.87272  -0.87118  -0.84997
 Alpha  occ. eigenvalues --   -0.84981  -0.83937  -0.83878  -0.82965  -0.82930
 Alpha  occ. eigenvalues --   -0.82651  -0.82648  -0.81596  -0.81587  -0.80596
 Alpha  occ. eigenvalues --   -0.80442  -0.78796  -0.78635  -0.77218  -0.77143
 Alpha  occ. eigenvalues --   -0.76934  -0.76898  -0.75923  -0.75837  -0.74898
 Alpha  occ. eigenvalues --   -0.74804  -0.72774  -0.72699  -0.71672  -0.71580
 Alpha  occ. eigenvalues --   -0.69908  -0.69760  -0.68872  -0.68825  -0.67641
 Alpha  occ. eigenvalues --   -0.67601  -0.67218  -0.67197  -0.65286  -0.65270
 Alpha  occ. eigenvalues --   -0.64854  -0.64770  -0.64653  -0.64621  -0.64270
 Alpha  occ. eigenvalues --   -0.64205  -0.62299  -0.62278  -0.60441  -0.60339
 Alpha  occ. eigenvalues --   -0.59804  -0.59794  -0.58993  -0.58987  -0.58504
 Alpha  occ. eigenvalues --   -0.58426  -0.57586  -0.57554  -0.57309  -0.57237
 Alpha  occ. eigenvalues --   -0.56310  -0.56204  -0.55979  -0.55885  -0.55519
 Alpha  occ. eigenvalues --   -0.55451  -0.55340  -0.55249  -0.54525  -0.54489
 Alpha  occ. eigenvalues --   -0.53910  -0.53894  -0.53298  -0.53227  -0.53221
 Alpha  occ. eigenvalues --   -0.53140  -0.52915  -0.52901  -0.52754  -0.52665
 Alpha  occ. eigenvalues --   -0.52439  -0.52404  -0.51917  -0.51887  -0.51656
 Alpha  occ. eigenvalues --   -0.51615  -0.51202  -0.51197  -0.50569  -0.50473
 Alpha  occ. eigenvalues --   -0.50031  -0.49978  -0.49917  -0.49868  -0.49513
 Alpha  occ. eigenvalues --   -0.49486  -0.49214  -0.49201  -0.49103  -0.49096
 Alpha  occ. eigenvalues --   -0.48593  -0.48557  -0.48461  -0.48444  -0.48378
 Alpha  occ. eigenvalues --   -0.48337  -0.47694  -0.47593  -0.47296  -0.47117
 Alpha  occ. eigenvalues --   -0.46797  -0.46709  -0.46554  -0.46551  -0.46359
 Alpha  occ. eigenvalues --   -0.46271  -0.46163  -0.46087  -0.45823  -0.45823
 Alpha  occ. eigenvalues --   -0.45210  -0.45201  -0.44579  -0.44514  -0.44505
 Alpha  occ. eigenvalues --   -0.44474  -0.44145  -0.44126  -0.44087  -0.44078
 Alpha  occ. eigenvalues --   -0.44019  -0.43937  -0.43553  -0.43496  -0.43385
 Alpha  occ. eigenvalues --   -0.43385  -0.43027  -0.42930  -0.42901  -0.42700
 Alpha  occ. eigenvalues --   -0.42656  -0.42555  -0.42010  -0.41965  -0.41704
 Alpha  occ. eigenvalues --   -0.41669  -0.41533  -0.41457  -0.41141  -0.40988
 Alpha  occ. eigenvalues --   -0.40869  -0.40821  -0.40720  -0.40697  -0.40572
 Alpha  occ. eigenvalues --   -0.40495  -0.40233  -0.40224  -0.39442  -0.39429
 Alpha  occ. eigenvalues --   -0.38469  -0.38352  -0.37747  -0.37652  -0.37320
 Alpha  occ. eigenvalues --   -0.37267  -0.37263  -0.37198  -0.36771  -0.36715
 Alpha  occ. eigenvalues --   -0.36218  -0.36193  -0.34286  -0.34254  -0.33862
 Alpha  occ. eigenvalues --   -0.33772  -0.33186  -0.33176  -0.31342  -0.31272
 Alpha  occ. eigenvalues --   -0.31035  -0.30973  -0.30031  -0.29956  -0.29448
 Alpha  occ. eigenvalues --   -0.29327  -0.29322  -0.29212  -0.24080  -0.24036
 Alpha  occ. eigenvalues --   -0.21127  -0.21117
 Alpha virt. eigenvalues --   -0.08792  -0.08774  -0.01749  -0.01684  -0.00057
 Alpha virt. eigenvalues --   -0.00027   0.02200   0.02206   0.03121   0.03227
 Alpha virt. eigenvalues --    0.04719   0.04731   0.05096   0.05165   0.06178

 Mulliken charges:
               1
     1  Mg   0.838714
     2  C   -0.002982
     3  C   -0.094102
     4  C   -0.045867
     5  C   -0.063947
     6  N   -0.256783
     7  C   -0.052477
     8  C   -0.014006
     9  C   -0.087027
    10  C    0.046336
    11  C    0.104813
    12  C    0.053468
    13  C   -0.071820
    14  H    0.036130
    15  N   -0.433157
    16  C    0.168448
    17  C   -0.177128
    18  C   -0.003990
    19  C    0.148725
    20  C    0.110172
    21  C    0.012307
    22  O   -0.249599
    23  C    0.062459
    24  N   -0.341130
    25  C    0.041268
    26  C   -0.028194
    27  C   -0.023954
    28  C    0.074806
    29  C    0.076168
    30  C    0.035131
    31  C   -0.004501
    32  N   -0.310453
    33  C    0.080385
    34  C   -0.169757
    35  C    0.008341
    36  C    0.082978
    37  C    0.127323
    38  C    0.046086
    39  O   -0.188504
    40  C   -0.005313
    41  C    0.212874
    42  O   -0.257123
    43  O   -0.304793
    44  C    0.157700
    45  H   -0.017571
    46  H   -0.016816
    47  H   -0.041533
    48  H    0.000930
    49  H   -0.004003
    50  H    0.025465
    51  H    0.016450
    52  H    0.016680
    53  H    0.011226
    54  H    0.044105
    55  H    0.017869
    56  H    0.017984
    57  H    0.005892
    58  H    0.026855
    59  H    0.039606
    60  H    0.037361
    61  H    0.035702
    62  H    0.031532
    63  H    0.016567
    64  H    0.009447
    65  H    0.023231
    66  H    0.012559
    67  H    0.004744
    68  H    0.006365
    69  H    0.004689
    70  H    0.008809
    71  H    0.018092
    72  H    0.028993
    73  H    0.047510
    74  H    0.009081
    75  H    0.045995
    76  H    0.035148
    77  H    0.042923
    78  H    0.046429
    79  H    0.053660
    80  Mg   0.837836
    81  C   -0.016821
    82  C   -0.087748
    83  C   -0.045496
    84  C   -0.064897
    85  N   -0.254570
    86  C   -0.049841
    87  C   -0.015080
    88  C   -0.090508
    89  C    0.045747
    90  C    0.114351
    91  C    0.062506
    92  C   -0.077913
    93  H    0.034896
    94  N   -0.423499
    95  C    0.162928
    96  C   -0.174571
    97  C   -0.007792
    98  C    0.152125
    99  C    0.099340
   100  C    0.015589
   101  O   -0.253185
   102  C    0.061199
   103  N   -0.350054
   104  C    0.037525
   105  C   -0.019837
   106  C   -0.034829
   107  C    0.088934
   108  C    0.073653
   109  C    0.034740
   110  C   -0.007681
   111  N   -0.324106
   112  C    0.078432
   113  C   -0.163168
   114  C    0.002250
   115  C    0.096181
   116  C    0.131489
   117  C    0.042364
   118  O   -0.187898
   119  C    0.000929
   120  C    0.211261
   121  O   -0.251031
   122  O   -0.305626
   123  C    0.152034
   124  H   -0.019566
   125  H   -0.015561
   126  H   -0.040503
   127  H   -0.000626
   128  H   -0.004280
   129  H    0.022466
   130  H    0.014457
   131  H    0.016380
   132  H    0.013923
   133  H    0.037659
   134  H    0.020819
   135  H    0.019629
   136  H    0.008820
   137  H    0.026234
   138  H    0.039826
   139  H    0.038313
   140  H    0.036415
   141  H    0.033897
   142  H    0.014396
   143  H    0.012400
   144  H    0.025137
   145  H    0.011691
   146  H    0.005653
   147  H    0.006240
   148  H    0.003621
   149  H    0.010939
   150  H    0.017910
   151  H    0.030123
   152  H    0.045979
   153  H    0.008478
   154  H    0.046930
   155  H    0.035049
   156  H    0.043907
   157  H    0.049521
   158  H    0.053566
 Sum of Mulliken charges =  -0.00000

 Dipole moment (field-independent basis, Debye):
    X=              4.0973    Y=              1.7266    Z=              0.7360  Tot=              4.5067
 Quadrupole moment (field-independent basis, Debye-Ang):
   XX=           -518.7330   YY=           -544.1783   ZZ=           -454.5655
   XY=            -38.6073   XZ=            121.1029   YZ=             41.1925

 Normal termination of Gaussian 16 at Sat Sep  4 17:24:04 2021.
