 Gaussian 16, Revision A.03,
 Gaussian 16:  ES64L-G16RevA.03 25-Dec-2016

 -----------------------------------
 #p cam-b3lyp/Def2SVP td=(nstates=5)
 -----------------------------------

 --------------------------------
 TDDFT excited states in gaussian
 --------------------------------
 Symbolic Z-matrix:
 Charge =  0 Multiplicity = 1

                         Standard orientation:
 ---------------------------------------------------------------------
 Center     Atomic      Atomic             Coordinates (Angstroms)
 Number     Number       Type             X           Y           Z
 ---------------------------------------------------------------------
      1         12           0       -5.040288   -1.309346    0.178024
      2          6           0       -6.143404    2.090716   -0.008860
      3          6           0       -5.926468   -1.621045   -3.102310
      4          6           0       -4.500546   -4.423231    0.440734
      5          6           0       -5.311208   -1.051996    3.642997
      6          7           0       -5.912072    0.125153   -1.265185
      7          6           0       -6.232136    1.414857   -1.227870
      8          6           0       -6.599194    2.000967   -2.623978
      9          6           0       -7.038950    0.653923   -3.354789
     10          6           0       -6.217402   -0.338112   -2.550520
     11          6           0       -8.517506    0.321607   -3.181755
     12          6           0       -5.369751    2.662363   -3.333031
     13          6           0       -5.706852    3.539225   -4.542506
     14          1           0       -4.912169    4.733891   -4.784584
     15          7           0       -4.729302   -2.677544   -1.212720
     16          6           0       -5.147539   -2.632956   -2.500500
     17          6           0       -4.667384   -3.882667   -3.128477
     18          6           0       -4.100437   -4.743452   -2.053435
     19          6           0       -4.448980   -3.983852   -0.880020
     20          6           0       -4.726538   -4.137914   -4.603298
     21          6           0       -3.370974   -6.049351   -2.078833
     22          8           0       -3.171105   -6.737496   -1.020021
     23          6           0       -2.968692   -6.551423   -3.405157
     24          7           0       -5.130767   -2.635404    1.787689
     25          6           0       -4.791395   -3.920998    1.642572
     26          6           0       -4.660893   -4.604607    2.971326
     27          6           0       -4.745299   -3.450994    4.072147
     28          6           0       -5.006080   -2.247422    3.133170
     29          6           0       -5.712912   -5.679691    3.277040
     30          6           0       -3.575543   -3.357373    5.083742
     31          6           0       -2.311153   -2.936493    4.368707
     32          7           0       -5.448342    0.275304    1.604006
     33          6           0       -5.534976    0.153097    2.998363
     34          6           0       -5.936361    1.471155    3.523418
     35          6           0       -6.072334    2.269378    2.389312
     36          6           0       -5.800285    1.491888    1.227507
     37          6           0       -6.183665    1.784033    4.889208
     38          6           0       -6.408150    3.591828    1.887107
     39          8           0       -6.633463    4.685511    2.407283
     40          6           0       -6.586335    3.497585    0.307488
     41          6           0       -5.812837    4.632935   -0.305694
     42          8           0       -4.567134    4.667706   -0.239501
     43          8           0       -6.633807    5.367580   -1.071752
     44          6           0       -5.922601    6.493907   -1.733362
     45          1           0       -6.382610   -1.902277   -4.053511
     46          1           0       -4.212158   -5.466465    0.585424
     47          1           0       -5.333273   -0.874083    4.719711
     48          1           0       -7.428774    2.708188   -2.616166
     49          1           0       -6.732733    0.639681   -4.400615
     50          1           0       -8.998055    0.998720   -2.475702
     51          1           0       -8.543859   -0.701501   -2.806189
     52          1           0       -9.025107    0.299835   -4.146453
     53          1           0       -4.778817    1.888909   -3.823567
     54          1           0       -4.779359    3.240895   -2.621649
     55          1           0       -6.770942    3.774162   -4.580276
     56          1           0       -5.525456    2.958193   -5.446772
     57          1           0       -5.344042   -3.399444   -5.113100
     58          1           0       -5.258046   -5.079104   -4.742474
     59          1           0       -3.733649   -4.207196   -5.047937
     60          1           0       -3.855101   -6.672331   -4.028222
     61          1           0       -2.381521   -7.450398   -3.220973
     62          1           0       -2.350083   -5.798790   -3.894867
     63          1           0       -3.700559   -5.111273    3.057786
     64          1           0       -5.631932   -3.548040    4.699154
     65          1           0       -5.286871   -6.657603    3.502610
     66          1           0       -6.393671   -5.736092    2.428113
     67          1           0       -6.397551   -5.431802    4.087741
     68          1           0       -3.381978   -4.331848    5.530817
     69          1           0       -3.762373   -2.652119    5.893657
     70          1           0       -1.930976   -3.877332    3.972324
     71          1           0       -1.604728   -2.495631    5.072848
     72          1           0       -2.530812   -2.289916    3.518899
     73          1           0       -5.710628    2.748885    5.071595
     74          1           0       -5.783639    1.015488    5.550208
     75          1           0       -7.273113    1.814360    4.895354
     76          1           0       -7.654563    3.574813    0.107373
     77          1           0       -6.446762    7.409600   -1.459511
     78          1           0       -5.862265    6.242864   -2.792486
     79          1           0       -4.919576    6.713103   -1.365621
     80         12           0        5.204445    1.369062   -0.011665
     81          6           0        5.888884   -2.102981   -0.607938
     82          6           0        4.578498    0.534173    3.235752
     83          6           0        4.161638    4.330748    0.444846
     84          6           0        4.767545    1.730444   -3.450302
     85          7           0        5.260673   -0.567530    1.055428
     86          6           0        5.594237   -1.809917    0.739926
     87          6           0        5.691205   -2.776957    1.950295
     88          6           0        4.720199   -1.994192    2.961877
     89          6           0        4.884571   -0.578684    2.412355
     90          6           0        3.260311   -2.393270    2.824727
     91          6           0        7.150321   -2.879286    2.518207
     92          6           0        7.380005   -4.032970    3.496993
     93          1           0        8.674788   -4.708166    3.485514
     94          7           0        4.950872    2.396892    1.666975
     95          6           0        4.730133    1.897787    2.901254
     96          6           0        4.591494    3.063575    3.787756
     97          6           0        4.584234    4.292670    2.948729
     98          6           0        4.543498    3.707113    1.623749
     99          6           0        4.561577    2.948879    5.284207
    100          6           0        4.597230    5.753423    3.283735
    101          8           0        4.346807    6.648834    2.401481
    102          6           0        4.819630    6.100419    4.694979
    103          7           0        4.351501    2.775302   -1.283408
    104          6           0        4.037981    4.006164   -0.842271
    105          6           0        3.698050    4.926799   -1.989990
    106          6           0        4.084591    4.120928   -3.316168
    107          6           0        4.516723    2.781008   -2.681155
    108          6           0        2.239000    5.374572   -2.073944
    109          6           0        5.058551    4.818472   -4.304845
    110          6           0        6.428203    4.944489   -3.677510
    111          7           0        5.481477    0.122220   -1.754276
    112          6           0        5.213804    0.463048   -3.098254
    113          6           0        5.449102   -0.748711   -3.909857
    114          6           0        5.818036   -1.724382   -2.971542
    115          6           0        5.793457   -1.165866   -1.665033
    116          6           0        5.268814   -0.854886   -5.317820
    117          6           0        6.212383   -3.102617   -2.788090
    118          8           0        6.485592   -4.035709   -3.542035
    119          6           0        6.153300   -3.442929   -1.236614
    120          6           0        7.428152   -4.150722   -0.867455
    121          8           0        8.520087   -3.558541   -0.927619
    122          8           0        7.127318   -5.333074   -0.300079
    123          6           0        8.359175   -6.067553    0.093472
    124          1           0        4.140801    0.348723    4.217037
    125          1           0        3.899081    5.387432    0.534031
    126          1           0        4.747835    1.787300   -4.540745
    127          1           0        5.310455   -3.774453    1.766418
    128          1           0        5.085670   -2.051288    3.983903
    129          1           0        3.100320   -3.053759    1.985503
    130          1           0        2.714265   -1.469007    2.688248
    131          1           0        2.897021   -2.822195    3.763010
    132          1           0        7.335546   -2.027415    3.185099
    133          1           0        7.866380   -2.933460    1.721373
    134          1           0        6.564275   -4.765620    3.469299
    135          1           0        7.349317   -3.636043    4.514596
    136          1           0        4.417862    1.909794    5.605209
    137          1           0        3.658828    3.466266    5.626584
    138          1           0        5.432386    3.405797    5.759168
    139          1           0        4.047582    5.639206    5.306267
    140          1           0        4.884153    7.189931    4.721358
    141          1           0        5.774403    5.668558    5.015164
    142          1           0        4.287843    5.834147   -1.945674
    143          1           0        3.200577    3.905211   -3.934089
    144          1           0        2.118746    6.474355   -2.065117
    145          1           0        1.696506    4.926116   -1.252273
    146          1           0        1.692039    5.006343   -2.940230
    147          1           0        4.719341    5.835483   -4.516459
    148          1           0        5.149592    4.304874   -5.256128
    149          1           0        6.338801    5.849685   -3.069474
    150          1           0        7.191826    5.057933   -4.444358
    151          1           0        6.627784    4.108630   -2.996945
    152          1           0        6.119610   -1.403007   -5.700184
    153          1           0        5.184638    0.125120   -5.782882
    154          1           0        4.326455   -1.408066   -5.352613
    155          1           0        5.275203   -4.068476   -1.071643
    156          1           0        8.313532   -7.049152   -0.388265
    157          1           0        8.377262   -6.049559    1.199407
    158          1           0        9.306002   -5.693463   -0.278047
 ---------------------------------------------------------------------

 SCF Done:  E(RCAM-B3LYP) =  -4069.81169000     A.U. after   19 cycles

 Excitation energies and oscillator strengths:

 Excited State   1:      Singlet-A      1.6576 eV  747.97 nm  f=0.0110  <S**2>=0.000
     309 -> 315        0.11145
     310 -> 316        0.12777
     311 -> 313        0.45120
     312 -> 314        0.51826
 This state for optimization and/or second-order correction.
 Total Energy, E(TD-HF/TD-DFT) =  -4069.75077370
 Copying the excited state density for this state as the 1-particle RhoCI density.

 Excited State   2:      Singlet-A      1.6968 eV  730.69 nm  f=0.7093  <S**2>=0.000
     309 -> 315        0.13572
     310 -> 316       -0.11773
     311 -> 313        0.51634
     312 -> 314       -0.44956

 Excited State   3:      Singlet-A      2.1837 eV  567.77 nm  f=0.0234  <S**2>=0.000
     309 -> 313        0.27622
     310 -> 314        0.58199
     311 -> 315       -0.11533
     312 -> 316       -0.24429

 Excited State   4:      Singlet-A      2.1956 eV  564.70 nm  f=0.1579  <S**2>=0.000
     309 -> 313        0.57797
     310 -> 314       -0.27311
     311 -> 315       -0.25379
     312 -> 316        0.12090

 Excited State   5:      Singlet-A      2.4875 eV  498.42 nm  f=0.0000  <S**2>=0.000
     312 -> 313        0.70710

 The electronic state is 1-A.
 Alpha  occ. eigenvalues --  -46.87879 -46.87493 -19.26329 -19.26236 -19.19067
 Alpha  occ. eigenvalues --  -19.19044 -19.18852 -19.18516 -19.18230 -19.17920
 Alpha  occ. eigenvalues --  -14.42529 -14.42332 -14.41541 -14.41188 -14.39479
 Alpha  occ. eigenvalues --  -14.39181 -14.38668 -14.38442 -10.39129 -10.38971
 Alpha  occ. eigenvalues --  -10.35481 -10.35192 -10.34451 -10.34098 -10.31717
 Alpha  occ. eigenvalues --  -10.31657 -10.31485 -10.31162 -10.30976 -10.30851
 Alpha  occ. eigenvalues --  -10.30650 -10.30590 -10.30301 -10.30235 -10.30215
 Alpha  occ. eigenvalues --  -10.30021 -10.29960 -10.29722 -10.29704 -10.29329
 Alpha  occ. eigenvalues --  -10.29262 -10.29247 -10.28816 -10.28610 -10.28569
 Alpha  occ. eigenvalues --  -10.28543 -10.28434 -10.28239 -10.28183 -10.27990
 Alpha  occ. eigenvalues --  -10.27864 -10.27845 -10.27804 -10.27650 -10.27648
 Alpha  occ. eigenvalues --  -10.27582 -10.27510 -10.27508 -10.27479 -10.27343
 Alpha  occ. eigenvalues --  -10.27320 -10.27302 -10.27296 -10.27219 -10.27162
 Alpha  occ. eigenvalues --  -10.26912 -10.26776 -10.26564 -10.26400 -10.26389
 Alpha  occ. eigenvalues --  -10.26293 -10.26211 -10.26117 -10.26007 -10.25942
 Alpha  occ. eigenvalues --  -10.25857 -10.25782 -10.25774 -10.25551 -10.25085
 Alpha  occ. eigenvalues --  -10.24965 -10.24904 -10.24874 -10.24721 -10.24608
 Alpha  occ. eigenvalues --  -10.24506  -3.16622  -3.16243  -1.91503  -1.91125
 Alpha  occ. eigenvalues --   -1.91090  -1.90932  -1.90714  -1.90551  -1.16679
 Alpha  occ. eigenvalues --   -1.16529  -1.08687  -1.08532  -1.07252  -1.06829
 Alpha  occ. eigenvalues --   -1.06763  -1.06690  -1.04657  -1.04332  -1.03848
 Alpha  occ. eigenvalues --   -1.03496  -1.03315  -1.02870  -1.02494  -1.01945
 Alpha  occ. eigenvalues --   -0.92045  -0.91833  -0.89647  -0.89333  -0.89259
 Alpha  occ. eigenvalues --   -0.89001  -0.88410  -0.88040  -0.87952  -0.87753
 Alpha  occ. eigenvalues --   -0.87664  -0.87523  -0.87322  -0.86946  -0.85055
 Alpha  occ. eigenvalues --   -0.84846  -0.84077  -0.83698  -0.83022  -0.82746
 Alpha  occ. eigenvalues --   -0.82711  -0.82492  -0.81654  -0.81462  -0.80665
 Alpha  occ. eigenvalues --   -0.80292  -0.78859  -0.78477  -0.77314  -0.77018
 Alpha  occ. eigenvalues --   -0.76993  -0.76744  -0.75993  -0.75692  -0.75005
 Alpha  occ. eigenvalues --   -0.74604  -0.72861  -0.72546  -0.71754  -0.71404
 Alpha  occ. eigenvalues --   -0.70073  -0.69594  -0.68943  -0.68675  -0.67713
 Alpha  occ. eigenvalues --   -0.67440  -0.67281  -0.67047  -0.65363  -0.65124
 Alpha  occ. eigenvalues --   -0.64937  -0.64709  -0.64616  -0.64503  -0.64385
 Alpha  occ. eigenvalues --   -0.64037  -0.62367  -0.62141  -0.60510  -0.60162
 Alpha  occ. eigenvalues --   -0.59875  -0.59645  -0.59073  -0.58830  -0.58585
 Alpha  occ. eigenvalues --   -0.58268  -0.57650  -0.57421  -0.57396  -0.57069
 Alpha  occ. eigenvalues --   -0.56380  -0.56059  -0.56037  -0.55750  -0.55581
 Alpha  occ. eigenvalues --   -0.55449  -0.55296  -0.55087  -0.54622  -0.54332
 Alpha  occ. eigenvalues --   -0.53964  -0.53763  -0.53378  -0.53276  -0.53071
 Alpha  occ. eigenvalues --   -0.52995  -0.52986  -0.52804  -0.52755  -0.52604
 Alpha  occ. eigenvalues --   -0.52491  -0.52258  -0.52002  -0.51781  -0.51674
 Alpha  occ. eigenvalues --   -0.51507  -0.51286  -0.51060  -0.50608  -0.50293
 Alpha  occ. eigenvalues --   -0.50158  -0.49971  -0.49813  -0.49677  -0.49571
 Alpha  occ. eigenvalues --   -0.49323  -0.49279  -0.49164  -0.49052  -0.48958
 Alpha  occ. eigenvalues --   -0.48668  -0.48555  -0.48492  -0.48415  -0.48197
 Alpha  occ. eigenvalues --   -0.48156  -0.47770  -0.47434  -0.47366  -0.46942
 Alpha  occ. eigenvalues --   -0.46896  -0.46622  -0.46555  -0.46446  -0.46400
 Alpha  occ. eigenvalues --   -0.46252  -0.46111  -0.45925  -0.45899  -0.45690
 Alpha  occ. eigenvalues --   -0.45314  -0.44996  -0.44657  -0.44578  -0.44372
 Alpha  occ. eigenvalues --   -0.44324  -0.44250  -0.44156  -0.44074  -0.43975
 Alpha  occ. eigenvalues --   -0.43916  -0.43778  -0.43569  -0.43471  -0.43418
 Alpha  occ. eigenvalues --   -0.43225  -0.43113  -0.42823  -0.42797  -0.42748
 Alpha  occ. eigenvalues --   -0.42736  -0.42383  -0.42130  -0.41815  -0.41783
 Alpha  occ. eigenvalues --   -0.41611  -0.41516  -0.41307  -0.41221  -0.40970
 Alpha  occ. eigenvalues --   -0.40867  -0.40819  -0.40687  -0.40564  -0.40525
 Alpha  occ. eigenvalues --   -0.40321  -0.40301  -0.40076  -0.39624  -0.39268
 Alpha  occ. eigenvalues --   -0.38590  -0.38168  -0.37824  -0.37512  -0.37431
 Alpha  occ. eigenvalues --   -0.37335  -0.37101  -0.37046  -0.36787  -0.36639
 Alpha  occ. eigenvalues --   -0.36278  -0.36052  -0.34368  -0.34093  -0.33824
 Alpha  occ. eigenvalues --   -0.33736  -0.33266  -0.33013  -0.31385  -0.31113
 Alpha  occ. eigenvalues --   -0.31075  -0.30804  -0.30091  -0.29827  -0.29514
 Alpha  occ. eigenvalues --   -0.29395  -0.29160  -0.29060  -0.24162  -0.23871
 Alpha  occ. eigenvalues --   -0.21209  -0.20952
 Alpha virt. eigenvalues --   -0.08848  -0.08627  -0.01832  -0.01510  -0.00112
 Alpha virt. eigenvalues --    0.00145   0.02126   0.02353   0.03016   0.03384
 Alpha virt. eigenvalues --    0.04637   0.04887   0.05046   0.05288   0.06104

 Mulliken charges:
               1
     1  Mg   0.838621
     2  C   -0.002762
     3  C   -0.093868
     4  C   -0.046090
     5  C   -0.064390
     6  N   -0.256709
     7  C   -0.052560
     8  C   -0.014000
     9  C   -0.087029
    10  C    0.046305
    11  C    0.104746
    12  C    0.053471
    13  C   -0.071749
    14  H    0.035725
    15  N   -0.433249
    16  C    0.168515
    17  C   -0.176737
    18  C   -0.003686
    19  C    0.148729
    20  C    0.110071
    21  C    0.012511
    22  O   -0.249794
    23  C    0.062282
    24  N   -0.340989
    25  C    0.041152
    26  C   -0.028216
    27  C   -0.023752
    28  C    0.074398
    29  C    0.076106
    30  C    0.035383
    31  C   -0.004428
    32  N   -0.310409
    33  C    0.080123
    34  C   -0.170145
    35  C    0.008516
    36  C    0.082824
    37  C    0.127387
    38  C    0.046172
    39  O   -0.188228
    40  C   -0.005371
    41  C    0.212972
    42  O   -0.256956
    43  O   -0.304825
    44  C    0.157513
    45  H   -0.017230
    46  H   -0.016890
    47  H   -0.042122
    48  H    0.001099
    49  H   -0.003873
    50  H    0.025559
    51  H    0.016494
    52  H    0.016909
    53  H    0.011089
    54  H    0.044024
    55  H    0.018141
    56  H    0.018003
    57  H    0.005918
    58  H    0.027181
    59  H    0.040430
    60  H    0.037344
    61  H    0.036540
    62  H    0.032454
    63  H    0.015968
    64  H    0.009630
    65  H    0.023193
    66  H    0.013029
    67  H    0.004793
    68  H    0.006079
    69  H    0.004447
    70  H    0.008450
    71  H    0.015289
    72  H    0.029842
    73  H    0.047392
    74  H    0.008361
    75  H    0.046176
    76  H    0.035274
    77  H    0.043213
    78  H    0.046221
    79  H    0.054006
    80  Mg   0.838043
    81  C   -0.016995
    82  C   -0.087663
    83  C   -0.044119
    84  C   -0.065078
    85  N   -0.254626
    86  C   -0.049974
    87  C   -0.015125
    88  C   -0.090619
    89  C    0.046034
    90  C    0.114190
    91  C    0.062610
    92  C   -0.077709
    93  H    0.034376
    94  N   -0.423805
    95  C    0.163407
    96  C   -0.173827
    97  C   -0.006802
    98  C    0.152310
    99  C    0.099050
   100  C    0.016310
   101  O   -0.252350
   102  C    0.061103
   103  N   -0.349959
   104  C    0.038171
   105  C   -0.020279
   106  C   -0.034247
   107  C    0.088780
   108  C    0.072840
   109  C    0.034835
   110  C   -0.007552
   111  N   -0.323896
   112  C    0.078208
   113  C   -0.163901
   114  C    0.001874
   115  C    0.095965
   116  C    0.131645
   117  C    0.041773
   118  O   -0.188982
   119  C    0.001077
   120  C    0.211063
   121  O   -0.251263
   122  O   -0.305453
   123  C    0.152198
   124  H   -0.019780
   125  H   -0.014510
   126  H   -0.041445
   127  H   -0.000487
   128  H   -0.004813
   129  H    0.023253
   130  H    0.015115
   131  H    0.015686
   132  H    0.013751
   133  H    0.037500
   134  H    0.020874
   135  H    0.019328
   136  H    0.008315
   137  H    0.027302
   138  H    0.039512
   139  H    0.039003
   140  H    0.036508
   141  H    0.033194
   142  H    0.013968
   143  H    0.011748
   144  H    0.024930
   145  H    0.016343
   146  H    0.005267
   147  H    0.005941
   148  H    0.002739
   149  H    0.011031
   150  H    0.017278
   151  H    0.030184
   152  H    0.045507
   153  H    0.008030
   154  H    0.045464
   155  H    0.035184
   156  H    0.043664
   157  H    0.049485
   158  H    0.053282
 Sum of Mulliken charges =  -0.00000

 Dipole moment (field-independent basis, Debye):
    X=             -3.8002    Y=             -1.8007    Z=              0.2727  Tot=              4.2141
 Quadrupole moment (field-independent basis, Debye-Ang):
   XX=           -525.2241   YY=           -545.3100   ZZ=           -449.3677
   XY=             20.7594   XZ=             56.5203   YZ=            -39.7938

 Normal termination of Gaussian 16 at Sat Sep  4 02:39:45 2021.
