 Gaussian 16, Revision A.03,
 Gaussian 16:  ES64L-G16RevA.03 25-Dec-2016

 -----------------------------------
 #p cam-b3lyp/Def2SVP td=(nstates=5)
 -----------------------------------

 --------------------------------
 TDDFT excited states in gaussian
 --------------------------------
 Symbolic Z-matrix:
 Charge =  0 Multiplicity = 1

                         Standard orientation:
 ---------------------------------------------------------------------
 Center     Atomic      Atomic             Coordinates (Angstroms)
 Number     Number       Type             X           Y           Z
 ---------------------------------------------------------------------
      1         12           0        3.373385   -1.595074    0.571793
      2          6           0        4.577877    1.423987   -0.927102
      3          6           0        4.202239   -0.248693    3.595586
      4          6           0        2.741846   -4.414822    1.878238
      5          6           0        3.701946   -3.103145   -2.552856
      6          7           0        4.268066    0.350318    1.133615
      7          6           0        4.628199    1.443528    0.468509
      8          6           0        4.992999    2.639848    1.397548
      9          6           0        5.380500    1.827509    2.713583
     10          6           0        4.540454    0.582961    2.486986
     11          6           0        6.850458    1.424348    2.770024
     12          6           0        3.774428    3.590409    1.649042
     13          6           0        4.120927    4.946408    2.270780
     14          1           0        3.360009    6.118171    1.864184
     15          7           0        3.000429   -2.082375    2.449635
     16          6           0        3.401261   -1.410460    3.555596
     17          6           0        2.873860   -2.171668    4.708458
     18          6           0        2.296208   -3.442279    4.188883
     19          6           0        2.684830   -3.375057    2.803303
     20          6           0        2.903893   -1.659501    6.115772
     21          6           0        1.526586   -4.547466    4.840326
     22          8           0        1.320882   -5.667502    4.259140
     23          6           0        1.089985   -4.314223    6.228857
     24          7           0        3.446146   -3.548167   -0.161533
     25          6           0        3.065292   -4.583742    0.594457
     26          6           0        2.932939   -5.835657   -0.221098
     27          6           0        3.068666   -5.385545   -1.747116
     28          6           0        3.352844   -3.879562   -1.524570
     29          6           0        3.955643   -6.940480    0.077989
     30          6           0        1.917030   -5.785398   -2.703290
     31          6           0        0.656038   -5.039679   -2.327920
     32          7           0        3.850526   -0.939577   -1.441589
     33          6           0        3.953417   -1.741730   -2.587293
     34          6           0        4.402716   -0.868468   -3.687117
     35          6           0        4.546868    0.385748   -3.097193
     36          6           0        4.234311    0.295739   -1.710651
     37          6           0        4.679170   -1.282353   -5.020048
     38          6           0        4.915985    1.775768   -3.310387
     39          8           0        5.182334    2.460389   -4.299248
     40          6           0        5.068428    2.477383   -1.889006
     41          6           0        4.321514    3.782156   -1.943753
     42          8           0        3.078555    3.803667   -2.053093
     43          8           0        5.153607    4.784550   -1.622244
     44          6           0        4.467973    6.104406   -1.628781
     45          1           0        4.635766   -0.027620    4.572890
     46          1           0        2.423582   -5.385639    2.263802
     47          1           0        3.744975   -3.485644   -3.574274
     48          1           0        5.843990    3.232841    1.061992
     49          1           0        5.058968    2.342063    3.618886
     50          1           0        7.361744    1.650272    1.834360
     51          1           0        6.850696    0.349830    2.954159
     52          1           0        7.343211    1.876065    3.631374
     53          1           0        3.152956    3.175776    2.442713
     54          1           0        3.212432    3.749141    0.728015
     55          1           0        5.191093    5.148098    2.216240
     56          1           0        3.908729    4.896661    3.338814
     57          1           0        3.536442   -0.777456    6.207544
     58          1           0        3.404107   -2.416485    6.719486
     59          1           0        1.903044   -1.478693    6.508127
     60          1           0        1.963190   -4.126013    6.853869
     61          1           0        0.478121   -5.173816    6.500097
     62          1           0        0.487862   -3.405756    6.261779
     63          1           0        1.958802   -6.299190   -0.070694
     64          1           0        3.960823   -5.799305   -2.217788
     65          1           0        3.502981   -7.892267    0.357101
     66          1           0        4.622054   -6.579831    0.861010
     67          1           0        4.659189   -7.142765   -0.729179
     68          1           0        1.700003   -6.849077   -2.611467
     69          1           0        2.137127   -5.581072   -3.751174
     70          1           0        0.241403   -5.650433   -1.526740
     71          1           0       -0.026267   -4.994419   -3.177403
     72          1           0        0.883250   -4.060168   -1.906709
     73          1           0        4.238744   -0.527522   -5.671373
     74          1           0        4.265223   -2.270031   -5.221897
     75          1           0        5.769012   -1.280410   -5.010161
     76          1           0        6.135537    2.623137   -1.724214
     77          1           0        5.023971    6.751580   -2.307209
     78          1           0        4.384697    6.415495   -0.587295
     79          1           0        3.477571    6.130855   -2.084570
     80         12           0       -4.243595    0.380083   -0.517642
     81          6           0       -1.322069    2.438093   -0.188516
     82          6           0       -5.810711    2.521482    1.625537
     83          6           0       -6.681340   -1.649005   -0.430179
     84          6           0       -2.155652   -2.156832   -1.679629
     85          7           0       -3.550976    2.208062    0.517270
     86          6           0       -2.439875    2.929044    0.517820
     87          6           0       -2.556880    4.290382    1.254449
     88          6           0       -3.777342    3.929708    2.233868
     89          6           0       -4.448581    2.842089    1.397678
     90          6           0       -3.331361    3.313684    3.549519
     91          6           0       -2.927790    5.465604    0.283215
     92          6           0       -2.756233    6.866720    0.874145
     93          1           0       -2.307049    7.942713   -0.005029
     94          7           0       -6.126275    0.657973    0.045287
     95          6           0       -6.589374    1.588781    0.905759
     96          6           0       -8.040075    1.363391    0.999810
     97          6           0       -8.370991    0.119785    0.252387
     98          6           0       -7.040459   -0.360429   -0.062548
     99          6           0       -8.970837    2.326198    1.678114
    100          6           0       -9.669711   -0.536269   -0.106966
    101          8           0       -9.716644   -1.736333   -0.554723
    102          6           0      -10.891463    0.233726    0.168562
    103          7           0       -4.375603   -1.677590   -0.783867
    104          6           0       -5.564375   -2.304735   -0.745998
    105          6           0       -5.445848   -3.728463   -1.235218
    106          6           0       -3.970680   -3.853516   -1.840045
    107          6           0       -3.437566   -2.444363   -1.500233
    108          6           0       -5.656744   -4.814144   -0.180134
    109          6           0       -3.850940   -4.355675   -3.305027
    110          6           0       -4.425879   -3.326923   -4.251864
    111          7           0       -2.157925    0.205595   -1.053887
    112          6           0       -1.484144   -0.955440   -1.492184
    113          6           0       -0.054595   -0.606267   -1.622211
    114          6           0        0.008210    0.737985   -1.225327
    115          6           0       -1.287261    1.188581   -0.853535
    116          6           0        0.986660   -1.494958   -2.012258
    117          6           0        0.877575    1.875193   -1.026201
    118          8           0        2.062142    2.114086   -1.257432
    119          6           0        0.076030    2.989974   -0.225465
    120          6           0        0.291485    4.306405   -0.920521
    121          8           0       -0.146859    4.493888   -2.069133
    122          8           0        0.785323    5.194632   -0.038731
    123          6           0        1.005555    6.519073   -0.678387
    124          1           0       -6.322957    2.997902    2.461892
    125          1           0       -7.505580   -2.360084   -0.522198
    126          1           0       -1.456119   -2.864426   -2.129778
    127          1           0       -1.685139    4.569703    1.833960
    128          1           0       -4.444551    4.778031    2.362491
    129          1           0       -2.270796    3.110634    3.560289
    130          1           0       -3.893588    2.394466    3.649486
    131          1           0       -3.639026    3.947628    4.386060
    132          1           0       -4.012669    5.463526    0.116557
    133          1           0       -2.376648    5.390271   -0.633946
    134          1           0       -2.166694    6.854682    1.798940
    135          1           0       -3.736847    7.234188    1.186196
    136          1           0       -8.421209    3.062304    2.277668
    137          1           0       -9.545216    1.751780    2.412950
    138          1           0       -9.664232    2.803000    0.982032
    139          1           0      -10.936538    0.472452    1.228484
    140          1           0      -11.710635   -0.362671   -0.237817
    141          1           0      -10.831780    1.187948   -0.366699
    142          1           0       -6.165400   -3.929043   -2.019520
    143          1           0       -3.356460   -4.567360   -1.271725
    144          1           0       -6.463906   -5.524697   -0.440306
    145          1           0       -5.863515   -4.334011    0.767096
    146          1           0       -4.776031   -5.411003    0.050779
    147          1           0       -4.438694   -5.266634   -3.442350
    148          1           0       -2.832337   -4.581764   -3.602229
    149          1           0       -5.498523   -3.541179   -4.227328
    150          1           0       -4.019918   -3.458403   -5.252844
    151          1           0       -4.283551   -2.311715   -3.863623
    152          1           0        1.612888   -0.954006   -2.709197
    153          1           0        0.587592   -2.403766   -2.457884
    154          1           0        1.454722   -1.684526   -1.042600
    155          1           0        0.458840    2.998760    0.795782
    156          1           0        2.054031    6.784339   -0.510988
    157          1           0        0.240698    7.190838   -0.245395
    158          1           0        0.944471    6.570042   -1.759177
 ---------------------------------------------------------------------

 SCF Done:  E(RCAM-B3LYP) =  -4069.77343957     A.U. after   18 cycles

 Excitation energies and oscillator strengths:

 Excited State   1:      Singlet-A      1.6081 eV  770.99 nm  f=0.2998  <S**2>=0.000
     309 -> 315        0.10989
     310 -> 316       -0.10314
     311 -> 313        0.34427
     311 -> 314       -0.27262
     312 -> 313        0.40365
     312 -> 314        0.34456
 This state for optimization and/or second-order correction.
 Total Energy, E(TD-HF/TD-DFT) =  -4069.71434201
 Copying the excited state density for this state as the 1-particle RhoCI density.

 Excited State   2:      Singlet-A      1.6958 eV  731.13 nm  f=0.4988  <S**2>=0.000
     309 -> 315       -0.12166
     310 -> 316       -0.12133
     311 -> 313       -0.48270
     312 -> 314        0.48453

 Excited State   3:      Singlet-A      2.0955 eV  591.67 nm  f=0.0286  <S**2>=0.000
     310 -> 313        0.17399
     310 -> 314        0.38271
     311 -> 313       -0.18593
     311 -> 314        0.19395
     312 -> 313        0.42792
     312 -> 314       -0.16373
     312 -> 316        0.15187

 Excited State   4:      Singlet-A      2.1158 eV  585.99 nm  f=0.0181  <S**2>=0.000
     309 -> 313        0.15912
     310 -> 313        0.18828
     310 -> 314        0.39998
     311 -> 313        0.22661
     312 -> 313       -0.36109
     312 -> 314        0.22856
     312 -> 316        0.15138

 Excited State   5:      Singlet-A      2.1867 eV  566.98 nm  f=0.1158  <S**2>=0.000
     309 -> 313        0.58571
     309 -> 314       -0.19609
     310 -> 314       -0.12470
     311 -> 315       -0.23159
     312 -> 315       -0.11635

 The electronic state is 1-A.
 Alpha  occ. eigenvalues --  -46.87440 -46.87228 -19.26099 -19.25347 -19.18530
 Alpha  occ. eigenvalues --  -19.18512 -19.18399 -19.17586 -19.17537 -19.17443
 Alpha  occ. eigenvalues --  -14.42304 -14.41860 -14.41127 -14.40879 -14.39129
 Alpha  occ. eigenvalues --  -14.38852 -14.38369 -14.37679 -10.38617 -10.37699
 Alpha  occ. eigenvalues --  -10.35194 -10.35045 -10.33625 -10.33566 -10.31646
 Alpha  occ. eigenvalues --  -10.31450 -10.31091 -10.30845 -10.30766 -10.30153
 Alpha  occ. eigenvalues --  -10.30110 -10.30022 -10.29975 -10.29968 -10.29938
 Alpha  occ. eigenvalues --  -10.29718 -10.29647 -10.29428 -10.29237 -10.29154
 Alpha  occ. eigenvalues --  -10.29105 -10.28592 -10.28580 -10.28541 -10.28175
 Alpha  occ. eigenvalues --  -10.28124 -10.28089 -10.28018 -10.27619 -10.27544
 Alpha  occ. eigenvalues --  -10.27472 -10.27467 -10.27293 -10.27292 -10.27288
 Alpha  occ. eigenvalues --  -10.27265 -10.27229 -10.27201 -10.27188 -10.27150
 Alpha  occ. eigenvalues --  -10.27112 -10.27111 -10.27055 -10.26780 -10.26768
 Alpha  occ. eigenvalues --  -10.26550 -10.26334 -10.26261 -10.26254 -10.26101
 Alpha  occ. eigenvalues --  -10.25992 -10.25977 -10.25977 -10.25740 -10.25663
 Alpha  occ. eigenvalues --  -10.25483 -10.25396 -10.25371 -10.25180 -10.25151
 Alpha  occ. eigenvalues --  -10.25006 -10.24695 -10.24584 -10.24455 -10.24221
 Alpha  occ. eigenvalues --  -10.24125  -3.16190  -3.15985  -1.91072  -1.90877
 Alpha  occ. eigenvalues --   -1.90661  -1.90497  -1.90448  -1.90289  -1.16251
 Alpha  occ. eigenvalues --   -1.15704  -1.08718  -1.07845  -1.06812  -1.06768
 Alpha  occ. eigenvalues --   -1.06383  -1.05389  -1.04291  -1.03930  -1.03441
 Alpha  occ. eigenvalues --   -1.03208  -1.02809  -1.02642  -1.01887  -1.01773
 Alpha  occ. eigenvalues --   -0.91744  -0.91241  -0.89273  -0.89218  -0.89014
 Alpha  occ. eigenvalues --   -0.88580  -0.88004  -0.87924  -0.87638  -0.87485
 Alpha  occ. eigenvalues --   -0.87257  -0.87100  -0.86912  -0.86812  -0.84835
 Alpha  occ. eigenvalues --   -0.84443  -0.83725  -0.83663  -0.82740  -0.82608
 Alpha  occ. eigenvalues --   -0.82482  -0.82155  -0.81412  -0.81031  -0.80298
 Alpha  occ. eigenvalues --   -0.79996  -0.78449  -0.78279  -0.77050  -0.76826
 Alpha  occ. eigenvalues --   -0.76713  -0.76425  -0.75681  -0.75381  -0.74627
 Alpha  occ. eigenvalues --   -0.74506  -0.72544  -0.72215  -0.71395  -0.71135
 Alpha  occ. eigenvalues --   -0.69860  -0.69549  -0.68662  -0.68358  -0.67429
 Alpha  occ. eigenvalues --   -0.67098  -0.67035  -0.66671  -0.65144  -0.64750
 Alpha  occ. eigenvalues --   -0.64567  -0.64492  -0.64335  -0.64173  -0.64009
 Alpha  occ. eigenvalues --   -0.63812  -0.62087  -0.61718  -0.60146  -0.60014
 Alpha  occ. eigenvalues --   -0.59684  -0.59206  -0.58794  -0.58493  -0.58314
 Alpha  occ. eigenvalues --   -0.57944  -0.57686  -0.57036  -0.56932  -0.56699
 Alpha  occ. eigenvalues --   -0.56192  -0.56061  -0.55747  -0.55495  -0.55173
 Alpha  occ. eigenvalues --   -0.55103  -0.55008  -0.54927  -0.54293  -0.54138
 Alpha  occ. eigenvalues --   -0.53734  -0.53466  -0.53228  -0.53124  -0.52940
 Alpha  occ. eigenvalues --   -0.52812  -0.52689  -0.52578  -0.52512  -0.52413
 Alpha  occ. eigenvalues --   -0.52340  -0.52141  -0.51988  -0.51461  -0.51332
 Alpha  occ. eigenvalues --   -0.51122  -0.51029  -0.50682  -0.50298  -0.50228
 Alpha  occ. eigenvalues --   -0.50031  -0.49879  -0.49751  -0.49549  -0.49425
 Alpha  occ. eigenvalues --   -0.49316  -0.49086  -0.48912  -0.48790  -0.48569
 Alpha  occ. eigenvalues --   -0.48463  -0.48309  -0.48207  -0.48088  -0.47900
 Alpha  occ. eigenvalues --   -0.47557  -0.47475  -0.47155  -0.47012  -0.46801
 Alpha  occ. eigenvalues --   -0.46609  -0.46482  -0.46388  -0.46254  -0.45986
 Alpha  occ. eigenvalues --   -0.45914  -0.45815  -0.45599  -0.45516  -0.45211
 Alpha  occ. eigenvalues --   -0.45003  -0.44896  -0.44394  -0.44347  -0.44099
 Alpha  occ. eigenvalues --   -0.43980  -0.43951  -0.43865  -0.43731  -0.43598
 Alpha  occ. eigenvalues --   -0.43566  -0.43495  -0.43264  -0.42973  -0.42874
 Alpha  occ. eigenvalues --   -0.42860  -0.42713  -0.42579  -0.42384  -0.42315
 Alpha  occ. eigenvalues --   -0.42176  -0.41906  -0.41728  -0.41512  -0.41372
 Alpha  occ. eigenvalues --   -0.41148  -0.41014  -0.40838  -0.40706  -0.40604
 Alpha  occ. eigenvalues --   -0.40538  -0.40436  -0.40381  -0.40369  -0.40151
 Alpha  occ. eigenvalues --   -0.40089  -0.40030  -0.39701  -0.39366  -0.39210
 Alpha  occ. eigenvalues --   -0.38158  -0.38118  -0.37502  -0.37245  -0.37079
 Alpha  occ. eigenvalues --   -0.37006  -0.36839  -0.36645  -0.36316  -0.35981
 Alpha  occ. eigenvalues --   -0.35904  -0.35478  -0.34049  -0.33638  -0.33451
 Alpha  occ. eigenvalues --   -0.32976  -0.32755  -0.31976  -0.31072  -0.30911
 Alpha  occ. eigenvalues --   -0.30739  -0.29874  -0.29487  -0.29178  -0.29063
 Alpha  occ. eigenvalues --   -0.28924  -0.28632  -0.28119  -0.23812  -0.23204
 Alpha  occ. eigenvalues --   -0.20939  -0.20483
 Alpha virt. eigenvalues --   -0.08624  -0.08156  -0.01512  -0.01160   0.00149
 Alpha virt. eigenvalues --    0.00540   0.02337   0.02794   0.03386   0.04192
 Alpha virt. eigenvalues --    0.04866   0.05243   0.05535   0.06055   0.06529

 Mulliken charges:
               1
     1  Mg   0.759102
     2  C    0.054482
     3  C   -0.094513
     4  C   -0.050408
     5  C   -0.039967
     6  N   -0.251343
     7  C   -0.062923
     8  C   -0.012865
     9  C   -0.086234
    10  C    0.045067
    11  C    0.105898
    12  C    0.042646
    13  C   -0.067795
    14  H    0.029764
    15  N   -0.427660
    16  C    0.168690
    17  C   -0.179774
    18  C   -0.005874
    19  C    0.153014
    20  C    0.110690
    21  C    0.011376
    22  O   -0.251728
    23  C    0.063075
    24  N   -0.333771
    25  C    0.042011
    26  C   -0.026777
    27  C   -0.024378
    28  C    0.057782
    29  C    0.077643
    30  C    0.056772
    31  C   -0.023168
    32  N   -0.306809
    33  C    0.044599
    34  C   -0.171168
    35  C    0.010083
    36  C    0.093543
    37  C    0.128523
    38  C    0.047984
    39  O   -0.187753
    40  C   -0.016127
    41  C    0.215182
    42  O   -0.223395
    43  O   -0.308780
    44  C    0.153704
    45  H   -0.020041
    46  H   -0.019651
    47  H   -0.047200
    48  H   -0.001615
    49  H   -0.006918
    50  H    0.025215
    51  H    0.015632
    52  H    0.014249
    53  H    0.007290
    54  H    0.053768
    55  H    0.015899
    56  H    0.014372
    57  H    0.004724
    58  H    0.025488
    59  H    0.037087
    60  H    0.036739
    61  H    0.034016
    62  H    0.030379
    63  H    0.013522
    64  H    0.009381
    65  H    0.021610
    66  H    0.013272
    67  H    0.003837
    68  H    0.004735
    69  H    0.001700
    70  H    0.007299
    71  H    0.023687
    72  H    0.017521
    73  H    0.045988
    74  H    0.005562
    75  H    0.044638
    76  H    0.031121
    77  H    0.040053
    78  H    0.051611
    79  H    0.044777
    80  Mg   0.837580
    81  C   -0.017887
    82  C   -0.088130
    83  C   -0.045874
    84  C   -0.061694
    85  N   -0.254126
    86  C   -0.051797
    87  C   -0.014102
    88  C   -0.090351
    89  C    0.045302
    90  C    0.114800
    91  C    0.062841
    92  C   -0.077075
    93  H    0.034328
    94  N   -0.423281
    95  C    0.162394
    96  C   -0.175295
    97  C   -0.008240
    98  C    0.151793
    99  C    0.099647
   100  C    0.015191
   101  O   -0.253702
   102  C    0.061360
   103  N   -0.349982
   104  C    0.038068
   105  C   -0.020322
   106  C   -0.033420
   107  C    0.086702
   108  C    0.073417
   109  C    0.033315
   110  C   -0.007401
   111  N   -0.323955
   112  C    0.082428
   113  C   -0.183461
   114  C    0.007975
   115  C    0.098389
   116  C    0.181766
   117  C    0.061029
   118  O   -0.150362
   119  C   -0.007091
   120  C    0.236540
   121  O   -0.247762
   122  O   -0.313642
   123  C    0.161710
   124  H   -0.020788
   125  H   -0.015995
   126  H   -0.049376
   127  H   -0.002536
   128  H   -0.004892
   129  H    0.020622
   130  H    0.014471
   131  H    0.014961
   132  H    0.013912
   133  H    0.039044
   134  H    0.019180
   135  H    0.019188
   136  H    0.007983
   137  H    0.025360
   138  H    0.039172
   139  H    0.037869
   140  H    0.035846
   141  H    0.033648
   142  H    0.013726
   143  H    0.014820
   144  H    0.024314
   145  H    0.011734
   146  H    0.007054
   147  H    0.005519
   148  H    0.002882
   149  H    0.010878
   150  H    0.016501
   151  H    0.030702
   152  H    0.056469
   153  H    0.009491
   154  H    0.053365
   155  H    0.028548
   156  H    0.013899
   157  H    0.044726
   158  H    0.061910
 Sum of Mulliken charges =  -0.00000

 Dipole moment (field-independent basis, Debye):
    X=             -0.8810    Y=              2.4254    Z=              6.3168  Tot=              6.8235
 Quadrupole moment (field-independent basis, Debye-Ang):
   XX=           -510.7856   YY=           -485.7125   ZZ=           -502.9412
   XY=            -26.1489   XZ=              8.9470   YZ=             48.9709

 Normal termination of Gaussian 16 at Thu Sep  9 03:04:24 2021.
