 Gaussian 16, Revision A.03,
 Gaussian 16:  ES64L-G16RevA.03 25-Dec-2016

 -----------------------------------
 #p cam-b3lyp/Def2SVP td=(nstates=5)
 -----------------------------------

 --------------------------------
 TDDFT excited states in gaussian
 --------------------------------
 Symbolic Z-matrix:
 Charge =  0 Multiplicity = 1

                         Standard orientation:
 ---------------------------------------------------------------------
 Center     Atomic      Atomic             Coordinates (Angstroms)
 Number     Number       Type             X           Y           Z
 ---------------------------------------------------------------------
      1         12           0       15.772787   -0.818802    0.057493
      2          6           0       16.148118    2.642891   -0.771977
      3          6           0       16.707463   -0.005030    3.236678
      4          6           0       15.889286   -3.921796    0.701290
      5          6           0       15.981207   -1.506486   -3.352685
      6          7           0       16.330022    1.109289    0.991622
      7          6           0       16.376053    2.372173    0.579098
      8          6           0       16.615133    3.390860    1.733434
      9          6           0       17.324995    2.421565    2.781556
     10          6           0       16.725901    1.099792    2.334425
     11          6           0       18.840150    2.353899    2.619603
     12          6           0       15.276065    3.968709    2.303273
     13          6           0       15.425451    5.201300    3.199799
     14          1           0       14.400845    6.233216    3.148030
     15          7           0       15.753196   -1.769623    1.789083
     16          6           0       16.154375   -1.279571    2.986660
     17          6           0       15.944011   -2.369135    3.964043
     18          6           0       15.566561   -3.594088    3.205679
     19          6           0       15.749127   -3.145159    1.849025
     20          6           0       16.056159   -2.178538    5.445544
     21          6           0       15.123347   -4.956729    3.635684
     22          8           0       15.069285   -5.942316    2.823114
     23          6           0       14.835027   -5.131327    5.070755
     24          7           0       16.134343   -2.501554   -1.123718
     25          6           0       16.068676   -3.733831   -0.607807
     26          6           0       16.081277   -4.777978   -1.684626
     27          6           0       15.923914   -3.991174   -3.065180
     28          6           0       15.930722   -2.543926   -2.514092
     29          6           0       17.332819   -5.664724   -1.742389
     30          6           0       14.759151   -4.422243   -3.991423
     31          6           0       13.435703   -4.075278   -3.347065
     32          7           0       15.842487    0.344347   -1.773701
     33          6           0       15.951206   -0.148643   -3.082065
     34          6           0       16.070454    1.018619   -3.975009
     35          6           0       16.039283    2.116168   -3.116953
     36          6           0       15.935245    1.662330   -1.771034
     37          6           0       16.246293    0.973790   -5.386216
     38          6           0       16.094462    3.565934   -3.022139
     39          8           0       16.087920    4.489156   -3.837682
     40          6           0       16.289822    3.960914   -1.491893
     41          6           0       15.298582    5.046646   -1.172615
     42          8           0       14.072615    4.813471   -1.171437
     43          8           0       15.950372    6.115983   -0.690712
     44          6           0       15.021989    7.219339   -0.326207
     45          1           0       17.212870    0.091382    4.199595
     46          1           0       15.823033   -4.998786    0.869047
     47          1           0       15.964915   -1.640607   -4.435828
     48          1           0       17.280280    4.216662    1.480343
     49          1           0       17.029372    2.644132    3.806638
     50          1           0       19.169393    2.884184    1.726117
     51          1           0       19.077427    1.292715    2.541614
     52          1           0       19.342188    2.707770    3.520442
     53          1           0       14.858571    3.265016    3.023395
     54          1           0       14.577987    4.192627    1.495886
     55          1           0       16.417865    5.643439    3.107404
     56          1           0       15.369173    4.876704    4.238871
     57          1           0       16.507853   -1.218649    5.692790
     58          1           0       16.771174   -2.916687    5.808310
     59          1           0       15.099564   -2.314304    5.950348
     60          1           0       15.727860   -4.892255    5.648892
     61          1           0       14.446557   -6.143425    5.178454
     62          1           0       14.074450   -4.408969    5.368529
     63          1           0       15.246591   -5.468289   -1.569754
     64          1           0       16.810821   -4.084257   -3.692400
     65          1           0       17.118292   -6.730668   -1.662096
     66          1           0       18.011320   -5.341845   -0.953291
     67          1           0       17.950507   -5.526351   -2.629368
     68          1           0       14.771136   -5.501693   -4.138355
     69          1           0       14.795114   -3.953260   -4.974791
     70          1           0       13.258968   -4.920926   -2.683380
     71          1           0       12.652621   -4.001477   -4.102411
     72          1           0       13.517532   -3.184051   -2.724567
     73          1           0       15.583540    1.733476   -5.800468
     74          1           0       16.013444   -0.014079   -5.783080
     75          1           0       17.305843    1.216535   -5.465495
     76          1           0       17.319098    4.301961   -1.385123
     77          1           0       15.344911    8.104703   -0.874006
     78          1           0       15.015965    7.272270    0.762631
     79          1           0       13.994961    7.121778   -0.679809
     80         12           0      -15.943316    0.800609    0.216839
     81          6           0      -15.921263   -2.764079   -0.197362
     82          6           0      -15.070205    1.038343   -3.071889
     83          6           0      -15.514436    3.913254    0.658312
     84          6           0      -15.685054    0.263906    3.650639
     85          7           0      -15.573565   -0.735846   -1.330693
     86          6           0      -15.655264   -2.056585   -1.388219
     87          6           0      -15.519226   -2.647791   -2.817046
     88          6           0      -14.700615   -1.445564   -3.497786
     89          6           0      -15.165541   -0.296940   -2.604933
     90          6           0      -13.194406   -1.584553   -3.351701
     91          6           0      -16.910415   -2.860617   -3.510814
     92          6           0      -16.872601   -3.717175   -4.778337
     93          1           0      -18.002185   -4.600107   -5.055689
     94          7           0      -15.858238    2.284529   -1.098195
     95          6           0      -15.506095    2.200485   -2.398277
     96          6           0      -15.583647    3.571665   -2.925549
     97          6           0      -15.850624    4.496314   -1.790453
     98          6           0      -15.728106    3.582970   -0.672030
     99          6           0      -15.489390    3.886778   -4.390213
    100          6           0      -16.152064    5.962825   -1.721964
    101          8           0      -16.114209    6.607015   -0.614530
    102          6           0      -16.401283    6.641374   -3.002179
    103          7           0      -15.430893    1.930674    1.884983
    104          6           0      -15.362962    3.271837    1.817175
    105          6           0      -15.250044    3.882597    3.193622
    106          6           0      -15.500724    2.680955    4.218713
    107          6           0      -15.632582    1.514979    3.214474
    108          6           0      -13.915942    4.555698    3.515330
    109          6           0      -16.623611    2.878468    5.273596
    110          6           0      -17.972199    2.914091    4.591357
    111          7           0      -16.008440   -0.911805    1.532681
    112          6           0      -15.853387   -0.915377    2.936263
    113          6           0      -15.858955   -2.327166    3.371298
    114          6           0      -15.994846   -3.053630    2.178708
    115          6           0      -16.048445   -2.158595    1.076192
    116          6           0      -15.700000   -2.785965    4.709337
    117          6           0      -16.094455   -4.374540    1.600814
    118          8           0      -16.192379   -5.514985    2.051961
    119          6           0      -15.924089   -4.251021    0.025335
    120          6           0      -17.016967   -5.054712   -0.624461
    121          8           0      -18.207984   -4.719609   -0.498868
    122          8           0      -16.465569   -5.953089   -1.460688
    123          6           0      -17.510247   -6.766992   -2.137463
    124          1           0      -14.576780    1.219937   -4.027110
    125          1           0      -15.470614    4.982615    0.877464
    126          1           0      -15.707671    0.016947    4.714206
    127          1           0      -14.948227   -3.566625   -2.875999
    128          1           0      -15.018209   -1.283052   -4.524472
    129          1           0      -12.926410   -2.410479   -2.709693
    130          1           0      -12.852427   -0.649440   -2.927835
    131          1           0      -12.725309   -1.658246   -4.337024
    132          1           0      -17.246948   -1.907310   -3.938232
    133          1           0      -17.622212   -3.268827   -2.819924
    134          1           0      -15.925636   -4.261092   -4.880153
    135          1           0      -16.895271   -3.053739   -5.646294
    136          1           0      -15.127826    3.024968   -4.964629
    137          1           0      -14.702025    4.639557   -4.505310
    138          1           0      -16.421561    4.285464   -4.796131
    139          1           0      -15.534684    6.523064   -3.648303
    140          1           0      -16.685971    7.662494   -2.741127
    141          1           0      -17.238585    6.144166   -3.504488
    142          1           0      -16.011093    4.638225    3.345037
    143          1           0      -14.608819    2.471986    4.827530
    144          1           0      -14.022414    5.616411    3.811332
    145          1           0      -13.270751    4.464856    2.651607
    146          1           0      -13.329653    4.070331    4.293721
    147          1           0      -16.505050    3.840995    5.777235
    148          1           0      -16.634340    2.112307    6.041639
    149          1           0      -18.052503    3.952933    4.257526
    150          1           0      -18.763907    2.663116    5.294384
    151          1           0      -17.978044    2.279285    3.697701
    152          1           0      -16.431353   -3.569074    4.858916
    153          1           0      -15.830492   -1.977052    5.425166
    154          1           0      -14.665931   -3.139030    4.672911
    155          1           0      -14.932596   -4.628607   -0.227556
    156          1           0      -17.278696   -7.817096   -1.934097
    157          1           0      -17.500886   -6.444921   -3.195729
    158          1           0      -18.523432   -6.696772   -1.759339
 ---------------------------------------------------------------------

 SCF Done:  E(RCAM-B3LYP) =  -4069.81178253     A.U. after   19 cycles

 Excitation energies and oscillator strengths:

 Excited State   1:      Singlet-A      1.6754 eV  740.04 nm  f=0.2327  <S**2>=0.000
     310 -> 316        0.16909
     311 -> 314        0.15453
     312 -> 313        0.66842
     310 <- 316        0.10194
 This state for optimization and/or second-order correction.
 Total Energy, E(TD-HF/TD-DFT) =  -4069.75021390
 Copying the excited state density for this state as the 1-particle RhoCI density.

 Excited State   2:      Singlet-A      1.6801 eV  737.94 nm  f=0.5445  <S**2>=0.000
     309 -> 315        0.17110
     311 -> 314        0.66806
     312 -> 313       -0.15449
     309 <- 315        0.10244

 Excited State   3:      Singlet-A      2.1861 eV  567.14 nm  f=0.0961  <S**2>=0.000
     310 -> 313        0.64215
     312 -> 316       -0.27299

 Excited State   4:      Singlet-A      2.1926 eV  565.47 nm  f=0.1041  <S**2>=0.000
     309 -> 314        0.64038
     311 -> 315       -0.27818

 Excited State   5:      Singlet-A      3.0660 eV  404.39 nm  f=0.0000  <S**2>=0.000
     311 -> 313        0.70711

 The electronic state is 1-A.
 Alpha  occ. eigenvalues --  -46.87796 -46.87660 -19.26349 -19.26286 -19.19161
 Alpha  occ. eigenvalues --  -19.19021 -19.18812 -19.18712 -19.18171 -19.18052
 Alpha  occ. eigenvalues --  -14.42497 -14.42449 -14.41449 -14.41360 -14.39402
 Alpha  occ. eigenvalues --  -14.39352 -14.38600 -14.38587 -10.39091 -10.39081
 Alpha  occ. eigenvalues --  -10.35445 -10.35389 -10.34391 -10.34229 -10.31756
 Alpha  occ. eigenvalues --  -10.31681 -10.31405 -10.31308 -10.31022 -10.30908
 Alpha  occ. eigenvalues --  -10.30570 -10.30507 -10.30398 -10.30361 -10.30206
 Alpha  occ. eigenvalues --  -10.30141 -10.29921 -10.29896 -10.29630 -10.29436
 Alpha  occ. eigenvalues --  -10.29401 -10.29254 -10.28748 -10.28716 -10.28650
 Alpha  occ. eigenvalues --  -10.28536 -10.28404 -10.28364 -10.28137 -10.28115
 Alpha  occ. eigenvalues --  -10.28001 -10.27793 -10.27726 -10.27668 -10.27583
 Alpha  occ. eigenvalues --  -10.27521 -10.27502 -10.27483 -10.27478 -10.27466
 Alpha  occ. eigenvalues --  -10.27461 -10.27450 -10.27403 -10.27378 -10.27159
 Alpha  occ. eigenvalues --  -10.27050 -10.26703 -10.26690 -10.26410 -10.26404
 Alpha  occ. eigenvalues --  -10.26233 -10.26187 -10.26142 -10.26020 -10.26019
 Alpha  occ. eigenvalues --  -10.25935 -10.25855 -10.25847 -10.25436 -10.25399
 Alpha  occ. eigenvalues --  -10.24873 -10.24833 -10.24787 -10.24735 -10.24690
 Alpha  occ. eigenvalues --  -10.24690  -3.16539  -3.16410  -1.91421  -1.91292
 Alpha  occ. eigenvalues --   -1.91007  -1.90881  -1.90849  -1.90718  -1.16643
 Alpha  occ. eigenvalues --   -1.16634  -1.08659  -1.08629  -1.07213  -1.06965
 Alpha  occ. eigenvalues --   -1.06946  -1.06644  -1.04580  -1.04495  -1.03760
 Alpha  occ. eigenvalues --   -1.03663  -1.03234  -1.03039  -1.02411  -1.02111
 Alpha  occ. eigenvalues --   -0.91987  -0.91972  -0.89520  -0.89496  -0.89187
 Alpha  occ. eigenvalues --   -0.89149  -0.88287  -0.88222  -0.87871  -0.87795
 Alpha  occ. eigenvalues --   -0.87683  -0.87672  -0.87272  -0.87118  -0.84998
 Alpha  occ. eigenvalues --   -0.84981  -0.83938  -0.83878  -0.82965  -0.82930
 Alpha  occ. eigenvalues --   -0.82651  -0.82647  -0.81596  -0.81586  -0.80596
 Alpha  occ. eigenvalues --   -0.80442  -0.78796  -0.78635  -0.77218  -0.77144
 Alpha  occ. eigenvalues --   -0.76934  -0.76898  -0.75923  -0.75837  -0.74898
 Alpha  occ. eigenvalues --   -0.74804  -0.72774  -0.72699  -0.71672  -0.71580
 Alpha  occ. eigenvalues --   -0.69909  -0.69760  -0.68872  -0.68826  -0.67641
 Alpha  occ. eigenvalues --   -0.67601  -0.67218  -0.67198  -0.65286  -0.65270
 Alpha  occ. eigenvalues --   -0.64854  -0.64770  -0.64653  -0.64621  -0.64270
 Alpha  occ. eigenvalues --   -0.64205  -0.62298  -0.62279  -0.60441  -0.60339
 Alpha  occ. eigenvalues --   -0.59803  -0.59795  -0.58993  -0.58987  -0.58504
 Alpha  occ. eigenvalues --   -0.58426  -0.57585  -0.57555  -0.57309  -0.57237
 Alpha  occ. eigenvalues --   -0.56310  -0.56204  -0.55979  -0.55886  -0.55519
 Alpha  occ. eigenvalues --   -0.55451  -0.55340  -0.55249  -0.54525  -0.54489
 Alpha  occ. eigenvalues --   -0.53910  -0.53894  -0.53298  -0.53228  -0.53221
 Alpha  occ. eigenvalues --   -0.53140  -0.52915  -0.52902  -0.52754  -0.52665
 Alpha  occ. eigenvalues --   -0.52440  -0.52404  -0.51917  -0.51887  -0.51656
 Alpha  occ. eigenvalues --   -0.51615  -0.51202  -0.51196  -0.50569  -0.50472
 Alpha  occ. eigenvalues --   -0.50032  -0.49978  -0.49916  -0.49868  -0.49513
 Alpha  occ. eigenvalues --   -0.49486  -0.49214  -0.49201  -0.49103  -0.49095
 Alpha  occ. eigenvalues --   -0.48593  -0.48558  -0.48461  -0.48444  -0.48377
 Alpha  occ. eigenvalues --   -0.48337  -0.47694  -0.47593  -0.47296  -0.47117
 Alpha  occ. eigenvalues --   -0.46797  -0.46709  -0.46554  -0.46552  -0.46359
 Alpha  occ. eigenvalues --   -0.46271  -0.46163  -0.46087  -0.45823  -0.45823
 Alpha  occ. eigenvalues --   -0.45210  -0.45202  -0.44578  -0.44514  -0.44505
 Alpha  occ. eigenvalues --   -0.44475  -0.44145  -0.44126  -0.44087  -0.44078
 Alpha  occ. eigenvalues --   -0.44019  -0.43937  -0.43554  -0.43495  -0.43385
 Alpha  occ. eigenvalues --   -0.43385  -0.43027  -0.42930  -0.42902  -0.42700
 Alpha  occ. eigenvalues --   -0.42656  -0.42555  -0.42010  -0.41965  -0.41704
 Alpha  occ. eigenvalues --   -0.41669  -0.41533  -0.41458  -0.41140  -0.40989
 Alpha  occ. eigenvalues --   -0.40868  -0.40821  -0.40720  -0.40697  -0.40572
 Alpha  occ. eigenvalues --   -0.40495  -0.40232  -0.40224  -0.39443  -0.39428
 Alpha  occ. eigenvalues --   -0.38469  -0.38351  -0.37747  -0.37652  -0.37321
 Alpha  occ. eigenvalues --   -0.37267  -0.37262  -0.37198  -0.36772  -0.36714
 Alpha  occ. eigenvalues --   -0.36218  -0.36193  -0.34286  -0.34254  -0.33862
 Alpha  occ. eigenvalues --   -0.33771  -0.33186  -0.33176  -0.31342  -0.31271
 Alpha  occ. eigenvalues --   -0.31035  -0.30972  -0.30030  -0.29956  -0.29448
 Alpha  occ. eigenvalues --   -0.29327  -0.29322  -0.29212  -0.24080  -0.24036
 Alpha  occ. eigenvalues --   -0.21127  -0.21117
 Alpha virt. eigenvalues --   -0.08792  -0.08774  -0.01749  -0.01684  -0.00056
 Alpha virt. eigenvalues --   -0.00027   0.02200   0.02206   0.03122   0.03227
 Alpha virt. eigenvalues --    0.04719   0.04731   0.05097   0.05165   0.06179

 Mulliken charges:
               1
     1  Mg   0.838760
     2  C   -0.002953
     3  C   -0.094108
     4  C   -0.045858
     5  C   -0.063987
     6  N   -0.256776
     7  C   -0.052503
     8  C   -0.014014
     9  C   -0.087003
    10  C    0.046331
    11  C    0.104811
    12  C    0.053464
    13  C   -0.071818
    14  H    0.036137
    15  N   -0.433148
    16  C    0.168431
    17  C   -0.177125
    18  C   -0.003970
    19  C    0.148714
    20  C    0.110168
    21  C    0.012291
    22  O   -0.249606
    23  C    0.062473
    24  N   -0.341133
    25  C    0.041244
    26  C   -0.028168
    27  C   -0.023992
    28  C    0.074844
    29  C    0.076171
    30  C    0.035151
    31  C   -0.004502
    32  N   -0.310474
    33  C    0.080401
    34  C   -0.169758
    35  C    0.008339
    36  C    0.082982
    37  C    0.127321
    38  C    0.046088
    39  O   -0.188497
    40  C   -0.005322
    41  C    0.212864
    42  O   -0.257116
    43  O   -0.304788
    44  C    0.157698
    45  H   -0.017570
    46  H   -0.016822
    47  H   -0.041536
    48  H    0.000931
    49  H   -0.004001
    50  H    0.025466
    51  H    0.016448
    52  H    0.016681
    53  H    0.011227
    54  H    0.044103
    55  H    0.017870
    56  H    0.017984
    57  H    0.005895
    58  H    0.026855
    59  H    0.039611
    60  H    0.037360
    61  H    0.035698
    62  H    0.031532
    63  H    0.016560
    64  H    0.009445
    65  H    0.023224
    66  H    0.012561
    67  H    0.004740
    68  H    0.006356
    69  H    0.004685
    70  H    0.008803
    71  H    0.018084
    72  H    0.028995
    73  H    0.047512
    74  H    0.009074
    75  H    0.045996
    76  H    0.035148
    77  H    0.042927
    78  H    0.046431
    79  H    0.053665
    80  Mg   0.837839
    81  C   -0.016805
    82  C   -0.087758
    83  C   -0.045482
    84  C   -0.064856
    85  N   -0.254565
    86  C   -0.049836
    87  C   -0.015104
    88  C   -0.090497
    89  C    0.045750
    90  C    0.114341
    91  C    0.062526
    92  C   -0.077913
    93  H    0.034895
    94  N   -0.423496
    95  C    0.162941
    96  C   -0.174562
    97  C   -0.007784
    98  C    0.152105
    99  C    0.099336
   100  C    0.015598
   101  O   -0.253171
   102  C    0.061188
   103  N   -0.350067
   104  C    0.037537
   105  C   -0.019865
   106  C   -0.034779
   107  C    0.088865
   108  C    0.073646
   109  C    0.034744
   110  C   -0.007669
   111  N   -0.324110
   112  C    0.078436
   113  C   -0.163164
   114  C    0.002250
   115  C    0.096182
   116  C    0.131484
   117  C    0.042354
   118  O   -0.187915
   119  C    0.000904
   120  C    0.211272
   121  O   -0.251025
   122  O   -0.305631
   123  C    0.152030
   124  H   -0.019569
   125  H   -0.015555
   126  H   -0.040503
   127  H   -0.000631
   128  H   -0.004284
   129  H    0.022466
   130  H    0.014465
   131  H    0.016376
   132  H    0.013922
   133  H    0.037651
   134  H    0.020815
   135  H    0.019628
   136  H    0.008816
   137  H    0.026240
   138  H    0.039827
   139  H    0.038320
   140  H    0.036425
   141  H    0.033898
   142  H    0.014399
   143  H    0.012393
   144  H    0.025145
   145  H    0.011697
   146  H    0.005660
   147  H    0.006242
   148  H    0.003616
   149  H    0.010940
   150  H    0.017906
   151  H    0.030116
   152  H    0.045978
   153  H    0.008480
   154  H    0.046925
   155  H    0.035046
   156  H    0.043903
   157  H    0.049519
   158  H    0.053565
 Sum of Mulliken charges =  -0.00000

 Dipole moment (field-independent basis, Debye):
    X=              4.0606    Y=              1.0003    Z=              0.5084  Tot=              4.2128
 Quadrupole moment (field-independent basis, Debye-Ang):
   XX=           -518.8907   YY=           -548.4232   ZZ=           -450.2864
   XY=            -39.7511   XZ=            124.3278   YZ=             45.1717

 Normal termination of Gaussian 16 at Sat Sep  4 17:32:48 2021.
