 Gaussian 16, Revision A.03,
 Gaussian 16:  ES64L-G16RevA.03 25-Dec-2016

 -----------------------------------
 #p cam-b3lyp/Def2SVP td=(nstates=5)
 -----------------------------------

 --------------------------------
 TDDFT excited states in gaussian
 --------------------------------
 Symbolic Z-matrix:
 Charge =  0 Multiplicity = 1

                         Standard orientation:
 ---------------------------------------------------------------------
 Center     Atomic      Atomic             Coordinates (Angstroms)
 Number     Number       Type             X           Y           Z
 ---------------------------------------------------------------------
      1         12           0       15.528245    0.660271    0.367937
      2          6           0       15.803420   -2.430472   -1.416383
      3          6           0       16.444921    2.235505   -2.516748
      4          6           0       15.734164    3.352271    2.031474
      5          6           0       15.750207   -1.190310    3.312720
      6          7           0       16.031990   -0.108751   -1.645888
      7          6           0       16.041327   -1.309907   -2.215369
      8          6           0       16.253322   -1.260591   -3.758094
      9          6           0       16.992321    0.148058   -3.865734
     10          6           0       16.430322    0.812887   -2.621513
     11          6           0       18.508504    0.052657   -3.729382
     12          6           0       14.899341   -1.258788   -4.544518
     13          6           0       15.015139   -1.540028   -6.045468
     14          1           0       13.961481   -2.302076   -6.698487
     15          7           0       15.538754    2.541466   -0.235258
     16          6           0       15.927908    3.000599   -1.448948
     17          6           0       15.750356    4.468007   -1.405702
     18          6           0       15.406611    4.843702   -0.006135
     19          6           0       15.573954    3.580995    0.666877
     20          6           0       15.859617    5.346021   -2.614381
     21          6           0       15.003123    6.137957    0.626503
     22          8           0       14.975725    6.295598    1.894956
     23          6           0       14.722395    7.257822   -0.290087
     24          7           0       15.935501    1.061248    2.375671
     25          6           0       15.905845    2.311718    2.849411
     26          6           0       15.946289    2.328680    4.348749
     27          6           0       15.764180    0.811778    4.813074
     28          6           0       15.730743    0.140333    3.417971
     29          6           0       17.222466    2.905094    4.977342
     30          6           0       14.610547    0.513127    5.803205
     31          6           0       13.278883    0.733386    5.121109
     32          7           0       15.561606   -1.444600    0.896569
     33          6           0       15.682033   -1.988937    2.183375
     34          6           0       15.766441   -3.452671    2.027082
     35          6           0       15.705533   -3.658418    0.650200
     36          6           0       15.616807   -2.401248   -0.013083
     37          6           0       15.941022   -4.394427    3.079247
     38          6           0       15.719579   -4.646512   -0.416256
     39          8           0       15.685332   -5.877170   -0.458681
     40          6           0       15.906285   -3.885118   -1.802347
     41          6           0       14.885094   -4.431793   -2.762360
     42          8           0       13.666267   -4.234957   -2.580474
     43          8           0       15.507016   -4.890671   -3.859259
     44          6           0       14.548233   -5.420408   -4.865374
     45          1           0       16.949058    2.816654   -3.291379
     46          1           0       15.698893    4.250647    2.651244
     47          1           0       15.735851   -1.837466    4.191603
     48          1           0       16.894245   -2.048461   -4.154203
     49          1           0       16.692271    0.697923   -4.757552
     50          1           0       18.820955   -0.953792   -3.451252
     51          1           0       18.775760    0.763933   -2.947619
     52          1           0       19.001834    0.404353   -4.635865
     53          1           0       14.503309   -0.243785   -4.575960
     54          1           0       14.193764   -1.961232   -4.099481
     55          1           0       15.994400   -1.946127   -6.300498
     56          1           0       14.969939   -0.588702   -6.575691
     57          1           0       16.284231    4.809579   -3.462011
     58          1           0       16.595989    6.115517   -2.383426
     59          1           0       14.908158    5.812604   -2.870034
     60          1           0       15.609067    7.462369   -0.890522
     61          1           0       14.363086    8.074853    0.334577
     62          1           0       13.942081    6.955013   -0.988919
     63          1           0       15.131797    2.926884    4.755173
     64          1           0       16.652281    0.428612    5.316198
     65          1           0       17.038515    3.738552    5.655735
     66          1           0       17.892876    3.198582    4.170058
     67          1           0       17.834416    2.181222    5.514876
     68          1           0       14.653004    1.195177    6.651705
     69          1           0       14.631427   -0.504229    6.194104
     70          1           0       13.127455    1.807328    5.223815
     71          1           0       12.492701    0.177527    5.633113
     72          1           0       13.336392    0.512908    4.055009
     73          1           0       15.256187   -5.216101    2.869911
     74          1           0       15.735701   -3.945354    4.050730
     75          1           0       16.993091   -4.648276    2.950534
     76          1           0       16.925619   -4.081702   -2.133157
     77          1           0       14.844862   -6.446680   -5.082196
     78          1           0       14.542605   -4.709930   -5.692171
     79          1           0       13.523784   -5.570310   -4.522778
     80         12           0      -16.204512    0.294733   -0.291859
     81          6           0      -13.850559   -1.792644    1.434650
     82          6           0      -14.308435    2.965236    0.660988
     83          6           0      -18.488847    2.190219   -1.412755
     84          6           0      -18.464725   -2.352677   -0.123401
     85          7           0      -14.342099    0.439728    0.892485
     86          6           0      -13.504631   -0.425282    1.444520
     87          6           0      -12.185646    0.202189    1.969974
     88          6           0      -12.704863    1.706140    2.187741
     89          6           0      -13.834947    1.725726    1.160512
     90          6           0      -13.305757    1.942090    3.563458
     91          6           0      -11.030721    0.141122    0.909580
     92          6           0       -9.636619    0.452541    1.458436
     93          1           0       -8.493537   -0.267680    0.904261
     94          7           0      -16.149575    2.214097   -0.793471
     95          6           0      -15.299614    3.152984   -0.327266
     96          6           0      -15.684327    4.408684   -0.990103
     97          6           0      -16.934853    4.168524   -1.760325
     98          6           0      -17.258063    2.824359   -1.325776
     99          6           0      -14.848360    5.653686   -0.922673
    100          6           0      -17.718046    5.014085   -2.718355
    101          8           0      -18.902865    4.692685   -3.086798
    102          6           0      -17.093930    6.276804   -3.139687
    103          7           0      -18.255926    0.046960   -0.521382
    104          6           0      -19.009704    1.007925   -1.083789
    105          6           0      -20.397556    0.500489   -1.394862
    106          6           0      -20.343857   -1.078184   -1.144844
    107          6           0      -18.895224   -1.202758   -0.623929
    108          6           0      -21.529297    1.108447   -0.566659
    109          6           0      -20.788137   -1.992264   -2.319462
    110          6           0      -19.801678   -1.883337   -3.459821
    111          7           0      -16.135362   -1.771961    0.334254
    112          6           0      -17.203128   -2.696000    0.345526
    113          6           0      -16.696689   -3.939018    0.962649
    114          6           0      -15.365422   -3.641858    1.291146
    115          6           0      -15.069437   -2.301218    0.924309
    116          6           0      -17.455151   -5.120614    1.196495
    117          6           0      -14.146361   -4.154013    1.874491
    118          8           0      -13.773325   -5.253375    2.281899
    119          6           0      -13.148781   -2.938925    2.108562
    120          6           0      -11.797487   -3.339511    1.583150
    121          8           0      -11.626331   -3.541726    0.368071
    122          8           0      -10.886167   -3.206432    2.564046
    123          6           0       -9.527968   -3.581541    2.088221
    124          1           0      -13.914643    3.884333    1.095815
    125          1           0      -19.282614    2.765474   -1.894921
    126          1           0      -19.078786   -3.255783   -0.123598
    127          1           0      -11.829565   -0.207655    2.907518
    128          1           0      -11.938306    2.430568    1.925154
    129          1           0      -13.392244    1.025555    4.127923
    130          1           0      -14.283237    2.371866    3.387741
    131          1           0      -12.733153    2.704619    4.099186
    132          1           0      -11.146274    0.975470    0.205841
    133          1           0      -11.019442   -0.809536    0.412839
    134          1           0       -9.610606    0.429503    2.554680
    135          1           0       -9.387222    1.486046    1.206085
    136          1           0      -14.074078    5.576917   -0.149374
    137          1           0      -15.502614    6.459587   -0.572895
    138          1           0      -14.430387    5.933405   -1.892063
    139          1           0      -16.891758    6.889427   -2.264319
    140          1           0      -17.764258    6.697428   -3.891768
    141          1           0      -16.124061    6.052064   -3.597344
    142          1           0      -20.652987    0.683646   -2.431342
    143          1           0      -21.002369   -1.382401   -0.318024
    144          1           0      -22.315899    1.582231   -1.183798
    145          1           0      -21.101675    1.826033    0.120903
    146          1           0      -22.032934    0.416020    0.105726
    147          1           0      -21.753447   -1.662750   -2.711576
    148          1           0      -20.893331   -3.035074   -2.039334
    149          1           0      -20.132162   -0.983282   -3.986874
    150          1           0      -19.859629   -2.760191   -4.101548
    151          1           0      -18.788443   -1.693655   -3.086958
    152          1           0      -16.829594   -5.954506    0.907032
    153          1           0      -18.389008   -5.110586    0.638299
    154          1           0      -17.620067   -5.036461    2.273987
    155          1           0      -13.127359   -2.734309    3.179662
    156          1           0       -9.154886   -4.356217    2.765254
    157          1           0       -8.956135   -2.635745    2.041099
    158          1           0       -9.453266   -4.083604    1.130724
 ---------------------------------------------------------------------

 SCF Done:  E(RCAM-B3LYP) =  -4069.81176669     A.U. after   19 cycles

 Excitation energies and oscillator strengths:

 Excited State   1:      Singlet-A      1.6753 eV  740.07 nm  f=0.2066  <S**2>=0.000
     310 -> 316        0.16817
     311 -> 314       -0.16883
     312 -> 313        0.66496
     310 <- 316        0.10138
 This state for optimization and/or second-order correction.
 Total Energy, E(TD-HF/TD-DFT) =  -4069.75020026
 Copying the excited state density for this state as the 1-particle RhoCI density.

 Excited State   2:      Singlet-A      1.6801 eV  737.95 nm  f=0.5706  <S**2>=0.000
     309 -> 315        0.17018
     311 -> 314        0.66459
     312 -> 313        0.16878
     309 <- 315        0.10188

 Excited State   3:      Singlet-A      2.1860 eV  567.16 nm  f=0.1020  <S**2>=0.000
     310 -> 313        0.64241
     312 -> 316       -0.27304

 Excited State   4:      Singlet-A      2.1925 eV  565.50 nm  f=0.0993  <S**2>=0.000
     309 -> 314        0.64064
     311 -> 315       -0.27822

 Excited State   5:      Singlet-A      3.0673 eV  404.21 nm  f=0.0000  <S**2>=0.000
     311 -> 313        0.70710

 The electronic state is 1-A.
 Alpha  occ. eigenvalues --  -46.87798 -46.87659 -19.26333 -19.26276 -19.19147
 Alpha  occ. eigenvalues --  -19.19013 -19.18820 -19.18714 -19.18167 -19.18046
 Alpha  occ. eigenvalues --  -14.42495 -14.42451 -14.41451 -14.41358 -14.39404
 Alpha  occ. eigenvalues --  -14.39350 -14.38598 -14.38588 -10.39077 -10.39073
 Alpha  occ. eigenvalues --  -10.35454 -10.35392 -10.34387 -10.34223 -10.31733
 Alpha  occ. eigenvalues --  -10.31668 -10.31405 -10.31305 -10.31020 -10.30909
 Alpha  occ. eigenvalues --  -10.30570 -10.30509 -10.30396 -10.30358 -10.30210
 Alpha  occ. eigenvalues --  -10.30141 -10.29923 -10.29894 -10.29632 -10.29436
 Alpha  occ. eigenvalues --  -10.29399 -10.29256 -10.28746 -10.28711 -10.28637
 Alpha  occ. eigenvalues --  -10.28531 -10.28402 -10.28366 -10.28134 -10.28114
 Alpha  occ. eigenvalues --  -10.27999 -10.27794 -10.27728 -10.27667 -10.27586
 Alpha  occ. eigenvalues --  -10.27520 -10.27505 -10.27484 -10.27481 -10.27466
 Alpha  occ. eigenvalues --  -10.27463 -10.27454 -10.27404 -10.27378 -10.27155
 Alpha  occ. eigenvalues --  -10.27043 -10.26700 -10.26681 -10.26418 -10.26417
 Alpha  occ. eigenvalues --  -10.26232 -10.26190 -10.26140 -10.26021 -10.26020
 Alpha  occ. eigenvalues --  -10.25933 -10.25849 -10.25842 -10.25440 -10.25401
 Alpha  occ. eigenvalues --  -10.24870 -10.24833 -10.24790 -10.24733 -10.24695
 Alpha  occ. eigenvalues --  -10.24689  -3.16541  -3.16409  -1.91422  -1.91291
 Alpha  occ. eigenvalues --   -1.91009  -1.90879  -1.90851  -1.90716  -1.16627
 Alpha  occ. eigenvalues --   -1.16625  -1.08652  -1.08624  -1.07222  -1.06967
 Alpha  occ. eigenvalues --   -1.06932  -1.06636  -1.04581  -1.04492  -1.03762
 Alpha  occ. eigenvalues --   -1.03661  -1.03235  -1.03037  -1.02412  -1.02110
 Alpha  occ. eigenvalues --   -0.91983  -0.91972  -0.89523  -0.89494  -0.89186
 Alpha  occ. eigenvalues --   -0.89145  -0.88290  -0.88221  -0.87870  -0.87792
 Alpha  occ. eigenvalues --   -0.87681  -0.87673  -0.87277  -0.87119  -0.84994
 Alpha  occ. eigenvalues --   -0.84981  -0.83940  -0.83876  -0.82972  -0.82932
 Alpha  occ. eigenvalues --   -0.82648  -0.82648  -0.81587  -0.81583  -0.80596
 Alpha  occ. eigenvalues --   -0.80437  -0.78799  -0.78634  -0.77219  -0.77141
 Alpha  occ. eigenvalues --   -0.76932  -0.76892  -0.75921  -0.75832  -0.74900
 Alpha  occ. eigenvalues --   -0.74802  -0.72775  -0.72697  -0.71673  -0.71578
 Alpha  occ. eigenvalues --   -0.69912  -0.69758  -0.68872  -0.68822  -0.67642
 Alpha  occ. eigenvalues --   -0.67598  -0.67219  -0.67193  -0.65285  -0.65265
 Alpha  occ. eigenvalues --   -0.64853  -0.64767  -0.64648  -0.64620  -0.64272
 Alpha  occ. eigenvalues --   -0.64203  -0.62294  -0.62269  -0.60445  -0.60339
 Alpha  occ. eigenvalues --   -0.59803  -0.59792  -0.58990  -0.58988  -0.58504
 Alpha  occ. eigenvalues --   -0.58422  -0.57582  -0.57547  -0.57310  -0.57235
 Alpha  occ. eigenvalues --   -0.56310  -0.56201  -0.55974  -0.55876  -0.55522
 Alpha  occ. eigenvalues --   -0.55447  -0.55340  -0.55244  -0.54523  -0.54483
 Alpha  occ. eigenvalues --   -0.53906  -0.53893  -0.53300  -0.53225  -0.53222
 Alpha  occ. eigenvalues --   -0.53136  -0.52914  -0.52896  -0.52758  -0.52666
 Alpha  occ. eigenvalues --   -0.52443  -0.52402  -0.51914  -0.51883  -0.51652
 Alpha  occ. eigenvalues --   -0.51616  -0.51197  -0.51195  -0.50577  -0.50475
 Alpha  occ. eigenvalues --   -0.50035  -0.49977  -0.49921  -0.49868  -0.49515
 Alpha  occ. eigenvalues --   -0.49484  -0.49214  -0.49198  -0.49099  -0.49094
 Alpha  occ. eigenvalues --   -0.48591  -0.48552  -0.48464  -0.48446  -0.48375
 Alpha  occ. eigenvalues --   -0.48337  -0.47695  -0.47591  -0.47298  -0.47116
 Alpha  occ. eigenvalues --   -0.46798  -0.46706  -0.46553  -0.46548  -0.46360
 Alpha  occ. eigenvalues --   -0.46268  -0.46163  -0.46082  -0.45819  -0.45816
 Alpha  occ. eigenvalues --   -0.45208  -0.45204  -0.44576  -0.44509  -0.44509
 Alpha  occ. eigenvalues --   -0.44472  -0.44147  -0.44123  -0.44087  -0.44076
 Alpha  occ. eigenvalues --   -0.44019  -0.43935  -0.43544  -0.43492  -0.43386
 Alpha  occ. eigenvalues --   -0.43381  -0.43027  -0.42922  -0.42895  -0.42697
 Alpha  occ. eigenvalues --   -0.42655  -0.42553  -0.42011  -0.41961  -0.41704
 Alpha  occ. eigenvalues --   -0.41665  -0.41532  -0.41453  -0.41141  -0.40986
 Alpha  occ. eigenvalues --   -0.40869  -0.40827  -0.40719  -0.40694  -0.40574
 Alpha  occ. eigenvalues --   -0.40492  -0.40231  -0.40218  -0.39446  -0.39426
 Alpha  occ. eigenvalues --   -0.38471  -0.38349  -0.37746  -0.37645  -0.37323
 Alpha  occ. eigenvalues --   -0.37264  -0.37262  -0.37194  -0.36760  -0.36709
 Alpha  occ. eigenvalues --   -0.36213  -0.36191  -0.34287  -0.34251  -0.33851
 Alpha  occ. eigenvalues --   -0.33765  -0.33187  -0.33173  -0.31350  -0.31273
 Alpha  occ. eigenvalues --   -0.31036  -0.30970  -0.30026  -0.29950  -0.29451
 Alpha  occ. eigenvalues --   -0.29326  -0.29322  -0.29209  -0.24081  -0.24034
 Alpha  occ. eigenvalues --   -0.21129  -0.21115
 Alpha virt. eigenvalues --   -0.08790  -0.08775  -0.01752  -0.01682  -0.00060
 Alpha virt. eigenvalues --   -0.00027   0.02200   0.02210   0.03118   0.03229
 Alpha virt. eigenvalues --    0.04718   0.04734   0.05104   0.05177   0.06181

 Mulliken charges:
               1
     1  Mg   0.838688
     2  C   -0.002940
     3  C   -0.094109
     4  C   -0.045935
     5  C   -0.063956
     6  N   -0.256784
     7  C   -0.052456
     8  C   -0.014007
     9  C   -0.086983
    10  C    0.046319
    11  C    0.104806
    12  C    0.053462
    13  C   -0.071839
    14  H    0.036222
    15  N   -0.433141
    16  C    0.168405
    17  C   -0.177153
    18  C   -0.004039
    19  C    0.148726
    20  C    0.110171
    21  C    0.012248
    22  O   -0.249687
    23  C    0.062498
    24  N   -0.341128
    25  C    0.041258
    26  C   -0.028165
    27  C   -0.023951
    28  C    0.074807
    29  C    0.076171
    30  C    0.035131
    31  C   -0.004490
    32  N   -0.310468
    33  C    0.080415
    34  C   -0.169708
    35  C    0.008393
    36  C    0.082985
    37  C    0.127307
    38  C    0.046140
    39  O   -0.188354
    40  C   -0.005353
    41  C    0.212907
    42  O   -0.257098
    43  O   -0.304800
    44  C    0.157659
    45  H   -0.017591
    46  H   -0.016885
    47  H   -0.041491
    48  H    0.000974
    49  H   -0.004017
    50  H    0.025490
    51  H    0.016428
    52  H    0.016678
    53  H    0.011184
    54  H    0.044140
    55  H    0.017888
    56  H    0.017947
    57  H    0.005901
    58  H    0.026811
    59  H    0.039517
    60  H    0.037364
    61  H    0.035572
    62  H    0.031475
    63  H    0.016493
    64  H    0.009473
    65  H    0.023166
    66  H    0.012563
    67  H    0.004760
    68  H    0.006326
    69  H    0.004753
    70  H    0.008719
    71  H    0.018111
    72  H    0.029007
    73  H    0.047615
    74  H    0.009100
    75  H    0.046034
    76  H    0.035178
    77  H    0.043003
    78  H    0.046413
    79  H    0.053733
    80  Mg   0.837821
    81  C   -0.016794
    82  C   -0.087764
    83  C   -0.045514
    84  C   -0.064923
    85  N   -0.254555
    86  C   -0.049826
    87  C   -0.015085
    88  C   -0.090494
    89  C    0.045746
    90  C    0.114373
    91  C    0.062522
    92  C   -0.077981
    93  H    0.035109
    94  N   -0.423495
    95  C    0.162915
    96  C   -0.174630
    97  C   -0.007813
    98  C    0.152103
    99  C    0.099373
   100  C    0.015550
   101  O   -0.253218
   102  C    0.061204
   103  N   -0.350066
   104  C    0.037511
   105  C   -0.019816
   106  C   -0.034811
   107  C    0.088934
   108  C    0.073664
   109  C    0.034743
   110  C   -0.007687
   111  N   -0.324120
   112  C    0.078461
   113  C   -0.163132
   114  C    0.002270
   115  C    0.096204
   116  C    0.131490
   117  C    0.042393
   118  O   -0.187778
   119  C    0.000906
   120  C    0.211283
   121  O   -0.250994
   122  O   -0.305643
   123  C    0.151973
   124  H   -0.019650
   125  H   -0.015603
   126  H   -0.040468
   127  H   -0.000601
   128  H   -0.004284
   129  H    0.022468
   130  H    0.014378
   131  H    0.016313
   132  H    0.013893
   133  H    0.037708
   134  H    0.020818
   135  H    0.019589
   136  H    0.008786
   137  H    0.026120
   138  H    0.039789
   139  H    0.038244
   140  H    0.036372
   141  H    0.033901
   142  H    0.014389
   143  H    0.012397
   144  H    0.025120
   145  H    0.011630
   146  H    0.005653
   147  H    0.006241
   148  H    0.003652
   149  H    0.010921
   150  H    0.017942
   151  H    0.030130
   152  H    0.046052
   153  H    0.008496
   154  H    0.046935
   155  H    0.035046
   156  H    0.044023
   157  H    0.049548
   158  H    0.053645
 Sum of Mulliken charges =  -0.00000

 Dipole moment (field-independent basis, Debye):
    X=              2.8830    Y=              7.4380    Z=             -1.2118  Tot=              8.0687
 Quadrupole moment (field-independent basis, Debye-Ang):
   XX=           -456.0412   YY=           -546.3341   ZZ=           -475.9273
   XY=             14.3675   XZ=            -59.8565   YZ=             -3.3780

 Normal termination of Gaussian 16 at Sun Sep 12 15:31:25 2021.
