 Gaussian 16, Revision A.03,
 Gaussian 16:  ES64L-G16RevA.03 25-Dec-2016

 -----------------------------------
 #p cam-b3lyp/Def2SVP td=(nstates=5)
 -----------------------------------

 --------------------------------
 TDDFT excited states in gaussian
 --------------------------------
 Symbolic Z-matrix:
 Charge =  0 Multiplicity = 1

                         Standard orientation:
 ---------------------------------------------------------------------
 Center     Atomic      Atomic             Coordinates (Angstroms)
 Number     Number       Type             X           Y           Z
 ---------------------------------------------------------------------
      1         12           0       -4.617309   -0.018020    0.361681
      2          6           0       -4.166114    3.382734    1.383203
      3          6           0       -5.606371    1.181655   -2.675686
      4          6           0       -5.454411   -2.977076   -0.412829
      5          6           0       -4.694526   -0.867982    3.740625
      6          7           0       -4.817139    2.041298   -0.425670
      7          6           0       -4.555251    3.255513    0.047901
      8          6           0       -4.660183    4.375125   -1.030446
      9          6           0       -5.645100    3.648813   -2.052408
     10          6           0       -5.312446    2.203804   -1.724975
     11          6           0       -7.120887    3.892845   -1.754069
     12          6           0       -3.278073    4.692593   -1.694310
     13          6           0       -3.228668    5.984920   -2.514556
     14          1           0       -2.004156    6.770984   -2.509811
     15          7           0       -4.943516   -0.835891   -1.406800
     16          6           0       -5.324115   -0.194643   -2.537831
     17          6           0       -5.434049   -1.237604   -3.580341
     18          6           0       -5.271026   -2.561691   -2.918290
     19          6           0       -5.242246   -2.174184   -1.531067
     20          6           0       -5.621133   -0.930928   -5.034541
     21          6           0       -5.169485   -3.956087   -3.450718
     22          8           0       -5.264906   -4.981875   -2.693599
     23          6           0       -5.042279   -4.093321   -4.912918
     24          7           0       -5.238401   -1.659857    1.491394
     25          6           0       -5.482878   -2.841605    0.914606
     26          6           0       -5.634572   -3.927706    1.937989
     27          6           0       -5.199969   -3.284219    3.333266
     28          6           0       -4.937555   -1.835376    2.853408
     29          6           0       -7.039629   -4.531361    2.069998
     30          6           0       -4.085508   -4.011754    4.126416
     31          6           0       -2.774589   -3.911246    3.379095
     32          7           0       -4.285861    1.010981    2.243793
     33          6           0       -4.393084    0.467509    3.532131
     34          6           0       -4.184471    1.572489    4.485844
     35          6           0       -3.985539    2.692400    3.680817
     36          6           0       -4.090922    2.316021    2.311319
     37          6           0       -4.251675    1.473508    5.903631
     38          6           0       -3.732918    4.124036    3.659368
     39          8           0       -3.460992    4.969493    4.513038
     40          6           0       -3.960629    4.650820    2.173948
     41          6           0       -2.786791    5.520738    1.815258
     42          8           0       -1.644576    5.034001    1.689571
     43          8           0       -3.228179    6.733013    1.446330
     44          6           0       -2.115322    7.636381    1.049306
     45          1           0       -6.154732    1.445724   -3.582058
     46          1           0       -5.636669   -4.030334   -0.636142
     47          1           0       -4.620537   -1.073196    4.810142
     48          1           0       -5.108143    5.304579   -0.678492
     49          1           0       -5.391785    3.870467   -3.088952
     50          1           0       -7.254477    4.421076   -0.810117
     51          1           0       -7.575261    2.903128   -1.704095
     52          1           0       -7.605221    4.403193   -2.586980
     53          1           0       -3.082216    3.965226   -2.482115
     54          1           0       -2.485405    4.710316   -0.945518
     55          1           0       -4.091057    6.620028   -2.310026
     56          1           0       -3.327835    5.724570   -3.568399
     57          1           0       -5.872651    0.116898   -5.193739
     58          1           0       -6.505847   -1.475657   -5.363571
     59          1           0       -4.760446   -1.232670   -5.631619
     60          1           0       -5.905723   -3.633367   -5.394016
     61          1           0       -4.892149   -5.155420   -5.103328
     62          1           0       -4.169820   -3.530346   -5.245821
     63          1           0       -4.981194   -4.769970    1.714126
     64          1           0       -6.032557   -3.228409    4.034947
     65          1           0       -7.068192   -5.610956    1.920451
     66          1           0       -7.693371   -4.021214    1.363131
     67          1           0       -7.539253   -4.323838    3.015899
     68          1           0       -4.319091   -5.071477    4.223228
     69          1           0       -3.939792   -3.611254    5.129720
     70          1           0       -2.839175   -4.729791    2.663102
     71          1           0       -1.935913   -4.054488    4.061234
     72          1           0       -2.711318   -2.984054    2.809185
     73          1           0       -3.409002    2.046925    6.289719
     74          1           0       -4.207100    0.434903    6.230613
     75          1           0       -5.223617    1.929242    6.092022
     76          1           0       -4.896804    5.208199    2.179082
     77          1           0       -2.193697    8.532186    1.665443
     78          1           0       -2.185637    7.758075   -0.031736
     79          1           0       -1.108741    7.300740    1.301257
     80         12           0        4.222102   -1.466095   -0.506540
     81          6           0        6.211175    1.483507   -0.034874
     82          6           0        2.146272    0.424505   -2.443330
     83          6           0        2.212621   -3.920642   -0.574568
     84          6           0        5.768898   -2.792909    2.320592
     85          7           0        4.277820    0.666607   -1.090271
     86          6           0        5.114957    1.675499   -0.901408
     87          6           0        4.801951    2.938159   -1.748342
     88          6           0        3.235341    2.682285   -1.991560
     89          6           0        3.214703    1.159887   -1.870830
     90          6           0        2.354060    3.260230   -0.896735
     91          6           0        5.596754    2.962713   -3.101000
     92          6           0        5.577889    4.306058   -3.833677
     93          1           0        6.772228    4.715531   -4.567403
     94          7           0        2.725399   -1.866526   -1.746746
     95          6           0        2.008525   -0.980720   -2.469743
     96          6           0        1.011389   -1.774454   -3.204504
     97          6           0        1.090951   -3.182812   -2.730243
     98          6           0        2.018701   -3.037268   -1.626528
     99          6           0        0.159938   -1.199687   -4.299075
    100          6           0        0.430261   -4.448645   -3.185591
    101          8           0        0.461975   -5.516934   -2.478069
    102          6           0       -0.333909   -4.374966   -4.439434
    103          7           0        3.862518   -3.030953    0.814172
    104          6           0        2.971376   -3.993636    0.519168
    105          6           0        3.081702   -5.152423    1.481155
    106          6           0        4.401269   -4.873299    2.340462
    107          6           0        4.793477   -3.496098    1.761792
    108          6           0        1.894040   -5.350751    2.422708
    109          6           0        5.474030   -5.996300    2.367667
    110          6           0        6.093108   -6.151975    0.997296
    111          7           0        5.844805   -0.884418    0.795975
    112          6           0        6.311856   -1.573409    1.936689
    113          6           0        7.352836   -0.729841    2.558934
    114          6           0        7.403393    0.410851    1.743612
    115          6           0        6.446339    0.295958    0.699409
    116          6           0        8.068029   -1.035021    3.751201
    117          6           0        8.041337    1.690787    1.535019
    118          8           0        8.986373    2.284948    2.052340
    119          6           0        7.209797    2.498645    0.447684
    120          6           0        8.179482    3.059610   -0.556083
    121          8           0        8.837094    2.302172   -1.291232
    122          8           0        8.011760    4.392362   -0.633582
    123          6           0        8.943900    4.993102   -1.624571
    124          1           0        1.311488    0.975263   -2.877708
    125          1           0        1.620156   -4.837669   -0.613630
    126          1           0        6.367050   -3.179711    3.148406
    127          1           0        4.949243    3.879292   -1.232256
    128          1           0        2.935251    2.989702   -2.989957
    129          1           0        2.935877    3.646144   -0.072904
    130          1           0        1.723636    2.445341   -0.565708
    131          1           0        1.679188    4.012999   -1.314122
    132          1           0        5.071170    2.340163   -3.836471
    133          1           0        6.610876    2.646137   -2.952817
    134          1           0        5.223335    5.121111   -3.191085
    135          1           0        4.836253    4.254160   -4.634498
    136          1           0        0.205563   -0.103700   -4.310719
    137          1           0       -0.881610   -1.425499   -4.045971
    138          1           0        0.386576   -1.627798   -5.277859
    139          1           0       -1.114339   -3.623897   -4.343094
    140          1           0       -0.656305   -5.397416   -4.645680
    141          1           0        0.334962   -4.033272   -5.237223
    142          1           0        3.200826   -6.087654    0.948000
    143          1           0        4.168885   -4.712860    3.403520
    144          1           0        1.440383   -6.357009    2.347086
    145          1           0        1.159162   -4.585445    2.211068
    146          1           0        2.107056   -5.181307    3.476802
    147          1           0        5.011411   -6.956169    2.610100
    148          1           0        6.260390   -5.824918    3.095169
    149          1           0        5.379000   -6.796183    0.475638
    150          1           0        7.070733   -6.624189    1.069994
    151          1           0        6.120763   -5.193138    0.466705
    152          1           0        9.103930   -0.783997    3.565754
    153          1           0        7.954804   -2.081680    4.025866
    154          1           0        7.564447   -0.368703    4.456677
    155          1           0        6.662161    3.283540    0.970772
    156          1           0        9.508883    5.770675   -1.101253
    157          1           0        8.311153    5.314907   -2.472999
    158          1           0        9.744506    4.368111   -2.002546
 ---------------------------------------------------------------------

 SCF Done:  E(RCAM-B3LYP) =  -4069.81151553     A.U. after   19 cycles

 Excitation energies and oscillator strengths:

 Excited State   1:      Singlet-A      1.6415 eV  755.29 nm  f=0.1089  <S**2>=0.000
     309 -> 315       -0.11425
     310 -> 316       -0.11981
     311 -> 313       -0.47303
     312 -> 314        0.49950
 This state for optimization and/or second-order correction.
 Total Energy, E(TD-HF/TD-DFT) =  -4069.75118974
 Copying the excited state density for this state as the 1-particle RhoCI density.

 Excited State   2:      Singlet-A      1.7033 eV  727.90 nm  f=0.6182  <S**2>=0.000
     309 -> 315        0.13279
     310 -> 316       -0.12354
     311 -> 313        0.49663
     312 -> 314        0.47045

 Excited State   3:      Singlet-A      2.1790 eV  569.01 nm  f=0.0092  <S**2>=0.000
     309 -> 313        0.34683
     310 -> 314        0.54474
     311 -> 315       -0.14307
     312 -> 316        0.22509

 Excited State   4:      Singlet-A      2.1953 eV  564.76 nm  f=0.1642  <S**2>=0.000
     309 -> 313        0.53948
     310 -> 314       -0.34213
     311 -> 315       -0.23796
     312 -> 316       -0.15039

 Excited State   5:      Singlet-A      2.2892 eV  541.60 nm  f=0.0000  <S**2>=0.000
     312 -> 313        0.70672

 The electronic state is 1-A.
 Alpha  occ. eigenvalues --  -46.88024 -46.87450 -19.26589 -19.26176 -19.19337
 Alpha  occ. eigenvalues --  -19.18997 -19.18985 -19.18530 -19.18400 -19.17852
 Alpha  occ. eigenvalues --  -14.42696 -14.42265 -14.41658 -14.41160 -14.39638
 Alpha  occ. eigenvalues --  -14.39150 -14.38813 -14.38391 -10.39387 -10.38909
 Alpha  occ. eigenvalues --  -10.35634 -10.35220 -10.34624 -10.34026 -10.31992
 Alpha  occ. eigenvalues --  -10.31657 -10.31610 -10.31182 -10.31065 -10.30813
 Alpha  occ. eigenvalues --  -10.30802 -10.30715 -10.30410 -10.30199 -10.30161
 Alpha  occ. eigenvalues --  -10.30093 -10.29956 -10.29867 -10.29700 -10.29487
 Alpha  occ. eigenvalues --  -10.29241 -10.29220 -10.29082 -10.28991 -10.28611
 Alpha  occ. eigenvalues --  -10.28515 -10.28446 -10.28414 -10.28198 -10.28028
 Alpha  occ. eigenvalues --  -10.27972 -10.27835 -10.27804 -10.27795 -10.27789
 Alpha  occ. eigenvalues --  -10.27646 -10.27622 -10.27543 -10.27444 -10.27415
 Alpha  occ. eigenvalues --  -10.27401 -10.27369 -10.27292 -10.27268 -10.27228
 Alpha  occ. eigenvalues --  -10.27159 -10.26833 -10.26677 -10.26502 -10.26487
 Alpha  occ. eigenvalues --  -10.26350 -10.26260 -10.26229 -10.26026 -10.26012
 Alpha  occ. eigenvalues --  -10.25743 -10.25666 -10.25520 -10.25410 -10.25277
 Alpha  occ. eigenvalues --  -10.25065 -10.24979 -10.24712 -10.24671 -10.24608
 Alpha  occ. eigenvalues --  -10.24491  -3.16767  -3.16200  -1.91648  -1.91235
 Alpha  occ. eigenvalues --   -1.91082  -1.91077  -1.90671  -1.90508  -1.16939
 Alpha  occ. eigenvalues --   -1.16469  -1.08861  -1.08459  -1.07387  -1.06953
 Alpha  occ. eigenvalues --   -1.06774  -1.06769  -1.04833  -1.04266  -1.03977
 Alpha  occ. eigenvalues --   -1.03459  -1.03455  -1.02841  -1.02633  -1.01907
 Alpha  occ. eigenvalues --   -0.92214  -0.91774  -0.89689  -0.89496  -0.89318
 Alpha  occ. eigenvalues --   -0.88854  -0.88439  -0.88091  -0.88054  -0.87927
 Alpha  occ. eigenvalues --   -0.87597  -0.87531  -0.87476  -0.86975  -0.85278
 Alpha  occ. eigenvalues --   -0.84755  -0.84079  -0.83720  -0.83188  -0.82915
 Alpha  occ. eigenvalues --   -0.82804  -0.82429  -0.81846  -0.81407  -0.80847
 Alpha  occ. eigenvalues --   -0.80253  -0.79042  -0.78469  -0.77463  -0.77185
 Alpha  occ. eigenvalues --   -0.76943  -0.76681  -0.76185  -0.75577  -0.75064
 Alpha  occ. eigenvalues --   -0.74630  -0.72994  -0.72497  -0.71893  -0.71348
 Alpha  occ. eigenvalues --   -0.70024  -0.69601  -0.69151  -0.68595  -0.67877
 Alpha  occ. eigenvalues --   -0.67541  -0.67416  -0.67018  -0.65578  -0.65089
 Alpha  occ. eigenvalues --   -0.65040  -0.64859  -0.64569  -0.64446  -0.64436
 Alpha  occ. eigenvalues --   -0.64028  -0.62552  -0.62097  -0.60662  -0.60185
 Alpha  occ. eigenvalues --   -0.60086  -0.59538  -0.59208  -0.58794  -0.58729
 Alpha  occ. eigenvalues --   -0.58232  -0.57842  -0.57509  -0.57355  -0.57066
 Alpha  occ. eigenvalues --   -0.56548  -0.56266  -0.56018  -0.55760  -0.55707
 Alpha  occ. eigenvalues --   -0.55523  -0.55275  -0.55077  -0.54727  -0.54320
 Alpha  occ. eigenvalues --   -0.54207  -0.53639  -0.53534  -0.53498  -0.53172
 Alpha  occ. eigenvalues --   -0.53050  -0.53047  -0.52940  -0.52704  -0.52549
 Alpha  occ. eigenvalues --   -0.52477  -0.52255  -0.52121  -0.51922  -0.51694
 Alpha  occ. eigenvalues --   -0.51452  -0.51420  -0.51006  -0.50842  -0.50367
 Alpha  occ. eigenvalues --   -0.50230  -0.50129  -0.49786  -0.49778  -0.49682
 Alpha  occ. eigenvalues --   -0.49468  -0.49359  -0.49271  -0.48990  -0.48845
 Alpha  occ. eigenvalues --   -0.48816  -0.48667  -0.48625  -0.48331  -0.48215
 Alpha  occ. eigenvalues --   -0.48156  -0.47936  -0.47523  -0.47399  -0.47020
 Alpha  occ. eigenvalues --   -0.46951  -0.46850  -0.46578  -0.46512  -0.46366
 Alpha  occ. eigenvalues --   -0.46306  -0.46095  -0.46063  -0.45908  -0.45619
 Alpha  occ. eigenvalues --   -0.45361  -0.45037  -0.44822  -0.44748  -0.44373
 Alpha  occ. eigenvalues --   -0.44328  -0.44323  -0.44257  -0.44250  -0.43920
 Alpha  occ. eigenvalues --   -0.43854  -0.43757  -0.43741  -0.43628  -0.43366
 Alpha  occ. eigenvalues --   -0.43249  -0.43163  -0.42969  -0.42800  -0.42750
 Alpha  occ. eigenvalues --   -0.42699  -0.42388  -0.42206  -0.41937  -0.41805
 Alpha  occ. eigenvalues --   -0.41784  -0.41458  -0.41370  -0.41244  -0.41135
 Alpha  occ. eigenvalues --   -0.41064  -0.40739  -0.40725  -0.40598  -0.40534
 Alpha  occ. eigenvalues --   -0.40480  -0.40291  -0.40024  -0.39545  -0.39275
 Alpha  occ. eigenvalues --   -0.38647  -0.38172  -0.38091  -0.37553  -0.37503
 Alpha  occ. eigenvalues --   -0.37455  -0.37078  -0.36979  -0.36973  -0.36599
 Alpha  occ. eigenvalues --   -0.36419  -0.36028  -0.34514  -0.34071  -0.34044
 Alpha  occ. eigenvalues --   -0.33680  -0.33417  -0.32972  -0.31521  -0.31259
 Alpha  occ. eigenvalues --   -0.31084  -0.30759  -0.30261  -0.29755  -0.29693
 Alpha  occ. eigenvalues --   -0.29551  -0.29141  -0.29011  -0.24308  -0.23825
 Alpha  occ. eigenvalues --   -0.21359  -0.20911
 Alpha virt. eigenvalues --   -0.09009  -0.08593  -0.01969  -0.01483  -0.00303
 Alpha virt. eigenvalues --    0.00166   0.01979   0.02384   0.02650   0.03460
 Alpha virt. eigenvalues --    0.04428   0.04773   0.04963   0.05348   0.05759

 Mulliken charges:
               1
     1  Mg   0.838470
     2  C   -0.003873
     3  C   -0.096151
     4  C   -0.043438
     5  C   -0.063321
     6  N   -0.256757
     7  C   -0.053154
     8  C   -0.013654
     9  C   -0.086622
    10  C    0.045437
    11  C    0.104709
    12  C    0.053552
    13  C   -0.071367
    14  H    0.033966
    15  N   -0.432972
    16  C    0.167041
    17  C   -0.179844
    18  C   -0.006891
    19  C    0.149661
    20  C    0.110236
    21  C    0.012399
    22  O   -0.245614
    23  C    0.063027
    24  N   -0.341259
    25  C    0.041122
    26  C   -0.028734
    27  C   -0.024283
    28  C    0.075451
    29  C    0.075864
    30  C    0.035164
    31  C   -0.006681
    32  N   -0.310633
    33  C    0.080876
    34  C   -0.169091
    35  C    0.008545
    36  C    0.083258
    37  C    0.127218
    38  C    0.046327
    39  O   -0.187726
    40  C   -0.005447
    41  C    0.213170
    42  O   -0.258479
    43  O   -0.304363
    44  C    0.157502
    45  H   -0.017638
    46  H   -0.014949
    47  H   -0.040732
    48  H    0.001608
    49  H   -0.004931
    50  H    0.025865
    51  H    0.017069
    52  H    0.016937
    53  H    0.008079
    54  H    0.042773
    55  H    0.019701
    56  H    0.017688
    57  H    0.005795
    58  H    0.027998
    59  H    0.036324
    60  H    0.037576
    61  H    0.038402
    62  H    0.025952
    63  H    0.019198
    64  H    0.009685
    65  H    0.024268
    66  H    0.012251
    67  H    0.004823
    68  H    0.006961
    69  H    0.004117
    70  H    0.012772
    71  H    0.017905
    72  H    0.029390
    73  H    0.048065
    74  H    0.009643
    75  H    0.046464
    76  H    0.035597
    77  H    0.044164
    78  H    0.045765
    79  H    0.053055
    80  Mg   0.838506
    81  C   -0.016740
    82  C   -0.087912
    83  C   -0.045714
    84  C   -0.064864
    85  N   -0.254852
    86  C   -0.048271
    87  C   -0.015193
    88  C   -0.091257
    89  C    0.046947
    90  C    0.115574
    91  C    0.062743
    92  C   -0.077112
    93  H    0.033616
    94  N   -0.423443
    95  C    0.162857
    96  C   -0.174775
    97  C   -0.008127
    98  C    0.151388
    99  C    0.097639
   100  C    0.017302
   101  O   -0.251254
   102  C    0.059324
   103  N   -0.349842
   104  C    0.037349
   105  C   -0.019918
   106  C   -0.034848
   107  C    0.089029
   108  C    0.073135
   109  C    0.034872
   110  C   -0.007597
   111  N   -0.324191
   112  C    0.078784
   113  C   -0.163088
   114  C    0.002551
   115  C    0.096402
   116  C    0.131375
   117  C    0.042512
   118  O   -0.188144
   119  C    0.000832
   120  C    0.211057
   121  O   -0.251529
   122  O   -0.305239
   123  C    0.152275
   124  H   -0.019690
   125  H   -0.015332
   126  H   -0.040908
   127  H   -0.000185
   128  H   -0.006863
   129  H    0.024705
   130  H    0.018993
   131  H    0.017690
   132  H    0.013088
   133  H    0.037172
   134  H    0.020922
   135  H    0.018534
   136  H    0.007779
   137  H    0.027273
   138  H    0.037362
   139  H    0.036476
   140  H    0.038145
   141  H    0.032371
   142  H    0.014189
   143  H    0.012102
   144  H    0.024423
   145  H    0.013251
   146  H    0.004420
   147  H    0.005697
   148  H    0.003446
   149  H    0.010807
   150  H    0.017536
   151  H    0.030361
   152  H    0.045578
   153  H    0.008020
   154  H    0.047607
   155  H    0.036586
   156  H    0.043657
   157  H    0.049191
   158  H    0.053158
 Sum of Mulliken charges =  -0.00000

 Dipole moment (field-independent basis, Debye):
    X=             -6.5053    Y=              1.2576    Z=             -5.0878  Tot=              8.3539
 Quadrupole moment (field-independent basis, Debye-Ang):
   XX=           -545.1724   YY=           -509.0416   ZZ=           -480.0952
   XY=            -18.4005   XZ=              8.8442   YZ=            -59.0228

 Normal termination of Gaussian 16 at Fri Sep 10 05:07:19 2021.
