 Gaussian 16, Revision A.03,
 Gaussian 16:  ES64L-G16RevA.03 25-Dec-2016

 -----------------------------------
 #p cam-b3lyp/Def2SVP td=(nstates=5)
 -----------------------------------

 --------------------------------
 TDDFT excited states in gaussian
 --------------------------------
 Symbolic Z-matrix:
 Charge =  0 Multiplicity = 1

                         Standard orientation:
 ---------------------------------------------------------------------
 Center     Atomic      Atomic             Coordinates (Angstroms)
 Number     Number       Type             X           Y           Z
 ---------------------------------------------------------------------
      1         12           0        7.814856    0.774617    0.419978
      2          6           0        8.362555   -2.434959   -1.066919
      3          6           0        8.574298    2.143434   -2.611961
      4          6           0        7.781976    3.620620    1.818480
      5          6           0        8.214542   -0.759066    3.523802
      6          7           0        8.378829   -0.134623   -1.518027
      7          6           0        8.494937   -1.378909   -1.971286
      8          6           0        8.695902   -1.458155   -3.514240
      9          6           0        9.303735   -0.005494   -3.763862
     10          6           0        8.688360    0.721785   -2.581364
     11          6           0       10.822815    0.049250   -3.637755
     12          6           0        7.344446   -1.653133   -4.280583
     13          6           0        7.479736   -2.064744   -5.749469
     14          1           0        6.497112   -2.977251   -6.314384
     15          7           0        7.652535    2.582969   -0.358718
     16          6           0        7.993983    2.957325   -1.615124
     17          6           0        7.684275    4.400232   -1.708838
     18          6           0        7.313041    4.875316   -0.347010
     19          6           0        7.596661    3.702767    0.440432
     20          6           0        7.709024    5.165167   -2.996475
     21          6           0        6.796201    6.182488    0.165152
     22          8           0        6.759297    6.457331    1.413220
     23          6           0        6.411718    7.179994   -0.849835
     24          7           0        8.191473    1.400312    2.375560
     25          6           0        8.050307    2.682524    2.729096
     26          6           0        8.094571    2.846032    4.219480
     27          6           0        8.052459    1.370152    4.827556
     28          6           0        8.074898    0.568386    3.502816
     29          6           0        9.315536    3.592183    4.774919
     30          6           0        6.934312    1.064833    5.855635
     31          6           0        5.585658    1.098386    5.172184
     32          7           0        8.040872   -1.258649    1.145090
     33          6           0        8.214897   -1.664684    2.476077
     34          6           0        8.431096   -3.123109    2.458058
     35          6           0        8.384021   -3.463928    1.107698
     36          6           0        8.179232   -2.288871    0.329498
     37          6           0        8.694221   -3.940651    3.592440
     38          6           0        8.483669   -4.543985    0.139502
     39          8           0        8.560989   -5.771150    0.214221
     40          6           0        8.595463   -3.904628   -1.314648
     41          6           0        7.624514   -4.629993   -2.205947
     42          8           0        6.393539   -4.527080   -2.028534
     43          8           0        8.281435   -5.133655   -3.262035
     44          6           0        7.370931   -5.841016   -4.201597
     45          1           0        9.020810    2.690981   -3.444284
     46          1           0        7.667680    4.567206    2.350786
     47          1           0        8.262159   -1.318071    4.460124
     48          1           0        9.404156   -2.219397   -3.841823
     49          1           0        8.951782    0.427558   -4.699980
     50          1           0       11.226255   -0.893884   -3.269441
     51          1           0       11.027359    0.853006   -2.930201
     52          1           0       11.278882    0.355774   -4.579467
     53          1           0        6.857903   -0.685495   -4.403117
     54          1           0        6.707108   -2.370487   -3.762385
     55          1           0        8.490837   -2.403631   -5.976930
     56          1           0        7.346514   -1.176283   -6.366793
     57          1           0        8.177402    4.590655   -3.794663
     58          1           0        8.373441    6.016262   -2.848499
     59          1           0        6.718245    5.517790   -3.283434
     60          1           0        7.273974    7.405202   -1.477804
     61          1           0        5.982114    8.017271   -0.300967
     62          1           0        5.659504    6.742967   -1.507200
     63          1           0        7.230698    3.404624    4.577425
     64          1           0        8.973491    1.118142    5.353735
     65          1           0        9.059275    4.466636    5.373557
     66          1           0        9.953596    3.866385    3.935286
     67          1           0        9.992574    2.980863    5.371010
     68          1           0        6.917879    1.825771    6.635154
     69          1           0        7.048787    0.095431    6.340822
     70          1           0        5.337861    2.159245    5.174595
     71          1           0        4.855004    0.525495    5.744155
     72          1           0        5.658992    0.783262    4.131124
     73          1           0        8.085940   -4.836777    3.470289
     74          1           0        8.452609   -3.421221    4.519489
     75          1           0        9.764491   -4.110004    3.475407
     76          1           0        9.627196   -4.039436   -1.637873
     77          1           0        7.758587   -6.852450   -4.323902
     78          1           0        7.297862   -5.216063   -5.091821
     79          1           0        6.365561   -6.049039   -3.833768
     80         12           0       -7.982897   -0.860670    0.311796
     81          6           0       -8.079417    2.193154   -1.570728
     82          6           0       -7.317695    1.034639    3.068584
     83          6           0       -7.446421   -3.549533    1.908547
     84          6           0       -7.517805   -2.542904   -2.704738
     85          7           0       -7.753340    1.322004    0.586543
     86          6           0       -7.872581    2.388869   -0.189303
     87          6           0       -7.844161    3.742583    0.569790
     88          6           0       -7.040431    3.268565    1.876767
     89          6           0       -7.417110    1.788447    1.871917
     90          6           0       -5.532009    3.378033    1.728310
     91          6           0       -9.282191    4.254022    0.933822
     92          6           0       -9.348204    5.710515    1.398633
     93          1           0      -10.515693    6.506508    1.030056
     94          7           0       -7.944541   -1.208399    2.265297
     95          6           0       -7.679194   -0.319055    3.245068
     96          6           0       -7.755207   -1.074203    4.505280
     97          6           0       -7.924582   -2.516180    4.178571
     98          6           0       -7.753821   -2.482336    2.739894
     99          6           0       -7.747445   -0.411997    5.852442
    100          6           0       -8.183104   -3.727208    5.022835
    101          8           0       -8.057386   -4.913736    4.554663
    102          6           0       -8.496735   -3.484620    6.438554
    103          7           0       -7.335106   -2.745881   -0.278706
    104          6           0       -7.237162   -3.752244    0.607619
    105          6           0       -7.020082   -5.074018   -0.089654
    106          6           0       -7.235059   -4.778813   -1.646643
    107          6           0       -7.461338   -3.252223   -1.585883
    108          6           0       -5.651125   -5.720457    0.121238
    109          6           0       -8.282176   -5.652221   -2.390539
    110          6           0       -9.670554   -5.340265   -1.880156
    111          7           0       -8.007182   -0.332960   -1.783193
    112          6           0       -7.762149   -1.186928   -2.880818
    113          6           0       -7.776038   -0.347992   -4.096730
    114          6           0       -8.007171    0.949730   -3.616134
    115          6           0       -8.108631    0.924565   -2.198885
    116          6           0       -7.543063   -0.804113   -5.424811
    117          6           0       -8.177798    2.336750   -3.984593
    118          8           0       -8.275791    2.947276   -5.048258
    119          6           0       -8.106194    3.222246   -2.666574
    120          6           0       -9.259006    4.188092   -2.692680
    121          8           0      -10.430428    3.776053   -2.624890
    122          8           0       -8.785972    5.442120   -2.574239
    123          6           0       -9.892703    6.435532   -2.583848
    124          1           0       -6.882340    1.511252    3.947332
    125          1           0       -7.361038   -4.521169    2.400615
    126          1           0       -7.478197   -3.006781   -3.692631
    127          1           0       -7.302009    4.534221    0.066640
    128          1           0       -7.419227    3.755496    2.771630
    129          1           0       -5.244569    3.646020    0.722482
    130          1           0       -5.139459    2.403341    1.986993
    131          1           0       -5.129444    4.072058    2.471686
    132          1           0       -9.620898    3.749559    1.847899
    133          1           0       -9.958273    4.105204    0.114439
    134          1           0       -8.424098    6.257041    1.174380
    135          1           0       -9.409665    5.724188    2.489525
    136          1           0       -7.445975    0.640377    5.781629
    137          1           0       -6.950013   -0.884282    6.436310
    138          1           0       -8.693265   -0.530381    6.385435
    139          1           0       -7.676917   -2.941002    6.902049
    140          1           0       -8.737623   -4.464005    6.856484
    141          1           0       -9.377201   -2.834885    6.495479
    142          1           0       -7.750073   -5.806086    0.233295
    143          1           0       -6.311449   -4.936914   -2.222652
    144          1           0       -5.710946   -6.741759    0.542464
    145          1           0       -5.065492   -5.077423    0.764732
    146          1           0       -5.028597   -5.784698   -0.769561
    147          1           0       -8.106647   -6.711075   -2.185170
    148          1           0       -8.263115   -5.525650   -3.467856
    149          1           0       -9.745408   -5.954185   -0.977613
    150          1           0      -10.421509   -5.624757   -2.614431
    151          1           0       -9.750330   -4.291090   -1.572717
    152          1           0       -8.283186   -0.325943   -6.052564
    153          1           0       -7.606270   -1.888346   -5.489654
    154          1           0       -6.522930   -0.442450   -5.579098
    155          1           0       -7.143109    3.734164   -2.667759
    156          1           0       -9.675650    7.147883   -3.385796
    157          1           0       -9.943263    6.836403   -1.554048
    158          1           0      -10.877270    6.086197   -2.872019
 ---------------------------------------------------------------------

 SCF Done:  E(RCAM-B3LYP) =  -4069.81183629     A.U. after   19 cycles

 Excitation energies and oscillator strengths:

 Excited State   1:      Singlet-A      1.6728 eV  741.19 nm  f=0.1872  <S**2>=0.000
     310 -> 316        0.14952
     311 -> 313        0.34560
     312 -> 314        0.59282
 This state for optimization and/or second-order correction.
 Total Energy, E(TD-HF/TD-DFT) =  -4069.75036325
 Copying the excited state density for this state as the 1-particle RhoCI density.

 Excited State   2:      Singlet-A      1.6821 eV  737.07 nm  f=0.5645  <S**2>=0.000
     309 -> 315        0.15208
     311 -> 313        0.59222
     312 -> 314       -0.34530

 Excited State   3:      Singlet-A      2.1857 eV  567.24 nm  f=0.0838  <S**2>=0.000
     310 -> 314        0.63512
     312 -> 316       -0.26956

 Excited State   4:      Singlet-A      2.1927 eV  565.43 nm  f=0.1135  <S**2>=0.000
     309 -> 313        0.63310
     311 -> 315       -0.27511

 Excited State   5:      Singlet-A      2.7661 eV  448.23 nm  f=0.0000  <S**2>=0.000
     312 -> 313        0.70710

 The electronic state is 1-A.
 Alpha  occ. eigenvalues --  -46.87836 -46.87592 -19.26322 -19.26309 -19.19128
 Alpha  occ. eigenvalues --  -19.19047 -19.18860 -19.18644 -19.18202 -19.18004
 Alpha  occ. eigenvalues --  -14.42486 -14.42430 -14.41491 -14.41286 -14.39442
 Alpha  occ. eigenvalues --  -14.39284 -14.38625 -14.38535 -10.39107 -10.39056
 Alpha  occ. eigenvalues --  -10.35493 -10.35321 -10.34422 -10.34182 -10.31737
 Alpha  occ. eigenvalues --  -10.31700 -10.31438 -10.31247 -10.30958 -10.30942
 Alpha  occ. eigenvalues --  -10.30606 -10.30549 -10.30331 -10.30299 -10.30251
 Alpha  occ. eigenvalues --  -10.30063 -10.29965 -10.29820 -10.29669 -10.29366
 Alpha  occ. eigenvalues --  -10.29338 -10.29293 -10.28772 -10.28664 -10.28616
 Alpha  occ. eigenvalues --  -10.28547 -10.28401 -10.28341 -10.28140 -10.28080
 Alpha  occ. eigenvalues --  -10.27938 -10.27829 -10.27762 -10.27622 -10.27602
 Alpha  occ. eigenvalues --  -10.27559 -10.27507 -10.27506 -10.27440 -10.27426
 Alpha  occ. eigenvalues --  -10.27420 -10.27404 -10.27401 -10.27277 -10.27189
 Alpha  occ. eigenvalues --  -10.27005 -10.26722 -10.26647 -10.26451 -10.26347
 Alpha  occ. eigenvalues --  -10.26257 -10.26255 -10.26061 -10.26057 -10.25957
 Alpha  occ. eigenvalues --  -10.25879 -10.25864 -10.25804 -10.25490 -10.25262
 Alpha  occ. eigenvalues --  -10.24869 -10.24830 -10.24812 -10.24773 -10.24659
 Alpha  occ. eigenvalues --  -10.24616  -3.16579  -3.16342  -1.91460  -1.91224
 Alpha  occ. eigenvalues --   -1.91047  -1.90889  -1.90812  -1.90649  -1.16658
 Alpha  occ. eigenvalues --   -1.16614  -1.08659  -1.08615  -1.07262  -1.06913
 Alpha  occ. eigenvalues --   -1.06895  -1.06670  -1.04616  -1.04430  -1.03801
 Alpha  occ. eigenvalues --   -1.03594  -1.03273  -1.02968  -1.02451  -1.02043
 Alpha  occ. eigenvalues --   -0.92007  -0.91927  -0.89570  -0.89421  -0.89213
 Alpha  occ. eigenvalues --   -0.89092  -0.88338  -0.88137  -0.87906  -0.87736
 Alpha  occ. eigenvalues --   -0.87708  -0.87617  -0.87310  -0.87055  -0.85011
 Alpha  occ. eigenvalues --   -0.84940  -0.83991  -0.83795  -0.83010  -0.82861
 Alpha  occ. eigenvalues --   -0.82681  -0.82592  -0.81617  -0.81548  -0.80631
 Alpha  occ. eigenvalues --   -0.80386  -0.78833  -0.78572  -0.77257  -0.77082
 Alpha  occ. eigenvalues --   -0.76967  -0.76837  -0.75953  -0.75783  -0.74944
 Alpha  occ. eigenvalues --   -0.74718  -0.72813  -0.72634  -0.71709  -0.71509
 Alpha  occ. eigenvalues --   -0.69968  -0.69676  -0.68904  -0.68768  -0.67679
 Alpha  occ. eigenvalues --   -0.67538  -0.67247  -0.67143  -0.65316  -0.65215
 Alpha  occ. eigenvalues --   -0.64891  -0.64707  -0.64658  -0.64595  -0.64318
 Alpha  occ. eigenvalues --   -0.64128  -0.62331  -0.62230  -0.60482  -0.60269
 Alpha  occ. eigenvalues --   -0.59833  -0.59736  -0.59026  -0.58926  -0.58542
 Alpha  occ. eigenvalues --   -0.58362  -0.57617  -0.57507  -0.57351  -0.57167
 Alpha  occ. eigenvalues --   -0.56345  -0.56145  -0.56006  -0.55840  -0.55557
 Alpha  occ. eigenvalues --   -0.55396  -0.55386  -0.55178  -0.54566  -0.54423
 Alpha  occ. eigenvalues --   -0.53921  -0.53854  -0.53338  -0.53254  -0.53163
 Alpha  occ. eigenvalues --   -0.53084  -0.52951  -0.52847  -0.52789  -0.52605
 Alpha  occ. eigenvalues --   -0.52501  -0.52326  -0.51951  -0.51833  -0.51645
 Alpha  occ. eigenvalues --   -0.51603  -0.51234  -0.51144  -0.50609  -0.50407
 Alpha  occ. eigenvalues --   -0.50083  -0.49955  -0.49914  -0.49784  -0.49547
 Alpha  occ. eigenvalues --   -0.49426  -0.49248  -0.49145  -0.49124  -0.49047
 Alpha  occ. eigenvalues --   -0.48626  -0.48507  -0.48503  -0.48483  -0.48298
 Alpha  occ. eigenvalues --   -0.48272  -0.47731  -0.47531  -0.47334  -0.47048
 Alpha  occ. eigenvalues --   -0.46837  -0.46642  -0.46582  -0.46494  -0.46399
 Alpha  occ. eigenvalues --   -0.46204  -0.46202  -0.46017  -0.45854  -0.45770
 Alpha  occ. eigenvalues --   -0.45250  -0.45120  -0.44612  -0.44545  -0.44458
 Alpha  occ. eigenvalues --   -0.44415  -0.44190  -0.44118  -0.44067  -0.44053
 Alpha  occ. eigenvalues --   -0.44010  -0.43881  -0.43528  -0.43503  -0.43422
 Alpha  occ. eigenvalues --   -0.43322  -0.43065  -0.42886  -0.42840  -0.42741
 Alpha  occ. eigenvalues --   -0.42699  -0.42477  -0.42056  -0.41898  -0.41741
 Alpha  occ. eigenvalues --   -0.41609  -0.41563  -0.41397  -0.41177  -0.40920
 Alpha  occ. eigenvalues --   -0.40906  -0.40863  -0.40659  -0.40634  -0.40619
 Alpha  occ. eigenvalues --   -0.40415  -0.40256  -0.40174  -0.39505  -0.39346
 Alpha  occ. eigenvalues --   -0.38517  -0.38268  -0.37774  -0.37600  -0.37366
 Alpha  occ. eigenvalues --   -0.37292  -0.37193  -0.37139  -0.36747  -0.36727
 Alpha  occ. eigenvalues --   -0.36231  -0.36149  -0.34324  -0.34187  -0.33822
 Alpha  occ. eigenvalues --   -0.33800  -0.33225  -0.33109  -0.31390  -0.31202
 Alpha  occ. eigenvalues --   -0.31074  -0.30906  -0.30061  -0.29910  -0.29487
 Alpha  occ. eigenvalues --   -0.29359  -0.29262  -0.29151  -0.24119  -0.23969
 Alpha  occ. eigenvalues --   -0.21166  -0.21049
 Alpha virt. eigenvalues --   -0.08812  -0.08726  -0.01790  -0.01613  -0.00095
 Alpha virt. eigenvalues --    0.00036   0.02163   0.02265   0.03075   0.03289
 Alpha virt. eigenvalues --    0.04686   0.04794   0.05070   0.05202   0.06156

 Mulliken charges:
               1
     1  Mg   0.838642
     2  C   -0.002936
     3  C   -0.093907
     4  C   -0.046012
     5  C   -0.064025
     6  N   -0.256769
     7  C   -0.052415
     8  C   -0.014033
     9  C   -0.086999
    10  C    0.046278
    11  C    0.104775
    12  C    0.053400
    13  C   -0.071896
    14  H    0.036251
    15  N   -0.433147
    16  C    0.168374
    17  C   -0.177016
    18  C   -0.004069
    19  C    0.148676
    20  C    0.110102
    21  C    0.012147
    22  O   -0.249925
    23  C    0.062507
    24  N   -0.341108
    25  C    0.041223
    26  C   -0.028153
    27  C   -0.023909
    28  C    0.074734
    29  C    0.076177
    30  C    0.035189
    31  C   -0.004443
    32  N   -0.310471
    33  C    0.080367
    34  C   -0.169745
    35  C    0.008408
    36  C    0.082945
    37  C    0.127321
    38  C    0.046117
    39  O   -0.188337
    40  C   -0.005327
    41  C    0.212898
    42  O   -0.257154
    43  O   -0.304750
    44  C    0.157693
    45  H   -0.017413
    46  H   -0.017017
    47  H   -0.041576
    48  H    0.001011
    49  H   -0.003832
    50  H    0.025490
    51  H    0.016413
    52  H    0.016822
    53  H    0.011306
    54  H    0.044049
    55  H    0.017905
    56  H    0.018160
    57  H    0.006077
    58  H    0.026889
    59  H    0.039773
    60  H    0.037540
    61  H    0.035454
    62  H    0.031608
    63  H    0.016221
    64  H    0.009521
    65  H    0.023050
    66  H    0.012697
    67  H    0.004796
    68  H    0.006152
    69  H    0.004793
    70  H    0.008407
    71  H    0.017793
    72  H    0.029165
    73  H    0.047619
    74  H    0.009010
    75  H    0.046074
    76  H    0.035248
    77  H    0.043003
    78  H    0.046505
    79  H    0.053608
    80  Mg   0.837990
    81  C   -0.016938
    82  C   -0.087826
    83  C   -0.045317
    84  C   -0.064641
    85  N   -0.254593
    86  C   -0.049863
    87  C   -0.015123
    88  C   -0.090486
    89  C    0.045812
    90  C    0.114342
    91  C    0.062532
    92  C   -0.077807
    93  H    0.034634
    94  N   -0.423578
    95  C    0.163056
    96  C   -0.174510
    97  C   -0.007671
    98  C    0.152204
    99  C    0.099333
   100  C    0.015648
   101  O   -0.252927
   102  C    0.061195
   103  N   -0.350029
   104  C    0.037767
   105  C   -0.020043
   106  C   -0.034745
   107  C    0.088880
   108  C    0.073359
   109  C    0.034709
   110  C   -0.007648
   111  N   -0.324072
   112  C    0.078400
   113  C   -0.163219
   114  C    0.002074
   115  C    0.096234
   116  C    0.131519
   117  C    0.042199
   118  O   -0.188402
   119  C    0.000963
   120  C    0.211214
   121  O   -0.251043
   122  O   -0.305689
   123  C    0.152099
   124  H   -0.019600
   125  H   -0.015267
   126  H   -0.040509
   127  H   -0.000834
   128  H   -0.004414
   129  H    0.022323
   130  H    0.014795
   131  H    0.016370
   132  H    0.013922
   133  H    0.037581
   134  H    0.020738
   135  H    0.019609
   136  H    0.008728
   137  H    0.026299
   138  H    0.039687
   139  H    0.038312
   140  H    0.036428
   141  H    0.033740
   142  H    0.014308
   143  H    0.012782
   144  H    0.025347
   145  H    0.012248
   146  H    0.006389
   147  H    0.006436
   148  H    0.003476
   149  H    0.010964
   150  H    0.017706
   151  H    0.029972
   152  H    0.045716
   153  H    0.008516
   154  H    0.046766
   155  H    0.034792
   156  H    0.043637
   157  H    0.049522
   158  H    0.053516
 Sum of Mulliken charges =  -0.00000

 Dipole moment (field-independent basis, Debye):
    X=              3.6380    Y=              4.0963    Z=              1.0895  Tot=              5.5859
 Quadrupole moment (field-independent basis, Debye-Ang):
   XX=           -520.2770   YY=           -527.6947   ZZ=           -470.6128
   XY=             18.4945   XZ=            -60.9951   YZ=             25.7267

 Normal termination of Gaussian 16 at Sun Sep 12 00:52:24 2021.
