 Gaussian 16, Revision A.03,
 Gaussian 16:  ES64L-G16RevA.03 25-Dec-2016

 -----------------------------------
 #p cam-b3lyp/Def2SVP td=(nstates=5)
 -----------------------------------

 --------------------------------
 TDDFT excited states in gaussian
 --------------------------------
 Symbolic Z-matrix:
 Charge =  0 Multiplicity = 1

                         Standard orientation:
 ---------------------------------------------------------------------
 Center     Atomic      Atomic             Coordinates (Angstroms)
 Number     Number       Type             X           Y           Z
 ---------------------------------------------------------------------
      1         12           0        3.205148    1.610234    0.899972
      2          6           0        4.579882   -1.508526   -0.193487
      3          6           0        4.316300    2.957592   -2.031416
      4          6           0        2.406707    4.462035    2.034143
      5          6           0        3.225570    0.315996    4.135740
      6          7           0        4.294928    0.733495   -0.815940
      7          6           0        4.710222   -0.487651   -1.137664
      8          6           0        5.228850   -0.597863   -2.602673
      9          6           0        5.618146    0.928751   -2.847410
     10          6           0        4.662197    1.583547   -1.865918
     11          6           0        7.048569    1.265766   -2.438983
     12          6           0        4.113152   -1.070649   -3.594349
     13          6           0        4.610081   -1.515975   -4.972790
     14          1           0        3.931660   -2.617053   -5.639663
     15          7           0        2.897795    3.321750   -0.037631
     16          6           0        3.416878    3.695545   -1.231832
     17          6           0        2.891389    5.051887   -1.498061
     18          6           0        2.177679    5.511640   -0.274403
     19          6           0        2.492009    4.447129    0.643960
     20          6           0        3.044808    5.750013   -2.814432
     21          6           0        1.353279    6.723956    0.023566
     22          8           0        1.019082    7.043045    1.215652
     23          6           0        1.017376    7.587926   -1.122631
     24          7           0        3.067321    2.381165    2.834993
     25          6           0        2.641520    3.630514    3.051336
     26          6           0        2.355680    3.865942    4.504886
     27          6           0        2.443668    2.435960    5.209983
     28          6           0        2.869098    1.593281    3.982313
     29          6           0        3.294223    4.846766    5.221218
     30          6           0        1.209753    1.977806    6.027276
     31          6           0        0.041123    1.733693    5.098938
     32          7           0        3.623043   -0.312939    1.815293
     33          6           0        3.591493   -0.620309    3.183212
     34          6           0        4.051974   -2.013984    3.323548
     35          6           0        4.337041   -2.417799    2.020661
     36          6           0        4.096454   -1.336006    1.126158
     37          6           0        4.216093   -2.718034    4.549032
     38          6           0        4.812389   -3.503720    1.178831
     39          8           0        5.080832   -4.691491    1.364926
     40          6           0        5.104740   -2.920481   -0.273818
     41          6           0        4.471566   -3.850244   -1.272788
     42          8           0        3.230946   -3.966175   -1.341979
     43          8           0        5.404009   -4.272163   -2.140588
     44          6           0        4.835807   -5.175360   -3.176704
     45          1           0        4.821668    3.539679   -2.804538
     46          1           0        2.027900    5.394669    2.457389
     47          1           0        3.177768   -0.182388    5.105679
     48          1           0        6.107682   -1.230752   -2.727291
     49          1           0        5.393813    1.247826   -3.865048
     50          1           0        7.523969    0.429699   -1.926239
     51          1           0        6.966253    2.124236   -1.772089
     52          1           0        7.626263    1.607981   -3.298015
     53          1           0        3.503838   -0.214694   -3.884414
     54          1           0        3.516015   -1.868451   -3.151330
     55          1           0        5.688904   -1.674225   -4.975564
     56          1           0        4.454861   -0.695376   -5.673307
     57          1           0        3.755427    5.235605   -3.460149
     58          1           0        3.510887    6.713952   -2.611207
     59          1           0        2.087035    5.902428   -3.312200
     60          1           0        1.937393    7.938558   -1.590792
     61          1           0        0.349717    8.356325   -0.734503
     62          1           0        0.498886    6.991800   -1.874130
     63          1           0        1.355129    4.272723    4.645787
     64          1           0        3.268773    2.380329    5.920462
     65          1           0        2.777387    5.685583    5.688091
     66          1           0        4.032361    5.195066    4.499323
     67          1           0        3.931063    4.396785    5.982381
     68          1           0        0.907070    2.757064    6.725908
     69          1           0        1.387332    1.068368    6.601418
     70          1           0       -0.378996    2.730430    4.969144
     71          1           0       -0.681465    1.063129    5.565223
     72          1           0        0.375550    1.390971    4.119557
     73          1           0        3.806615   -3.714785    4.385376
     74          1           0        3.707575   -2.210513    5.368444
     75          1           0        5.300841   -2.694020    4.652001
     76          1           0        6.188037   -2.878816   -0.382699
     77          1           0        5.406597   -6.103366   -3.141526
     78          1           0        4.838531   -4.614792   -4.111670
     79          1           0        3.827313   -5.546917   -2.991710
     80         12           0       -4.255103   -0.640895   -0.603865
     81          6           0       -1.348373   -2.712319   -0.230814
     82          6           0       -2.177499    1.810768   -1.747325
     83          6           0       -6.722660    1.351953   -0.519341
     84          6           0       -5.897950   -2.790268    1.593165
     85          7           0       -2.064787   -0.579093   -0.905466
     86          6           0       -1.070762   -1.446496   -0.787648
     87          6           0        0.282499   -0.956846   -1.369448
     88          6           0        0.026831    0.625668   -1.273831
     89          6           0       -1.498641    0.631753   -1.348344
     90          6           0        0.442249    1.222876    0.060382
     91          6           0        0.495535   -1.415580   -2.854767
     92          6           0        1.920446   -1.239309   -3.384193
     93          1           0        2.444859   -2.234064   -4.315823
     94          7           0       -4.525864    1.106780   -1.504366
     95          6           0       -3.570528    1.963870   -1.921519
     96          6           0       -4.285113    3.111810   -2.500973
     97          6           0       -5.740368    2.937199   -2.243163
     98          6           0       -5.716946    1.776956   -1.375189
     99          6           0       -3.593798    4.189071   -3.285203
    100          6           0       -6.951597    3.697338   -2.691852
    101          8           0       -8.100278    3.511875   -2.154306
    102          6           0       -6.735107    4.731359   -3.714299
    103          7           0       -5.982399   -0.583772    0.551775
    104          6           0       -6.918232    0.360402    0.350074
    105          6           0       -8.187372    0.040162    1.103138
    106          6           0       -7.992191   -1.445555    1.661807
    107          6           0       -6.544647   -1.705196    1.189987
    108          6           0       -8.528689    0.978150    2.260756
    109          6           0       -9.086775   -2.484810    1.295073
    110          6           0       -9.053900   -2.766841   -0.189773
    111          7           0       -3.809889   -2.527272    0.350815
    112          6           0       -4.628396   -3.240348    1.253943
    113          6           0       -3.849176   -4.405230    1.721156
    114          6           0       -2.613243   -4.275387    1.069916
    115          6           0       -2.614458   -3.100770    0.270056
    116          6           0       -4.288423   -5.375168    2.665821
    117          6           0       -1.304087   -4.859162    0.885486
    118          8           0       -0.760860   -5.904034    1.241687
    119          6           0       -0.382122   -3.805115    0.133575
    120          6           0        0.322140   -4.520002   -0.986902
    121          8           0       -0.321699   -4.981632   -1.945530
    122          8           0        1.650121   -4.351196   -0.851437
    123          6           0        2.391423   -5.032899   -1.945766
    124          1           0       -1.593601    2.718544   -1.901918
    125          1           0       -7.639497    1.945711   -0.537597
    126          1           0       -6.374246   -3.560885    2.203047
    127          1           0        1.153245   -1.228802   -0.784957
    128          1           0        0.452362    1.146808   -2.127465
    129          1           0        0.732380    0.461913    0.769537
    130          1           0       -0.421154    1.766572    0.420896
    131          1           0        1.227676    1.969299   -0.088921
    132          1           0       -0.039325   -0.727665   -3.522194
    133          1           0        0.184023   -2.433395   -2.987593
    134          1           0        2.639550   -1.051433   -2.577638
    135          1           0        1.955274   -0.331368   -3.991193
    136          1           0       -2.504512    4.137266   -3.166119
    137          1           0       -3.871757    5.145275   -2.828821
    138          1           0       -3.889120    4.200167   -4.336548
    139          1           0       -6.018909    5.461033   -3.344012
    140          1           0       -7.729556    5.102321   -3.969905
    141          1           0       -6.280780    4.263171   -4.594644
    142          1           0       -9.044510    0.056926    0.441212
    143          1           0       -7.973148   -1.468191    2.761338
    144          1           0       -9.526455    1.446248    2.163603
    145          1           0       -7.758259    1.734987    2.325370
    146          1           0       -8.490247    0.524339    3.249574
    147          1           0      -10.079175   -2.082368    1.512650
    148          1           0       -8.992861   -3.420319    1.836375
    149          1           0       -9.641374   -1.945090   -0.610108
    150          1           0       -9.510930   -3.730172   -0.406928
    151          1           0       -8.035011   -2.679247   -0.584536
    152          1           0       -3.994199   -6.341850    2.279222
    153          1           0       -5.363663   -5.319230    2.822358
    154          1           0       -3.727948   -5.055594    3.548437
    155          1           0        0.318221   -3.401390    0.865759
    156          1           0        3.107803   -5.711234   -1.472123
    157          1           0        2.805170   -4.223245   -2.575856
    158          1           0        1.836499   -5.717873   -2.576110
 ---------------------------------------------------------------------

 SCF Done:  E(RCAM-B3LYP) =  -4069.30919896     A.U. after   21 cycles

 Excitation energies and oscillator strengths:

 Excited State   1:      Singlet-A      1.4606 eV  848.87 nm  f=0.0037  <S**2>=0.000
     312 -> 313        0.63737
     312 -> 317       -0.12442
     312 -> 318        0.25564
 This state for optimization and/or second-order correction.
 Total Energy, E(TD-HF/TD-DFT) =  -4069.25552348
 Copying the excited state density for this state as the 1-particle RhoCI density.

 Excited State   2:      Singlet-A      1.6163 eV  767.06 nm  f=0.0201  <S**2>=0.000
     308 -> 315        0.13294
     310 -> 313        0.56274
     311 -> 314       -0.39511

 Excited State   3:      Singlet-A      1.7098 eV  725.15 nm  f=0.6317  <S**2>=0.000
     308 -> 315        0.10680
     309 -> 316        0.14816
     310 -> 313        0.39000
     311 -> 314        0.55922

 Excited State   4:      Singlet-A      1.7544 eV  706.70 nm  f=0.0057  <S**2>=0.000
     312 -> 313       -0.28919
     312 -> 317       -0.11311
     312 -> 318        0.59329
     312 -> 319       -0.18064

 Excited State   5:      Singlet-A      1.9024 eV  651.72 nm  f=0.0005  <S**2>=0.000
     311 -> 313        0.70335

 The electronic state is 1-A.
 Alpha  occ. eigenvalues --  -46.88501 -46.87141 -19.29582 -19.21756 -19.21000
 Alpha  occ. eigenvalues --  -19.19589 -19.19293 -19.18266 -19.17096 -19.16093
 Alpha  occ. eigenvalues --  -14.43218 -14.42224 -14.42041 -14.40819 -14.40082
 Alpha  occ. eigenvalues --  -14.39342 -14.38834 -14.38042 -10.42543 -10.36212
 Alpha  occ. eigenvalues --  -10.35676 -10.35537 -10.34960 -10.33188 -10.32483
 Alpha  occ. eigenvalues --  -10.32286 -10.31855 -10.31477 -10.31320 -10.30937
 Alpha  occ. eigenvalues --  -10.30818 -10.30715 -10.30692 -10.30467 -10.30457
 Alpha  occ. eigenvalues --  -10.30033 -10.29830 -10.29755 -10.29738 -10.29346
 Alpha  occ. eigenvalues --  -10.29319 -10.29169 -10.29013 -10.28939 -10.28845
 Alpha  occ. eigenvalues --  -10.28732 -10.28695 -10.28639 -10.28507 -10.28460
 Alpha  occ. eigenvalues --  -10.28411 -10.28249 -10.28118 -10.28108 -10.28074
 Alpha  occ. eigenvalues --  -10.28043 -10.27777 -10.27456 -10.27275 -10.27191
 Alpha  occ. eigenvalues --  -10.27144 -10.27138 -10.27121 -10.26972 -10.26913
 Alpha  occ. eigenvalues --  -10.26811 -10.26801 -10.26800 -10.26763 -10.26631
 Alpha  occ. eigenvalues --  -10.26369 -10.26101 -10.25963 -10.25802 -10.25723
 Alpha  occ. eigenvalues --  -10.25659 -10.25453 -10.25441 -10.25387 -10.25286
 Alpha  occ. eigenvalues --  -10.25087 -10.25053 -10.25045 -10.24390 -10.24268
 Alpha  occ. eigenvalues --  -10.24132  -3.17192  -3.15892  -1.92069  -1.91666
 Alpha  occ. eigenvalues --   -1.91516  -1.90775  -1.90364  -1.90199  -1.23656
 Alpha  occ. eigenvalues --   -1.17247  -1.11634  -1.09703  -1.07979  -1.07574
 Alpha  occ. eigenvalues --   -1.06530  -1.05456  -1.04586  -1.04116  -1.04067
 Alpha  occ. eigenvalues --   -1.03951  -1.03232  -1.03141  -1.02514  -1.01576
 Alpha  occ. eigenvalues --   -0.93448  -0.91225  -0.90552  -0.90349  -0.89222
 Alpha  occ. eigenvalues --   -0.89022  -0.88951  -0.88654  -0.88544  -0.88140
 Alpha  occ. eigenvalues --   -0.87815  -0.87391  -0.87269  -0.87165  -0.86668
 Alpha  occ. eigenvalues --   -0.86160  -0.84539  -0.84287  -0.83690  -0.83463
 Alpha  occ. eigenvalues --   -0.83134  -0.82515  -0.82358  -0.81702  -0.81470
 Alpha  occ. eigenvalues --   -0.80207  -0.79610  -0.78253  -0.78181  -0.78132
 Alpha  occ. eigenvalues --   -0.77357  -0.76940  -0.76755  -0.75930  -0.75649
 Alpha  occ. eigenvalues --   -0.74547  -0.73570  -0.72629  -0.72432  -0.72076
 Alpha  occ. eigenvalues --   -0.71099  -0.70631  -0.70293  -0.69450  -0.69148
 Alpha  occ. eigenvalues --   -0.68426  -0.67900  -0.67058  -0.66861  -0.65775
 Alpha  occ. eigenvalues --   -0.65523  -0.65225  -0.64948  -0.64344  -0.64018
 Alpha  occ. eigenvalues --   -0.63770  -0.63180  -0.62979  -0.62380  -0.61234
 Alpha  occ. eigenvalues --   -0.60501  -0.60247  -0.59870  -0.59472  -0.59388
 Alpha  occ. eigenvalues --   -0.59094  -0.58468  -0.58127  -0.57831  -0.57157
 Alpha  occ. eigenvalues --   -0.57050  -0.56808  -0.56591  -0.56238  -0.55932
 Alpha  occ. eigenvalues --   -0.55877  -0.55713  -0.55151  -0.55110  -0.54693
 Alpha  occ. eigenvalues --   -0.54545  -0.54328  -0.53981  -0.53791  -0.53632
 Alpha  occ. eigenvalues --   -0.53392  -0.53110  -0.52995  -0.52932  -0.52601
 Alpha  occ. eigenvalues --   -0.52453  -0.52383  -0.52133  -0.52085  -0.51795
 Alpha  occ. eigenvalues --   -0.51428  -0.51346  -0.51245  -0.51024  -0.50699
 Alpha  occ. eigenvalues --   -0.50673  -0.50621  -0.50525  -0.50116  -0.50019
 Alpha  occ. eigenvalues --   -0.49918  -0.49559  -0.49522  -0.49411  -0.49256
 Alpha  occ. eigenvalues --   -0.49088  -0.49031  -0.48499  -0.48320  -0.48273
 Alpha  occ. eigenvalues --   -0.48012  -0.47907  -0.47789  -0.47639  -0.47495
 Alpha  occ. eigenvalues --   -0.47393  -0.47191  -0.46812  -0.46775  -0.46621
 Alpha  occ. eigenvalues --   -0.46542  -0.46230  -0.46030  -0.45840  -0.45759
 Alpha  occ. eigenvalues --   -0.45729  -0.45380  -0.45273  -0.45051  -0.44907
 Alpha  occ. eigenvalues --   -0.44799  -0.44718  -0.44524  -0.44266  -0.44148
 Alpha  occ. eigenvalues --   -0.43964  -0.43906  -0.43824  -0.43718  -0.43498
 Alpha  occ. eigenvalues --   -0.43386  -0.43376  -0.43122  -0.42753  -0.42610
 Alpha  occ. eigenvalues --   -0.42515  -0.42276  -0.42130  -0.41915  -0.41741
 Alpha  occ. eigenvalues --   -0.41674  -0.41536  -0.41442  -0.41234  -0.41135
 Alpha  occ. eigenvalues --   -0.40846  -0.40689  -0.40538  -0.40190  -0.40069
 Alpha  occ. eigenvalues --   -0.40035  -0.39916  -0.39501  -0.39111  -0.39050
 Alpha  occ. eigenvalues --   -0.38338  -0.38057  -0.38032  -0.37868  -0.37584
 Alpha  occ. eigenvalues --   -0.37090  -0.36879  -0.36766  -0.36108  -0.35747
 Alpha  occ. eigenvalues --   -0.35013  -0.34160  -0.33818  -0.33598  -0.32734
 Alpha  occ. eigenvalues --   -0.32676  -0.32083  -0.31571  -0.31157  -0.30866
 Alpha  occ. eigenvalues --   -0.30705  -0.30230  -0.30147  -0.29524  -0.28939
 Alpha  occ. eigenvalues --   -0.28802  -0.28572  -0.24963  -0.23431  -0.21938
 Alpha  occ. eigenvalues --   -0.20632  -0.20465
 Alpha virt. eigenvalues --   -0.09665  -0.08238  -0.02634  -0.01191  -0.00970
 Alpha virt. eigenvalues --    0.00408   0.00444   0.01238   0.02911   0.03362
 Alpha virt. eigenvalues --    0.03750   0.03920   0.05264   0.05501   0.06445

 Mulliken charges:
               1
     1  Mg   0.657660
     2  C   -0.012278
     3  C   -0.091882
     4  C   -0.033354
     5  C   -0.058161
     6  N   -0.247742
     7  C   -0.078608
     8  C    0.033816
     9  C   -0.072581
    10  C    0.041382
    11  C    0.108121
    12  C   -0.020343
    13  C   -0.040929
    14  H    0.041174
    15  N   -0.440597
    16  C    0.172012
    17  C   -0.178758
    18  C   -0.005022
    19  C    0.146339
    20  C    0.110849
    21  C    0.012228
    22  O   -0.246546
    23  C    0.063158
    24  N   -0.323597
    25  C    0.038563
    26  C   -0.027120
    27  C   -0.025515
    28  C    0.079498
    29  C    0.075720
    30  C    0.034477
    31  C   -0.006343
    32  N   -0.305421
    33  C    0.079549
    34  C   -0.167084
    35  C    0.009187
    36  C    0.081526
    37  C    0.125754
    38  C    0.047798
    39  O   -0.182106
    40  C    0.010582
    41  C    0.241614
    42  O   -0.157452
    43  O   -0.278534
    44  C    0.167267
    45  H   -0.017176
    46  H   -0.015593
    47  H   -0.040259
    48  H   -0.015617
    49  H   -0.004737
    50  H    0.025352
    51  H    0.016641
    52  H    0.017577
    53  H    0.009154
    54  H    0.074421
    55  H    0.011208
    56  H    0.014837
    57  H    0.007278
    58  H    0.029085
    59  H    0.038145
    60  H    0.039063
    61  H    0.038190
    62  H    0.028266
    63  H    0.018041
    64  H    0.010891
    65  H    0.024896
    66  H    0.012941
    67  H    0.006382
    68  H    0.008060
    69  H    0.006265
    70  H    0.009670
    71  H    0.020966
    72  H    0.029474
    73  H    0.053486
    74  H    0.011468
    75  H    0.047176
    76  H    0.037127
    77  H    0.047376
    78  H    0.049535
    79  H    0.035064
    80  Mg   0.835922
    81  C   -0.012258
    82  C   -0.088900
    83  C   -0.046537
    84  C   -0.067943
    85  N   -0.253476
    86  C   -0.046966
    87  C   -0.026086
    88  C   -0.084908
    89  C    0.044318
    90  C    0.035707
    91  C    0.170206
    92  C   -0.170614
    93  H    0.051977
    94  N   -0.423013
    95  C    0.161195
    96  C   -0.175513
    97  C   -0.009341
    98  C    0.151535
    99  C    0.100622
   100  C    0.014734
   101  O   -0.254734
   102  C    0.061487
   103  N   -0.350865
   104  C    0.036750
   105  C   -0.019161
   106  C   -0.034988
   107  C    0.090620
   108  C    0.074218
   109  C    0.035034
   110  C   -0.007531
   111  N   -0.324414
   112  C    0.080287
   113  C   -0.164847
   114  C    0.004425
   115  C    0.094189
   116  C    0.131593
   117  C    0.040714
   118  O   -0.183379
   119  C    0.003496
   120  C    0.218871
   121  O   -0.259640
   122  O   -0.318352
   123  C    0.357757
   124  H   -0.021876
   125  H   -0.017245
   126  H   -0.041741
   127  H    0.011562
   128  H   -0.000974
   129  H    0.076943
   130  H    0.026858
   131  H    0.131454
   132  H   -0.009959
   133  H    0.033058
   134  H    0.034566
   135  H    0.017054
   136  H    0.003530
   137  H    0.024230
   138  H    0.037381
   139  H    0.037095
   140  H    0.034993
   141  H    0.032794
   142  H    0.013544
   143  H    0.011260
   144  H    0.024025
   145  H    0.011376
   146  H    0.004178
   147  H    0.005242
   148  H    0.003179
   149  H    0.010484
   150  H    0.017299
   151  H    0.031091
   152  H    0.047139
   153  H    0.007203
   154  H    0.045230
   155  H    0.031200
   156  H   -0.050787
   157  H   -0.089340
   158  H   -0.067196
 Sum of Mulliken charges =  -0.00000

 Dipole moment (field-independent basis, Debye):
    X=              5.5631    Y=              7.9382    Z=             -1.5725  Tot=              9.8202
 Quadrupole moment (field-independent basis, Debye-Ang):
   XX=           -497.7143   YY=           -563.5405   ZZ=           -468.3315
   XY=             26.9654   XZ=            -34.3896   YZ=            -18.1440

 Normal termination of Gaussian 16 at Thu Sep  9 04:28:51 2021.
