 Gaussian 16, Revision A.03,
 Gaussian 16:  ES64L-G16RevA.03 25-Dec-2016

 -----------------------------------
 #p cam-b3lyp/Def2SVP td=(nstates=5)
 -----------------------------------

 --------------------------------
 TDDFT excited states in gaussian
 --------------------------------
 Symbolic Z-matrix:
 Charge =  0 Multiplicity = 1

                         Standard orientation:
 ---------------------------------------------------------------------
 Center     Atomic      Atomic             Coordinates (Angstroms)
 Number     Number       Type             X           Y           Z
 ---------------------------------------------------------------------
      1         12           0       -5.171767    0.615000    0.612683
      2          6           0       -5.699813   -2.020722   -1.750864
      3          6           0       -5.738739   -1.679627    3.073637
      4          6           0       -5.159909    3.006566    2.695204
      5          6           0       -5.769088    2.862575   -1.982943
      6          7           0       -5.647076   -1.546026    0.544172
      7          6           0       -5.762418   -2.450292   -0.423387
      8          6           0       -5.880743   -3.910579    0.106647
      9          6           0       -6.445917   -3.603814    1.565575
     10          6           0       -5.881758   -2.206871    1.755839
     11          6           0       -7.968262   -3.531223    1.626397
     12          6           0       -4.493666   -4.634267    0.170079
     13          6           0       -4.556875   -6.152255    0.362624
     14          1           0       -3.562833   -6.984032   -0.298720
     15          7           0       -4.932444    0.605076    2.573672
     16          6           0       -5.197818   -0.421628    3.416727
     17          6           0       -4.855638    0.064060    4.770869
     18          6           0       -4.549834    1.518087    4.668968
     19          6           0       -4.898437    1.777123    3.295377
     20          6           0       -4.795593   -0.826647    5.973693
     21          6           0       -4.036411    2.518037    5.656201
     22          8           0       -4.062069    3.775495    5.426602
     23          6           0       -3.578133    1.985948    6.952312
     24          7           0       -5.641920    2.642312    0.449590
     25          6           0       -5.495409    3.470491    1.489608
     26          6           0       -5.617419    4.904541    1.067052
     27          6           0       -5.636951    4.894798   -0.529594
     28          6           0       -5.602873    3.363282   -0.756675
     29          6           0       -6.852108    5.653006    1.587969
     30          6           0       -4.582429    5.771060   -1.251098
     31          6           0       -3.198236    5.212097   -1.008886
     32          7           0       -5.476116    0.485757   -1.532477
     33          6           0       -5.730022    1.546906   -2.413481
     34          6           0       -5.973077    0.956292   -3.742453
     35          6           0       -5.859297   -0.417346   -3.537466
     36          6           0       -5.589847   -0.670259   -2.162067
     37          6           0       -6.313208    1.673210   -4.923458
     38          6           0       -5.927052   -1.731556   -4.155622
     39          8           0       -6.032027   -2.141281   -5.312600
     40          6           0       -5.947286   -2.827961   -3.000930
     41          6           0       -4.943548   -3.888354   -3.363400
     42          8           0       -3.722272   -3.632634   -3.384805
     43          8           0       -5.551728   -5.084046   -3.394697
     44          6           0       -4.605363   -6.184493   -3.719604
     45          1           0       -6.128696   -2.253164    3.916803
     46          1           0       -5.056426    3.868266    3.357927
     47          1           0       -5.878309    3.506394   -2.857598
     48          1           0       -6.584736   -4.537273   -0.441142
     49          1           0       -6.035312   -4.283249    2.312230
     50          1           0       -8.409277   -3.574458    0.630628
     51          1           0       -8.195372   -2.577029    2.102241
     52          1           0       -8.366475   -4.299255    2.289971
     53          1           0       -3.982568   -4.351643    1.090385
     54          1           0       -3.899415   -4.407659   -0.715833
     55          1           0       -5.560486   -6.536081    0.177284
     56          1           0       -4.373155   -6.371045    1.414564
     57          1           0       -5.230927   -1.804219    5.770265
     58          1           0       -5.450490   -0.389082    6.726923
     59          1           0       -3.784053   -0.912138    6.370947
     60          1           0       -4.400479    1.458062    7.435670
     61          1           0       -3.162880    2.834009    7.495641
     62          1           0       -2.799901    1.243343    6.773867
     63          1           0       -4.763635    5.487351    1.410286
     64          1           0       -6.589913    5.242543   -0.929108
     65          1           0       -6.611895    6.553913    2.153098
     66          1           0       -7.438182    4.958712    2.189438
     67          1           0       -7.572226    5.936389    0.820805
     68          1           0       -4.593668    6.784371   -0.851070
     69          1           0       -4.741819    5.837608   -2.327396
     70          1           0       -2.930473    5.635719   -0.041581
     71          1           0       -2.510953    5.548153   -1.786008
     72          1           0       -3.220973    4.128137   -0.894865
     73          1           0       -5.716627    1.239597   -5.725979
     74          1           0       -6.112328    2.738463   -4.811709
     75          1           0       -7.378612    1.454219   -4.992832
     76          1           0       -6.962346   -3.221832   -2.960409
     77          1           0       -5.005283   -6.705356   -4.589662
     78          1           0       -4.471963   -6.759231   -2.802934
     79          1           0       -3.625676   -5.883436   -4.092317
     80         12           0        5.328412    0.573272   -0.768940
     81          6           0        5.398743   -2.265708    1.425224
     82          6           0        4.817248    2.507596    1.993613
     83          6           0        4.812867    3.031480   -2.707718
     84          6           0        4.703169   -1.640515   -3.386942
     85          7           0        5.150436    0.069917    1.377500
     86          6           0        5.255327   -1.035345    2.099825
     87          6           0        5.284190   -0.800751    3.634000
     88          6           0        4.529207    0.616000    3.674869
     89          6           0        4.878507    1.119555    2.275904
     90          6           0        3.018017    0.489996    3.773643
     91          6           0        6.745605   -0.689222    4.194218
     92          6           0        6.857952   -0.769291    5.718269
     93          1           0        8.022630   -1.433964    6.296364
     94          7           0        5.368169    2.524268   -0.407567
     95          6           0        5.161496    3.136780    0.777079
     96          6           0        5.278197    4.578763    0.510189
     97          6           0        5.407213    4.774881   -0.959369
     98          6           0        5.175119    3.423048   -1.427097
     99          6           0        5.340597    5.606112    1.602937
    100          6           0        5.680011    5.982013   -1.804721
    101          8           0        5.512768    5.965954   -3.075395
    102          6           0        6.058824    7.210226   -1.090938
    103          7           0        4.621756    0.706464   -2.719637
    104          6           0        4.544000    1.893049   -3.347252
    105          6           0        4.273157    1.713400   -4.821960
    106          6           0        4.425992    0.145769   -5.099000
    107          6           0        4.682252   -0.342373   -3.656281
    108          6           0        2.903120    2.184819   -5.308962
    109          6           0        5.424050   -0.278355   -6.211058
    110          6           0        6.838586    0.041964   -5.784593
    111          7           0        5.271744   -1.572938   -1.011075
    112          6           0        4.964143   -2.290773   -2.187586
    113          6           0        4.940685   -3.723863   -1.829628
    114          6           0        5.215774   -3.738902   -0.453921
    115          6           0        5.377866   -2.407816    0.016634
    116          6           0        4.642366   -4.797693   -2.715078
    117          6           0        5.395385   -4.577522    0.709332
    118          8           0        5.458372   -5.790685    0.904266
    119          6           0        5.396768   -3.653847    2.002868
    120          6           0        6.564652   -4.057466    2.860571
    121          8           0        7.730277   -3.888945    2.461146
    122          8           0        6.119921   -4.371897    4.090902
    123          6           0        7.242988   -4.768215    4.981681
    124          1           0        4.428929    3.176675    2.762002
    125          1           0        4.731266    3.836609   -3.441593
    126          1           0        4.612555   -2.399986   -4.166476
    127          1           0        4.735220   -1.531534    4.215686
    128          1           0        4.955038    1.268779    4.432442
    129          1           0        2.692294   -0.535384    3.680681
    130          1           0        2.619440    1.088382    2.964870
    131          1           0        2.660539    0.954808    4.696951
    132          1           0        7.114294    0.331812    4.032022
    133          1           0        7.382870   -1.426332    3.745681
    134          1           0        5.935054   -1.139910    6.180705
    135          1           0        6.966703    0.244235    6.111923
    136          1           0        5.055417    5.179765    2.572627
    137          1           0        4.560702    6.345650    1.391460
    138          1           0        6.306243    6.114120    1.648826
    139          1           0        5.269748    7.480385   -0.393206
    140          1           0        6.299784    7.937631   -1.868562
    141          1           0        6.952522    7.004801   -0.491175
    142          1           0        5.003057    2.248260   -5.417175
    143          1           0        3.475673   -0.305925   -5.419446
    144          1           0        2.962597    2.936232   -6.118845
    145          1           0        2.357547    2.580376   -4.462548
    146          1           0        2.241640    1.395376   -5.661714
    147          1           0        5.238446    0.292378   -7.124284
    148          1           0        5.360789   -1.329973   -6.470071
    149          1           0        6.941241    1.099723   -6.044785
    150          1           0        7.551869   -0.570342   -6.332617
    151          1           0        6.950513   -0.042417   -4.697389
    152          1           0        5.363222   -5.578391   -2.511661
    153          1           0        4.683109   -4.478906   -3.754548
    154          1           0        3.623227   -5.034540   -2.398017
    155          1           0        4.443957   -3.802307    2.512446
    156          1           0        7.004427   -5.761676    5.373866
    157          1           0        7.345211   -3.947742    5.716611
    158          1           0        8.207714   -4.948370    4.522013
 ---------------------------------------------------------------------

 SCF Done:  E(RCAM-B3LYP) =  -4069.81201687     A.U. after   19 cycles

 Excitation energies and oscillator strengths:

 Excited State   1:      Singlet-A      1.6710 eV  741.96 nm  f=0.3055  <S**2>=0.000
     310 -> 316        0.14676
     311 -> 313        0.35988
     312 -> 314        0.58407
 This state for optimization and/or second-order correction.
 Total Energy, E(TD-HF/TD-DFT) =  -4069.75060723
 Copying the excited state density for this state as the 1-particle RhoCI density.

 Excited State   2:      Singlet-A      1.6797 eV  738.13 nm  f=0.3947  <S**2>=0.000
     309 -> 315       -0.14890
     311 -> 313        0.58359
     312 -> 314       -0.35981

 Excited State   3:      Singlet-A      2.1851 eV  567.40 nm  f=0.1005  <S**2>=0.000
     310 -> 314        0.64251
     312 -> 316       -0.27275

 Excited State   4:      Singlet-A      2.1911 eV  565.87 nm  f=0.0976  <S**2>=0.000
     309 -> 313        0.64088
     311 -> 315        0.27696

 Excited State   5:      Singlet-A      2.4854 eV  498.86 nm  f=0.0000  <S**2>=0.000
     312 -> 313        0.70708

 The electronic state is 1-A.
 Alpha  occ. eigenvalues --  -46.87880 -46.87503 -19.26320 -19.26315 -19.19104
 Alpha  occ. eigenvalues --  -19.19070 -19.18962 -19.18584 -19.18250 -19.17942
 Alpha  occ. eigenvalues --  -14.42525 -14.42351 -14.41532 -14.41188 -14.39494
 Alpha  occ. eigenvalues --  -14.39199 -14.38670 -14.38443 -10.39130 -10.39030
 Alpha  occ. eigenvalues --  -10.35598 -10.35263 -10.34467 -10.34121 -10.31747
 Alpha  occ. eigenvalues --  -10.31693 -10.31470 -10.31169 -10.30984 -10.30896
 Alpha  occ. eigenvalues --  -10.30648 -10.30599 -10.30298 -10.30239 -10.30207
 Alpha  occ. eigenvalues --  -10.30004 -10.29956 -10.29724 -10.29716 -10.29348
 Alpha  occ. eigenvalues --  -10.29275 -10.29249 -10.28783 -10.28638 -10.28625
 Alpha  occ. eigenvalues --  -10.28498 -10.28451 -10.28264 -10.28156 -10.28048
 Alpha  occ. eigenvalues --  -10.27883 -10.27853 -10.27803 -10.27685 -10.27588
 Alpha  occ. eigenvalues --  -10.27582 -10.27539 -10.27518 -10.27481 -10.27343
 Alpha  occ. eigenvalues --  -10.27328 -10.27318 -10.27280 -10.27223 -10.27154
 Alpha  occ. eigenvalues --  -10.26958 -10.26708 -10.26630 -10.26599 -10.26305
 Alpha  occ. eigenvalues --  -10.26272 -10.26254 -10.26101 -10.25952 -10.25922
 Alpha  occ. eigenvalues --  -10.25922 -10.25751 -10.25663 -10.25523 -10.25128
 Alpha  occ. eigenvalues --  -10.24920 -10.24878 -10.24756 -10.24726 -10.24548
 Alpha  occ. eigenvalues --  -10.24529  -3.16623  -3.16253  -1.91505  -1.91135
 Alpha  occ. eigenvalues --   -1.91091  -1.90934  -1.90724  -1.90561  -1.16672
 Alpha  occ. eigenvalues --   -1.16603  -1.08705  -1.08556  -1.07367  -1.06889
 Alpha  occ. eigenvalues --   -1.06837  -1.06692  -1.04656  -1.04354  -1.03843
 Alpha  occ. eigenvalues --   -1.03508  -1.03321  -1.02872  -1.02496  -1.01952
 Alpha  occ. eigenvalues --   -0.92049  -0.91853  -0.89601  -0.89316  -0.89228
 Alpha  occ. eigenvalues --   -0.89052  -0.88369  -0.88027  -0.87953  -0.87742
 Alpha  occ. eigenvalues --   -0.87634  -0.87535  -0.87388  -0.86979  -0.85034
 Alpha  occ. eigenvalues --   -0.84890  -0.84015  -0.83689  -0.83098  -0.82787
 Alpha  occ. eigenvalues --   -0.82715  -0.82539  -0.81643  -0.81495  -0.80672
 Alpha  occ. eigenvalues --   -0.80322  -0.78896  -0.78487  -0.77289  -0.77016
 Alpha  occ. eigenvalues --   -0.76981  -0.76773  -0.75979  -0.75731  -0.74975
 Alpha  occ. eigenvalues --   -0.74620  -0.72855  -0.72542  -0.71745  -0.71431
 Alpha  occ. eigenvalues --   -0.69984  -0.69562  -0.68936  -0.68714  -0.67729
 Alpha  occ. eigenvalues --   -0.67462  -0.67273  -0.67099  -0.65337  -0.65166
 Alpha  occ. eigenvalues --   -0.64925  -0.64685  -0.64629  -0.64531  -0.64349
 Alpha  occ. eigenvalues --   -0.64025  -0.62354  -0.62176  -0.60547  -0.60185
 Alpha  occ. eigenvalues --   -0.59861  -0.59683  -0.59065  -0.58842  -0.58583
 Alpha  occ. eigenvalues --   -0.58284  -0.57652  -0.57453  -0.57394  -0.57079
 Alpha  occ. eigenvalues --   -0.56396  -0.56066  -0.56025  -0.55800  -0.55617
 Alpha  occ. eigenvalues --   -0.55412  -0.55339  -0.55091  -0.54588  -0.54343
 Alpha  occ. eigenvalues --   -0.53938  -0.53816  -0.53397  -0.53296  -0.53083
 Alpha  occ. eigenvalues --   -0.53026  -0.52989  -0.52850  -0.52791  -0.52551
 Alpha  occ. eigenvalues --   -0.52515  -0.52215  -0.51996  -0.51715  -0.51679
 Alpha  occ. eigenvalues --   -0.51558  -0.51265  -0.51069  -0.50703  -0.50339
 Alpha  occ. eigenvalues --   -0.50112  -0.50023  -0.49859  -0.49681  -0.49592
 Alpha  occ. eigenvalues --   -0.49369  -0.49297  -0.49148  -0.49089  -0.48992
 Alpha  occ. eigenvalues --   -0.48657  -0.48573  -0.48529  -0.48448  -0.48223
 Alpha  occ. eigenvalues --   -0.48185  -0.47772  -0.47464  -0.47383  -0.46967
 Alpha  occ. eigenvalues --   -0.46868  -0.46603  -0.46562  -0.46441  -0.46441
 Alpha  occ. eigenvalues --   -0.46237  -0.46115  -0.45921  -0.45882  -0.45700
 Alpha  occ. eigenvalues --   -0.45283  -0.45023  -0.44653  -0.44594  -0.44404
 Alpha  occ. eigenvalues --   -0.44349  -0.44229  -0.44141  -0.44101  -0.44012
 Alpha  occ. eigenvalues --   -0.43926  -0.43823  -0.43558  -0.43451  -0.43450
 Alpha  occ. eigenvalues --   -0.43255  -0.43101  -0.42846  -0.42768  -0.42759
 Alpha  occ. eigenvalues --   -0.42713  -0.42379  -0.42075  -0.41818  -0.41781
 Alpha  occ. eigenvalues --   -0.41580  -0.41537  -0.41338  -0.41211  -0.40958
 Alpha  occ. eigenvalues --   -0.40910  -0.40853  -0.40643  -0.40609  -0.40580
 Alpha  occ. eigenvalues --   -0.40313  -0.40258  -0.40148  -0.39516  -0.39228
 Alpha  occ. eigenvalues --   -0.38541  -0.38170  -0.37781  -0.37562  -0.37398
 Alpha  occ. eigenvalues --   -0.37313  -0.37103  -0.37069  -0.36769  -0.36690
 Alpha  occ. eigenvalues --   -0.36255  -0.36064  -0.34366  -0.34103  -0.33829
 Alpha  occ. eigenvalues --   -0.33786  -0.33268  -0.33019  -0.31490  -0.31142
 Alpha  occ. eigenvalues --   -0.31118  -0.30825  -0.30107  -0.29849  -0.29551
 Alpha  occ. eigenvalues --   -0.29410  -0.29180  -0.29061  -0.24161  -0.23879
 Alpha  occ. eigenvalues --   -0.21211  -0.20960
 Alpha virt. eigenvalues --   -0.08865  -0.08640  -0.01839  -0.01524  -0.00165
 Alpha virt. eigenvalues --    0.00103   0.02114   0.02348   0.03021   0.03375
 Alpha virt. eigenvalues --    0.04663   0.04863   0.05045   0.05231   0.06166

 Mulliken charges:
               1
     1  Mg   0.838699
     2  C   -0.002898
     3  C   -0.093868
     4  C   -0.046280
     5  C   -0.063945
     6  N   -0.256843
     7  C   -0.052127
     8  C   -0.014045
     9  C   -0.086998
    10  C    0.046322
    11  C    0.104764
    12  C    0.053343
    13  C   -0.072457
    14  H    0.037767
    15  N   -0.433048
    16  C    0.168172
    17  C   -0.177300
    18  C   -0.004542
    19  C    0.148599
    20  C    0.110143
    21  C    0.011400
    22  O   -0.250221
    23  C    0.062849
    24  N   -0.341207
    25  C    0.041365
    26  C   -0.028090
    27  C   -0.024038
    28  C    0.075017
    29  C    0.076186
    30  C    0.035123
    31  C   -0.004541
    32  N   -0.310534
    33  C    0.080584
    34  C   -0.169739
    35  C    0.008352
    36  C    0.083052
    37  C    0.127335
    38  C    0.046023
    39  O   -0.188282
    40  C   -0.005244
    41  C    0.212932
    42  O   -0.257343
    43  O   -0.304709
    44  C    0.157684
    45  H   -0.017381
    46  H   -0.017265
    47  H   -0.041268
    48  H    0.001119
    49  H   -0.003619
    50  H    0.025515
    51  H    0.016271
    52  H    0.016946
    53  H    0.011358
    54  H    0.044117
    55  H    0.017708
    56  H    0.018400
    57  H    0.006405
    58  H    0.026845
    59  H    0.038805
    60  H    0.038017
    61  H    0.034708
    62  H    0.030317
    63  H    0.015974
    64  H    0.009643
    65  H    0.022956
    66  H    0.012617
    67  H    0.004973
    68  H    0.006298
    69  H    0.005141
    70  H    0.007770
    71  H    0.019410
    72  H    0.028841
    73  H    0.047428
    74  H    0.009336
    75  H    0.046252
    76  H    0.035408
    77  H    0.043040
    78  H    0.047044
    79  H    0.053455
    80  Mg   0.838284
    81  C   -0.017136
    82  C   -0.088051
    83  C   -0.045481
    84  C   -0.062736
    85  N   -0.254548
    86  C   -0.049918
    87  C   -0.015071
    88  C   -0.090453
    89  C    0.045601
    90  C    0.114457
    91  C    0.062641
    92  C   -0.077552
    93  H    0.034451
    94  N   -0.423499
    95  C    0.162817
    96  C   -0.174641
    97  C   -0.008001
    98  C    0.152193
    99  C    0.099391
   100  C    0.015324
   101  O   -0.253384
   102  C    0.061270
   103  N   -0.349921
   104  C    0.037983
   105  C   -0.020215
   106  C   -0.035259
   107  C    0.088944
   108  C    0.073034
   109  C    0.034611
   110  C   -0.007579
   111  N   -0.324175
   112  C    0.078366
   113  C   -0.162250
   114  C    0.001940
   115  C    0.096476
   116  C    0.131493
   117  C    0.042276
   118  O   -0.188862
   119  C    0.000937
   120  C    0.211135
   121  O   -0.250967
   122  O   -0.305961
   123  C    0.152132
   124  H   -0.019508
   125  H   -0.015669
   126  H   -0.039390
   127  H   -0.001727
   128  H   -0.004605
   129  H    0.021452
   130  H    0.015642
   131  H    0.015310
   132  H    0.014100
   133  H    0.037627
   134  H    0.019949
   135  H    0.019588
   136  H    0.008827
   137  H    0.026194
   138  H    0.039344
   139  H    0.038155
   140  H    0.036001
   141  H    0.033764
   142  H    0.013872
   143  H    0.015330
   144  H    0.024282
   145  H    0.011616
   146  H    0.008751
   147  H    0.006440
   148  H    0.004019
   149  H    0.010625
   150  H    0.017516
   151  H    0.029688
   152  H    0.045107
   153  H    0.009010
   154  H    0.048312
   155  H    0.034110
   156  H    0.043277
   157  H    0.049278
   158  H    0.053622
 Sum of Mulliken charges =  -0.00000

 Dipole moment (field-independent basis, Debye):
    X=             -3.3129    Y=              1.7987    Z=              6.1212  Tot=              7.1888
 Quadrupole moment (field-independent basis, Debye-Ang):
   XX=           -519.6196   YY=           -508.6803   ZZ=           -490.3819
   XY=             29.8162   XZ=             -5.6616   YZ=             -9.3270

 Normal termination of Gaussian 16 at Sat Sep  4 04:21:34 2021.
