 Gaussian 16, Revision A.03,
 Gaussian 16:  ES64L-G16RevA.03 25-Dec-2016

 -----------------------------------
 #p cam-b3lyp/Def2SVP td=(nstates=5)
 -----------------------------------

 --------------------------------
 TDDFT excited states in gaussian
 --------------------------------
 Symbolic Z-matrix:
 Charge =  0 Multiplicity = 1

                         Standard orientation:
 ---------------------------------------------------------------------
 Center     Atomic      Atomic             Coordinates (Angstroms)
 Number     Number       Type             X           Y           Z
 ---------------------------------------------------------------------
      1         12           0       -5.378142   -0.225831    0.307020
      2          6           0       -5.171876    3.257301    1.105432
      3          6           0       -6.367200    0.702803   -2.823869
      4          6           0       -6.003888   -3.278264   -0.282654
      5          6           0       -5.483735   -0.853878    3.733398
      6          7           0       -5.690539    1.759329   -0.621523
      7          6           0       -5.519021    3.016782   -0.225840
      8          6           0       -5.669147    4.053348   -1.379255
      9          6           0       -6.579848    3.197847   -2.369579
     10          6           0       -6.163121    1.802666   -1.938610
     11          6           0       -8.075172    3.363405   -2.118383
     12          6           0       -4.294384    4.416521   -2.034893
     13          6           0       -4.308002    5.652262   -2.939389
     14          1           0       -3.137065    6.515801   -2.962929
     15          7           0       -5.607422   -1.178474   -1.408425
     16          6           0       -6.000501   -0.639811   -2.587670
     17          6           0       -6.017426   -1.754353   -3.559363
     18          6           0       -5.785945   -3.018190   -2.806218
     19          6           0       -5.816319   -2.538805   -1.448040
     20          6           0       -6.187973   -1.557425   -5.034451
     21          6           0       -5.581859   -4.435011   -3.241073
     22          8           0       -5.629734   -5.412574   -2.418485
     23          6           0       -5.410118   -4.659901   -4.687784
     24          7           0       -5.919999   -1.826732    1.532232
     25          6           0       -6.073693   -3.057536    1.031748
     26          6           0       -6.180385   -4.081257    2.122871
     27          6           0       -5.822559   -3.319767    3.480018
     28          6           0       -5.642124   -1.891680    2.908809
     29          6           0       -7.546537   -4.766028    2.266844
     30          6           0       -4.683491   -3.918372    4.342929
     31          6           0       -3.363743   -3.781413    3.617253
     32          7           0       -5.160009    0.944875    2.121658
     33          6           0       -5.263758    0.481853    3.441325
     34          6           0       -5.150189    1.658770    4.322254
     35          6           0       -5.003922    2.733694    3.447616
     36          6           0       -5.051121    2.261518    2.104815
     37          6           0       -5.245787    1.649490    5.741834
     38          6           0       -4.843440    4.174297    3.334639
     39          8           0       -4.647555    5.090379    4.134587
     40          6           0       -5.067903    4.585638    1.812718
     41          6           0       -3.943962    5.505313    1.419956
     42          8           0       -2.770061    5.087564    1.350614
     43          8           0       -4.453175    6.658876    0.961113
     44          6           0       -3.391276    7.605310    0.526617
     45          1           0       -6.908918    0.869735   -3.756937
     46          1           0       -6.112479   -4.353683   -0.437961
     47          1           0       -5.423066   -0.982651    4.815614
     48          1           0       -6.184484    4.972528   -1.100041
     49          1           0       -6.315860    3.366707   -3.413379
     50          1           0       -8.265664    3.942922   -1.215170
     51          1           0       -8.466051    2.351400   -2.010891
     52          1           0       -8.570663    3.784612   -2.993511
     53          1           0       -4.032812    3.653153   -2.767635
     54          1           0       -3.523179    4.535817   -1.273094
     55          1           0       -5.214224    6.241362   -2.795750
     56          1           0       -4.364236    5.316879   -3.975032
     57          1           0       -6.502358   -0.541239   -5.269128
     58          1           0       -7.027452   -2.179749   -5.343801
     59          1           0       -5.295219   -1.840665   -5.592212
     60          1           0       -6.289243   -4.290570   -5.216256
     61          1           0       -5.187353   -5.720074   -4.802935
     62          1           0       -4.567736   -4.063961   -5.040199
     63          1           0       -5.468879   -4.891643    1.969703
     64          1           0       -6.674042   -3.272626    4.159304
     65          1           0       -7.501922   -5.852679    2.190014
     66          1           0       -8.214125   -4.347841    1.514026
     67          1           0       -8.081617   -4.529782    3.186244
     68          1           0       -4.850755   -4.982451    4.506346
     69          1           0       -4.588587   -3.443726    5.319635
     70          1           0       -3.357902   -4.647956    2.957025
     71          1           0       -2.534646   -3.823757    4.324371
     72          1           0       -3.346213   -2.891760    2.987416
     73          1           0       -4.451498    2.301380    6.105310
     74          1           0       -5.142579    0.639954    6.139061
     75          1           0       -6.249369    2.051722    5.879270
     76          1           0       -6.037827    5.079315    1.761212
     77          1           0       -3.542249    8.532769    1.079122
     78          1           0       -3.442626    7.650406   -0.561379
     79          1           0       -2.371706    7.354027    0.821017
     80         12           0        5.131667   -1.305288   -0.383867
     81          6           0        6.666067    1.904644    0.086217
     82          6           0        3.127636    0.161464   -2.722053
     83          6           0        3.462034   -4.000914   -0.499502
     84          6           0        6.425418   -2.223463    2.719167
     85          7           0        5.008626    0.771863   -1.133924
     86          6           0        5.683832    1.892214   -0.925962
     87          6           0        5.339515    3.042692   -1.909531
     88          6           0        3.863549    2.567853   -2.327761
     89          6           0        4.010738    1.067589   -2.082386
     90          6           0        2.777220    3.098130   -1.406865
     91          6           0        6.303328    3.079536   -3.147155
     92          6           0        6.222784    4.356099   -3.987188
     93          1           0        7.448060    4.867917   -4.594817
     94          7           0        3.878499   -1.981444   -1.766242
     95          6           0        3.165688   -1.248231   -2.646907
     96          6           0        2.381973   -2.213697   -3.432918
     97          6           0        2.565448   -3.564109   -2.835053
     98          6           0        3.308749   -3.223859   -1.638470
     99          6           0        1.625349   -1.830911   -4.671630
    100          6           0        2.131274   -4.933515   -3.262181
    101          8           0        2.194645   -5.938049   -2.468628
    102          6           0        1.542879   -5.045681   -4.604826
    103          7           0        4.786326   -2.810716    1.007813
    104          6           0        4.066981   -3.899620    0.684173
    105          6           0        4.183703   -4.966141    1.746861
    106          6           0        5.329570   -4.458967    2.740513
    107          6           0        5.627996   -3.084612    2.102165
    108          6           0        2.911002   -5.254175    2.542879
    109          6           0        6.516295   -5.427256    2.998930
    110          6           0        7.331536   -5.592892    1.736653
    111          7           0        6.478258   -0.429127    1.060805
    112          6           0        6.864427   -0.972132    2.305836
    113          6           0        7.700652    0.040752    2.982021
    114          6           0        7.724178    1.120388    2.086293
    115          6           0        6.940214    0.810631    0.942202
    116          6           0        8.277321   -0.086631    4.277141
    117          6           0        8.225251    2.455785    1.853196
    118          8           0        9.011671    3.202310    2.434550
    119          6           0        7.459046    3.072223    0.604459
    120          6           0        8.482141    3.686140   -0.311450
    121          8           0        9.320968    2.973388   -0.890191
    122          8           0        8.166767    4.977095   -0.522061
    123          6           0        9.146383    5.626310   -1.433489
    124          1           0        2.299844    0.567395   -3.304189
    125          1           0        2.995753   -4.988195   -0.536031
    126          1           0        6.946824   -2.471591    3.646123
    127          1           0        5.299858    4.027777   -1.460300
    128          1           0        3.668156    2.764983   -3.378624
    129          1           0        3.189706    3.611848   -0.551245
    130          1           0        2.210553    2.231951   -1.091135
    131          1           0        2.079909    3.725964   -1.968924
    132          1           0        5.962617    2.345111   -3.888300
    133          1           0        7.318342    2.909355   -2.844822
    134          1           0        5.687630    5.159289   -3.466193
    135          1           0        5.609642    4.153360   -4.868650
    136          1           0        1.539322   -0.741723   -4.769978
    137          1           0        0.593958   -2.173608   -4.535043
    138          1           0        2.034050   -2.290925   -5.573863
    139          1           0        0.671604   -4.398572   -4.672496
    140          1           0        1.377766   -6.113160   -4.763268
    141          1           0        2.268499   -4.674092   -5.336949
    142          1           0        4.486920   -5.911635    1.314196
    143          1           0        4.936038   -4.258749    3.747927
    144          1           0        2.596978   -6.313994    2.495437
    145          1           0        2.124979   -4.607866    2.175454
    146          1           0        2.955505   -4.987289    3.597392
    147          1           0        6.144262   -6.420837    3.260736
    148          1           0        7.169014   -5.105443    3.803531
    149          1           0        6.778799   -6.358964    1.184650
    150          1           0        8.339824   -5.926920    1.972905
    151          1           0        7.315531   -4.676857    1.134767
    152          1           0        9.290854    0.284830    4.204576
    153          1           0        8.254878   -1.118091    4.622646
    154          1           0        7.605005    0.554170    4.853890
    155          1           0        6.754086    3.812188    0.985310
    156          1           0        9.536145    6.504852   -0.910094
    157          1           0        8.601641    5.804235   -2.379719
    158          1           0       10.060843    5.087474   -1.652246
 ---------------------------------------------------------------------

 SCF Done:  E(RCAM-B3LYP) =  -4069.81147795     A.U. after   19 cycles

 Excitation energies and oscillator strengths:

 Excited State   1:      Singlet-A      1.6556 eV  748.88 nm  f=0.0714  <S**2>=0.000
     309 -> 315       -0.11320
     310 -> 316        0.12542
     311 -> 313       -0.45863
     312 -> 314        0.51179
 This state for optimization and/or second-order correction.
 Total Energy, E(TD-HF/TD-DFT) =  -4069.75063564
 Copying the excited state density for this state as the 1-particle RhoCI density.

 Excited State   2:      Singlet-A      1.6959 eV  731.10 nm  f=0.6636  <S**2>=0.000
     309 -> 315        0.13430
     310 -> 316        0.11896
     311 -> 313        0.50982
     312 -> 314        0.45694

 Excited State   3:      Singlet-A      2.1821 eV  568.18 nm  f=0.0223  <S**2>=0.000
     309 -> 313       -0.27406
     310 -> 314        0.58323
     311 -> 315        0.11405
     312 -> 316       -0.24400

 Excited State   4:      Singlet-A      2.1945 eV  564.98 nm  f=0.1588  <S**2>=0.000
     309 -> 313        0.57930
     310 -> 314        0.27080
     311 -> 315       -0.25405
     312 -> 316       -0.11920

 Excited State   5:      Singlet-A      2.4546 eV  505.11 nm  f=0.0000  <S**2>=0.000
     312 -> 313        0.70696

 The electronic state is 1-A.
 Alpha  occ. eigenvalues --  -46.87957 -46.87503 -19.26490 -19.26214 -19.19230
 Alpha  occ. eigenvalues --  -19.19026 -19.18948 -19.18590 -19.18325 -19.17898
 Alpha  occ. eigenvalues --  -14.42620 -14.42330 -14.41598 -14.41206 -14.39564
 Alpha  occ. eigenvalues --  -14.39199 -14.38745 -14.38443 -10.39285 -10.38951
 Alpha  occ. eigenvalues --  -10.35584 -10.35273 -10.34548 -10.34073 -10.31893
 Alpha  occ. eigenvalues --  -10.31640 -10.31578 -10.31134 -10.31092 -10.30863
 Alpha  occ. eigenvalues --  -10.30734 -10.30654 -10.30349 -10.30246 -10.30209
 Alpha  occ. eigenvalues --  -10.30051 -10.29999 -10.29786 -10.29742 -10.29412
 Alpha  occ. eigenvalues --  -10.29290 -10.29263 -10.28971 -10.28845 -10.28550
 Alpha  occ. eigenvalues --  -10.28533 -10.28531 -10.28319 -10.28250 -10.27951
 Alpha  occ. eigenvalues --  -10.27915 -10.27896 -10.27853 -10.27746 -10.27690
 Alpha  occ. eigenvalues --  -10.27598 -10.27570 -10.27536 -10.27507 -10.27421
 Alpha  occ. eigenvalues --  -10.27394 -10.27333 -10.27332 -10.27324 -10.27248
 Alpha  occ. eigenvalues --  -10.26998 -10.26885 -10.26581 -10.26557 -10.26410
 Alpha  occ. eigenvalues --  -10.26348 -10.26253 -10.26165 -10.26032 -10.25968
 Alpha  occ. eigenvalues --  -10.25788 -10.25704 -10.25660 -10.25512 -10.25276
 Alpha  occ. eigenvalues --  -10.24990 -10.24928 -10.24734 -10.24720 -10.24631
 Alpha  occ. eigenvalues --  -10.24538  -3.16700  -3.16252  -1.91581  -1.91168
 Alpha  occ. eigenvalues --   -1.91134  -1.91010  -1.90723  -1.90560  -1.16839
 Alpha  occ. eigenvalues --   -1.16508  -1.08784  -1.08505  -1.07345  -1.06850
 Alpha  occ. eigenvalues --   -1.06841  -1.06810  -1.04753  -1.04329  -1.03913
 Alpha  occ. eigenvalues --   -1.03507  -1.03389  -1.02888  -1.02565  -1.01957
 Alpha  occ. eigenvalues --   -0.92138  -0.91828  -0.89644  -0.89396  -0.89357
 Alpha  occ. eigenvalues --   -0.88953  -0.88403  -0.88087  -0.88020  -0.87848
 Alpha  occ. eigenvalues --   -0.87643  -0.87530  -0.87444  -0.87011  -0.85182
 Alpha  occ. eigenvalues --   -0.84830  -0.84046  -0.83749  -0.83119  -0.82832
 Alpha  occ. eigenvalues --   -0.82831  -0.82496  -0.81764  -0.81453  -0.80768
 Alpha  occ. eigenvalues --   -0.80300  -0.78963  -0.78510  -0.77385  -0.77112
 Alpha  occ. eigenvalues --   -0.76996  -0.76743  -0.76103  -0.75661  -0.75022
 Alpha  occ. eigenvalues --   -0.74666  -0.72927  -0.72548  -0.71827  -0.71412
 Alpha  occ. eigenvalues --   -0.70004  -0.69633  -0.69062  -0.68666  -0.67803
 Alpha  occ. eigenvalues --   -0.67460  -0.67435  -0.67068  -0.65483  -0.65107
 Alpha  occ. eigenvalues --   -0.65016  -0.64787  -0.64620  -0.64502  -0.64395
 Alpha  occ. eigenvalues --   -0.64067  -0.62473  -0.62139  -0.60595  -0.60218
 Alpha  occ. eigenvalues --   -0.59995  -0.59617  -0.59142  -0.58842  -0.58660
 Alpha  occ. eigenvalues --   -0.58279  -0.57758  -0.57452  -0.57402  -0.57102
 Alpha  occ. eigenvalues --   -0.56473  -0.56174  -0.56065  -0.55750  -0.55684
 Alpha  occ. eigenvalues --   -0.55472  -0.55320  -0.55112  -0.54670  -0.54355
 Alpha  occ. eigenvalues --   -0.54105  -0.53726  -0.53456  -0.53409  -0.53092
 Alpha  occ. eigenvalues --   -0.53089  -0.52996  -0.52942  -0.52759  -0.52542
 Alpha  occ. eigenvalues --   -0.52532  -0.52284  -0.52056  -0.51821  -0.51736
 Alpha  occ. eigenvalues --   -0.51511  -0.51352  -0.51054  -0.50751  -0.50386
 Alpha  occ. eigenvalues --   -0.50164  -0.50077  -0.49828  -0.49735  -0.49695
 Alpha  occ. eigenvalues --   -0.49386  -0.49338  -0.49279  -0.49048  -0.48914
 Alpha  occ. eigenvalues --   -0.48765  -0.48603  -0.48584  -0.48397  -0.48245
 Alpha  occ. eigenvalues --   -0.48210  -0.47862  -0.47455  -0.47454  -0.46994
 Alpha  occ. eigenvalues --   -0.46952  -0.46758  -0.46563  -0.46511  -0.46385
 Alpha  occ. eigenvalues --   -0.46307  -0.46137  -0.45987  -0.45946  -0.45670
 Alpha  occ. eigenvalues --   -0.45321  -0.45072  -0.44743  -0.44675  -0.44368
 Alpha  occ. eigenvalues --   -0.44317  -0.44294  -0.44265  -0.44184  -0.43955
 Alpha  occ. eigenvalues --   -0.43946  -0.43807  -0.43664  -0.43554  -0.43412
 Alpha  occ. eigenvalues --   -0.43227  -0.43182  -0.42881  -0.42793  -0.42771
 Alpha  occ. eigenvalues --   -0.42751  -0.42425  -0.42152  -0.41864  -0.41827
 Alpha  occ. eigenvalues --   -0.41726  -0.41513  -0.41306  -0.41301  -0.41051
 Alpha  occ. eigenvalues --   -0.40988  -0.40812  -0.40693  -0.40592  -0.40545
 Alpha  occ. eigenvalues --   -0.40479  -0.40347  -0.40085  -0.39531  -0.39305
 Alpha  occ. eigenvalues --   -0.38601  -0.38211  -0.37979  -0.37511  -0.37461
 Alpha  occ. eigenvalues --   -0.37454  -0.37123  -0.37039  -0.36893  -0.36637
 Alpha  occ. eigenvalues --   -0.36353  -0.36073  -0.34445  -0.34098  -0.33972
 Alpha  occ. eigenvalues --   -0.33723  -0.33346  -0.33023  -0.31476  -0.31193
 Alpha  occ. eigenvalues --   -0.31147  -0.30815  -0.30186  -0.29801  -0.29609
 Alpha  occ. eigenvalues --   -0.29478  -0.29189  -0.29059  -0.24239  -0.23877
 Alpha  occ. eigenvalues --   -0.21286  -0.20963
 Alpha virt. eigenvalues --   -0.08933  -0.08643  -0.01902  -0.01531  -0.00220
 Alpha virt. eigenvalues --    0.00114   0.02050   0.02358   0.02932   0.03369
 Alpha virt. eigenvalues --    0.04528   0.04894   0.04900   0.05307   0.05931

 Mulliken charges:
               1
     1  Mg   0.838376
     2  C   -0.003511
     3  C   -0.095330
     4  C   -0.044974
     5  C   -0.063553
     6  N   -0.256746
     7  C   -0.052829
     8  C   -0.013827
     9  C   -0.086822
    10  C    0.045866
    11  C    0.104762
    12  C    0.053856
    13  C   -0.071402
    14  H    0.034536
    15  N   -0.433108
    16  C    0.167949
    17  C   -0.178261
    18  C   -0.004216
    19  C    0.148808
    20  C    0.110390
    21  C    0.012442
    22  O   -0.247936
    23  C    0.062957
    24  N   -0.341142
    25  C    0.041203
    26  C   -0.028411
    27  C   -0.024088
    28  C    0.075060
    29  C    0.075992
    30  C    0.034960
    31  C   -0.004654
    32  N   -0.310512
    33  C    0.080541
    34  C   -0.169344
    35  C    0.008502
    36  C    0.083013
    37  C    0.127255
    38  C    0.046232
    39  O   -0.187967
    40  C   -0.005373
    41  C    0.213083
    42  O   -0.257960
    43  O   -0.304527
    44  C    0.157645
    45  H   -0.017691
    46  H   -0.015936
    47  H   -0.040997
    48  H    0.001318
    49  H   -0.004715
    50  H    0.025747
    51  H    0.016839
    52  H    0.016769
    53  H    0.009449
    54  H    0.043272
    55  H    0.018975
    56  H    0.017514
    57  H    0.005621
    58  H    0.027452
    59  H    0.037534
    60  H    0.037498
    61  H    0.036897
    62  H    0.028755
    63  H    0.017692
    64  H    0.009652
    65  H    0.023836
    66  H    0.012414
    67  H    0.004890
    68  H    0.006835
    69  H    0.004582
    70  H    0.010340
    71  H    0.017804
    72  H    0.028781
    73  H    0.047896
    74  H    0.009436
    75  H    0.046308
    76  H    0.035435
    77  H    0.043714
    78  H    0.045914
    79  H    0.053233
    80  Mg   0.838496
    81  C   -0.016746
    82  C   -0.087613
    83  C   -0.045451
    84  C   -0.064757
    85  N   -0.254683
    86  C   -0.048870
    87  C   -0.015176
    88  C   -0.090873
    89  C    0.046340
    90  C    0.114834
    91  C    0.062641
    92  C   -0.077405
    93  H    0.034047
    94  N   -0.423525
    95  C    0.163038
    96  C   -0.174800
    97  C   -0.007814
    98  C    0.152018
    99  C    0.099723
   100  C    0.015978
   101  O   -0.252599
   102  C    0.061526
   103  N   -0.349918
   104  C    0.037534
   105  C   -0.019789
   106  C   -0.034863
   107  C    0.089040
   108  C    0.073676
   109  C    0.034824
   110  C   -0.007604
   111  N   -0.324196
   112  C    0.078737
   113  C   -0.162998
   114  C    0.002545
   115  C    0.096321
   116  C    0.131379
   117  C    0.042553
   118  O   -0.187937
   119  C    0.000814
   120  C    0.211090
   121  O   -0.251395
   122  O   -0.305320
   123  C    0.152215
   124  H   -0.019975
   125  H   -0.015499
   126  H   -0.040696
   127  H   -0.000166
   128  H   -0.005824
   129  H    0.024400
   130  H    0.016642
   131  H    0.016574
   132  H    0.013388
   133  H    0.037393
   134  H    0.020981
   135  H    0.018876
   136  H    0.008050
   137  H    0.024616
   138  H    0.038786
   139  H    0.036812
   140  H    0.036553
   141  H    0.033240
   142  H    0.014153
   143  H    0.012342
   144  H    0.024762
   145  H    0.012347
   146  H    0.005062
   147  H    0.005905
   148  H    0.003505
   149  H    0.010810
   150  H    0.017624
   151  H    0.030239
   152  H    0.045703
   153  H    0.008175
   154  H    0.047634
   155  H    0.036261
   156  H    0.043787
   157  H    0.049252
   158  H    0.053256
 Sum of Mulliken charges =  -0.00000

 Dipole moment (field-independent basis, Debye):
    X=             -6.1817    Y=              0.2753    Z=             -5.9305  Tot=              8.5709
 Quadrupole moment (field-independent basis, Debye-Ang):
   XX=           -542.2287   YY=           -522.9014   ZZ=           -469.6644
   XY=            -17.1372   XZ=             10.3820   YZ=            -57.9592

 Normal termination of Gaussian 16 at Fri Sep 10 21:38:10 2021.
