 Gaussian 16, Revision A.03,
 Gaussian 16:  ES64L-G16RevA.03 25-Dec-2016

 -----------------------------------
 #p cam-b3lyp/Def2SVP td=(nstates=5)
 -----------------------------------

 --------------------------------
 TDDFT excited states in gaussian
 --------------------------------
 Symbolic Z-matrix:
 Charge =  0 Multiplicity = 1

                         Standard orientation:
 ---------------------------------------------------------------------
 Center     Atomic      Atomic             Coordinates (Angstroms)
 Number     Number       Type             X           Y           Z
 ---------------------------------------------------------------------
      1         12           0       16.020752   -0.633419    0.126925
      2          6           0       16.205493    2.624686   -1.343733
      3          6           0       16.885608    0.818496    3.091218
      4          6           0       16.308056   -3.547017    1.345540
      5          6           0       16.291623   -1.940395   -3.092408
      6          7           0       16.461484    1.465008    0.677386
      7          6           0       16.438903    2.627671    0.033277
      8          6           0       16.611890    3.858127    0.973185
      9          6           0       17.368077    3.146414    2.182996
     10          6           0       16.847849    1.732058    1.996224
     11          6           0       18.885732    3.135621    2.030973
     12          6           0       15.238322    4.456185    1.428563
     13          6           0       15.311469    5.842497    2.075202
     14          1           0       14.230527    6.786057    1.833114
     15          7           0       16.042839   -1.239294    2.007159
     16          6           0       16.407258   -0.509677    3.088891
     17          6           0       16.252013   -1.404992    4.255506
     18          6           0       15.949773   -2.770667    3.743961
     19          6           0       16.116156   -2.576660    2.326197
     20          6           0       16.342817   -0.931699    5.673779
     21          6           0       15.581337   -4.050404    4.425621
     22          8           0       15.588801   -5.173282    3.814340
     23          6           0       15.293306   -3.966669    5.868905
     24          7           0       16.485173   -2.485798   -0.716070
     25          6           0       16.485695   -3.600029    0.023844
     26          6           0       16.564878   -4.826477   -0.836093
     27          6           0       16.372942   -4.325092   -2.339931
     28          6           0       16.294021   -2.801758   -2.072546
     29          6           0       17.864943   -5.635526   -0.729883
     30          6           0       15.240943   -4.989012   -3.163465
     31          6           0       13.895506   -4.602319   -2.591305
     32          7           0       16.037383    0.164626   -1.891464
     33          6           0       16.182975   -0.559820   -3.083376
     34          6           0       16.242266    0.422445   -4.181424
     35          6           0       16.143057    1.658834   -3.546329
     36          6           0       16.055426    1.462451   -2.138477
     37          6           0       16.430243    0.121716   -5.559343
     38          6           0       16.115484    3.101131   -3.727640
     39          8           0       16.062449    3.851639   -4.703047
     40          6           0       16.277464    3.788733   -2.300477
     41          6           0       15.224189    4.857091   -2.188525
     42          8           0       14.013395    4.559014   -2.138579
     43          8           0       15.811062    6.033548   -1.920066
     44          6           0       14.819228    7.131307   -1.767277
     45          1           0       17.377993    1.123785    4.016581
     46          1           0       16.301649   -4.574866    1.714219
     47          1           0       16.290533   -2.277565   -4.130564
     48          1           0       17.231021    4.657655    0.565933
     49          1           0       17.053164    3.541578    3.148603
     50          1           0       19.190707    3.505283    1.052065
     51          1           0       19.183189    2.094070    2.154193
     52          1           0       19.360626    3.681374    2.846696
     53          1           0       14.856262    3.878735    2.270372
     54          1           0       14.534371    4.483369    0.596072
     55          1           0       16.277910    6.314901    1.897057
     56          1           0       15.266362    5.717521    3.157120
     57          1           0       16.737755    0.081725    5.733283
     58          1           0       17.095878   -1.546084    6.166871
     59          1           0       15.391920   -1.023758    6.198804
     60          1           0       16.167114   -3.572238    6.387972
     61          1           0       14.961956   -4.960579    6.167569
     62          1           0       14.491021   -3.245483    6.027586
     63          1           0       15.769787   -5.528951   -0.589542
     64          1           0       17.268066   -4.484483   -2.941611
     65          1           0       17.710492   -6.677512   -0.448611
     66          1           0       18.518551   -5.131243   -0.018696
     67          1           0       18.480016   -5.632430   -1.629379
     68          1           0       15.314992   -6.074314   -3.103626
     69          1           0       15.257212   -4.713115   -4.217916
     70          1           0       13.762239   -5.315908   -1.778986
     71          1           0       13.114816   -4.717293   -3.343976
     72          1           0       13.922433   -3.606297   -2.148923
     73          1           0       15.728502    0.750453   -6.107265
     74          1           0       16.256427   -0.934977   -5.761309
     75          1           0       17.474896    0.404946   -5.687154
     76          1           0       17.285029    4.201781   -2.264075
     77          1           0       15.095389    7.914052   -2.473874
     78          1           0       14.802591    7.388694   -0.708089
     79          1           0       13.801865    6.910419   -2.092116
     80         12           0      -15.729015   -0.812495    0.115439
     81          6           0      -17.911385    2.021961   -0.171219
     82          6           0      -13.273156    1.361488    1.051996
     83          6           0      -13.669433   -3.219928   -0.057257
     84          6           0      -17.967529   -2.564714   -1.900620
     85          7           0      -15.716313    1.384464    0.371283
     86          6           0      -16.620565    2.349170    0.293712
     87          6           0      -16.136059    3.728373    0.815818
     88          6           0      -14.556189    3.518720    0.618485
     89          6           0      -14.497022    1.995992    0.720847
     90          6           0      -14.062886    3.924248   -0.760475
     91          6           0      -16.500982    3.958190    2.324464
     92          6           0      -16.334750    5.398454    2.814131
     93          1           0      -17.281069    5.911756    3.800779
     94          7           0      -13.917403   -1.011602    0.900915
     95          6           0      -13.064899   -0.022370    1.241424
     96          6           0      -11.858842   -0.689780    1.755372
     97          6           0      -12.004308   -2.154679    1.537108
     98          6           0      -13.220128   -2.184322    0.749076
     99          6           0      -10.753914    0.049877    2.452142
    100          6           0      -11.178059   -3.332823    1.956019
    101          8           0      -11.362705   -4.497483    1.453721
    102          6           0      -10.085358   -3.064041    2.902193
    103          7           0      -15.694804   -2.560857   -1.009018
    104          6           0      -14.710219   -3.463350   -0.854032
    105          6           0      -15.039874   -4.756925   -1.559982
    106          6           0      -16.565025   -4.618344   -2.020724
    107          6           0      -16.838084   -3.169846   -1.559548
    108          6           0      -14.171053   -5.093672   -2.771655
    109          6           0      -17.542403   -5.736004   -1.564395
    110          6           0      -17.725473   -5.680892   -0.064777
    111          7           0      -17.688074   -0.444368   -0.717995
    112          6           0      -18.433745   -1.302596   -1.555560
    113          6           0      -19.651244   -0.568772   -1.957594
    114          6           0      -19.517206    0.683749   -1.339754
    115          6           0      -18.292313    0.734605   -0.621047
    116          6           0      -20.667801   -1.056621   -2.826344
    117          6           0      -20.128356    1.978203   -1.140828
    118          8           0      -21.211311    2.482123   -1.435821
    119          6           0      -19.056020    2.946987   -0.479038
    120          6           0      -19.716283    3.652406    0.673764
    121          8           0      -20.092283    3.014917    1.673182
    122          8           0      -19.598875    4.981777    0.502479
    123          6           0      -20.228963    5.724669    1.626283
    124          1           0      -12.375957    1.975632    1.134105
    125          1           0      -13.047159   -4.117838   -0.061995
    126          1           0      -18.761771   -3.076625   -2.448157
    127          1           0      -16.473785    4.578204    0.234862
    128          1           0      -13.992848    3.977402    1.426946
    129          1           0      -14.878309    4.176491   -1.421994
    130          1           0      -13.517541    3.070378   -1.140680
    131          1           0      -13.333294    4.734795   -0.676531
    132          1           0      -15.753480    3.458315    2.953827
    133          1           0      -17.497319    3.618892    2.531413
    134          1           0      -16.223973    6.106028    1.983460
    135          1           0      -15.389824    5.473273    3.357756
    136          1           0      -10.847896    1.134392    2.316517
    137          1           0       -9.822066   -0.208467    1.937573
    138          1           0      -10.663268   -0.223117    3.505669
    139          1           0       -9.405021   -2.333961    2.470242
    140          1           0       -9.666968   -4.041318    3.150707
    141          1           0      -10.507758   -2.605916    3.803484
    142          1           0      -14.951891   -5.599257   -0.884821
    143          1           0      -16.661675   -4.622793   -3.116390
    144          1           0      -13.666282   -6.074601   -2.687702
    145          1           0      -13.444899   -4.302228   -2.901516
    146          1           0      -14.690919   -5.089454   -3.728172
    147          1           0      -17.124310   -6.720090   -1.790068
    148          1           0      -18.514494   -5.681629   -2.043022
    149          1           0      -16.859343   -6.234432    0.310067
    150          1           0      -18.657245   -6.162220    0.225335
    151          1           0      -17.643875   -4.651864    0.304108
    152          1           0      -21.615288   -0.783784   -2.380986
    153          1           0      -20.588563   -2.132689   -2.966219
    154          1           0      -20.425769   -0.505148   -3.738797
    155          1           0      -18.724416    3.643887   -1.249722
    156          1           0      -20.959687    6.410252    1.186184
    157          1           0      -19.392458    6.175662    2.192509
    158          1           0      -20.852427    5.162481    2.311614
 ---------------------------------------------------------------------

 SCF Done:  E(RCAM-B3LYP) =  -4069.81178067     A.U. after   19 cycles

 Excitation energies and oscillator strengths:

 Excited State   1:      Singlet-A      1.6756 eV  739.96 nm  f=0.3616  <S**2>=0.000
     310 -> 316        0.17274
     312 -> 314        0.68257
     310 <- 316        0.10412
 This state for optimization and/or second-order correction.
 Total Energy, E(TD-HF/TD-DFT) =  -4069.75020532
 Copying the excited state density for this state as the 1-particle RhoCI density.

 Excited State   2:      Singlet-A      1.6799 eV  738.05 nm  f=0.4196  <S**2>=0.000
     309 -> 315        0.17469
     311 -> 313        0.68223
     309 <- 315        0.10461

 Excited State   3:      Singlet-A      2.1861 eV  567.14 nm  f=0.0951  <S**2>=0.000
     310 -> 314        0.64209
     312 -> 316       -0.27298

 Excited State   4:      Singlet-A      2.1926 eV  565.47 nm  f=0.1050  <S**2>=0.000
     309 -> 313        0.64032
     311 -> 315       -0.27817

 Excited State   5:      Singlet-A      3.0617 eV  404.96 nm  f=0.0000  <S**2>=0.000
     312 -> 313        0.70710

 The electronic state is 1-A.
 Alpha  occ. eigenvalues --  -46.87816 -46.87660 -19.26352 -19.26309 -19.19163
 Alpha  occ. eigenvalues --  -19.19044 -19.18833 -19.18711 -19.18190 -19.18052
 Alpha  occ. eigenvalues --  -14.42497 -14.42469 -14.41468 -14.41359 -14.39422
 Alpha  occ. eigenvalues --  -14.39351 -14.38606 -14.38600 -10.39104 -10.39092
 Alpha  occ. eigenvalues --  -10.35466 -10.35389 -10.34410 -10.34229 -10.31759
 Alpha  occ. eigenvalues --  -10.31706 -10.31425 -10.31309 -10.31022 -10.30929
 Alpha  occ. eigenvalues --  -10.30589 -10.30526 -10.30398 -10.30361 -10.30225
 Alpha  occ. eigenvalues --  -10.30140 -10.29939 -10.29895 -10.29650 -10.29436
 Alpha  occ. eigenvalues --  -10.29400 -10.29273 -10.28770 -10.28718 -10.28655
 Alpha  occ. eigenvalues --  -10.28564 -10.28404 -10.28384 -10.28139 -10.28137
 Alpha  occ. eigenvalues --  -10.28001 -10.27812 -10.27746 -10.27668 -10.27603
 Alpha  occ. eigenvalues --  -10.27518 -10.27517 -10.27500 -10.27483 -10.27466
 Alpha  occ. eigenvalues --  -10.27466 -10.27461 -10.27423 -10.27375 -10.27179
 Alpha  occ. eigenvalues --  -10.27051 -10.26729 -10.26693 -10.26427 -10.26410
 Alpha  occ. eigenvalues --  -10.26253 -10.26200 -10.26139 -10.26038 -10.26022
 Alpha  occ. eigenvalues --  -10.25934 -10.25862 -10.25853 -10.25450 -10.25395
 Alpha  occ. eigenvalues --  -10.24873 -10.24852 -10.24806 -10.24732 -10.24704
 Alpha  occ. eigenvalues --  -10.24689  -3.16559  -3.16410  -1.91440  -1.91292
 Alpha  occ. eigenvalues --   -1.91027  -1.90881  -1.90869  -1.90718  -1.16657
 Alpha  occ. eigenvalues --   -1.16646  -1.08659  -1.08648  -1.07234  -1.06964
 Alpha  occ. eigenvalues --   -1.06947  -1.06667  -1.04600  -1.04495  -1.03779
 Alpha  occ. eigenvalues --   -1.03663  -1.03253  -1.03038  -1.02430  -1.02111
 Alpha  occ. eigenvalues --   -0.91992  -0.91987  -0.89537  -0.89494  -0.89209
 Alpha  occ. eigenvalues --   -0.89150  -0.88304  -0.88220  -0.87889  -0.87794
 Alpha  occ. eigenvalues --   -0.87692  -0.87683  -0.87292  -0.87118  -0.85003
 Alpha  occ. eigenvalues --   -0.84999  -0.83954  -0.83876  -0.82985  -0.82929
 Alpha  occ. eigenvalues --   -0.82669  -0.82652  -0.81607  -0.81597  -0.80617
 Alpha  occ. eigenvalues --   -0.80443  -0.78816  -0.78634  -0.77238  -0.77144
 Alpha  occ. eigenvalues --   -0.76955  -0.76898  -0.75944  -0.75838  -0.74916
 Alpha  occ. eigenvalues --   -0.74802  -0.72793  -0.72699  -0.71691  -0.71580
 Alpha  occ. eigenvalues --   -0.69924  -0.69758  -0.68893  -0.68827  -0.67660
 Alpha  occ. eigenvalues --   -0.67601  -0.67241  -0.67199  -0.65307  -0.65271
 Alpha  occ. eigenvalues --   -0.64874  -0.64770  -0.64654  -0.64641  -0.64287
 Alpha  occ. eigenvalues --   -0.64204  -0.62319  -0.62279  -0.60460  -0.60338
 Alpha  occ. eigenvalues --   -0.59824  -0.59796  -0.59007  -0.58993  -0.58523
 Alpha  occ. eigenvalues --   -0.58425  -0.57606  -0.57555  -0.57328  -0.57236
 Alpha  occ. eigenvalues --   -0.56329  -0.56204  -0.56001  -0.55887  -0.55539
 Alpha  occ. eigenvalues --   -0.55451  -0.55358  -0.55248  -0.54544  -0.54488
 Alpha  occ. eigenvalues --   -0.53916  -0.53912  -0.53318  -0.53242  -0.53227
 Alpha  occ. eigenvalues --   -0.53141  -0.52935  -0.52902  -0.52775  -0.52665
 Alpha  occ. eigenvalues --   -0.52456  -0.52402  -0.51934  -0.51886  -0.51658
 Alpha  occ. eigenvalues --   -0.51637  -0.51216  -0.51202  -0.50590  -0.50472
 Alpha  occ. eigenvalues --   -0.50049  -0.49978  -0.49937  -0.49866  -0.49534
 Alpha  occ. eigenvalues --   -0.49486  -0.49234  -0.49202  -0.49116  -0.49104
 Alpha  occ. eigenvalues --   -0.48613  -0.48558  -0.48479  -0.48465  -0.48376
 Alpha  occ. eigenvalues --   -0.48337  -0.47714  -0.47594  -0.47316  -0.47117
 Alpha  occ. eigenvalues --   -0.46816  -0.46709  -0.46576  -0.46553  -0.46378
 Alpha  occ. eigenvalues --   -0.46270  -0.46182  -0.46086  -0.45842  -0.45823
 Alpha  occ. eigenvalues --   -0.45219  -0.45208  -0.44598  -0.44526  -0.44514
 Alpha  occ. eigenvalues --   -0.44475  -0.44163  -0.44127  -0.44108  -0.44078
 Alpha  occ. eigenvalues --   -0.44039  -0.43938  -0.43554  -0.43516  -0.43405
 Alpha  occ. eigenvalues --   -0.43385  -0.43046  -0.42931  -0.42902  -0.42720
 Alpha  occ. eigenvalues --   -0.42674  -0.42553  -0.42028  -0.41965  -0.41723
 Alpha  occ. eigenvalues --   -0.41669  -0.41554  -0.41458  -0.41160  -0.40989
 Alpha  occ. eigenvalues --   -0.40889  -0.40842  -0.40721  -0.40697  -0.40589
 Alpha  occ. eigenvalues --   -0.40493  -0.40256  -0.40226  -0.39458  -0.39426
 Alpha  occ. eigenvalues --   -0.38487  -0.38350  -0.37770  -0.37654  -0.37338
 Alpha  occ. eigenvalues --   -0.37284  -0.37266  -0.37199  -0.36773  -0.36735
 Alpha  occ. eigenvalues --   -0.36217  -0.36213  -0.34305  -0.34253  -0.33863
 Alpha  occ. eigenvalues --   -0.33794  -0.33206  -0.33175  -0.31362  -0.31271
 Alpha  occ. eigenvalues --   -0.31055  -0.30972  -0.30049  -0.29956  -0.29468
 Alpha  occ. eigenvalues --   -0.29341  -0.29326  -0.29211  -0.24100  -0.24036
 Alpha  occ. eigenvalues --   -0.21147  -0.21116
 Alpha virt. eigenvalues --   -0.08793  -0.08791  -0.01768  -0.01683  -0.00077
 Alpha virt. eigenvalues --   -0.00027   0.02181   0.02207   0.03103   0.03225
 Alpha virt. eigenvalues --    0.04698   0.04730   0.05075   0.05164   0.06155

 Mulliken charges:
               1
     1  Mg   0.838757
     2  C   -0.002980
     3  C   -0.094147
     4  C   -0.045864
     5  C   -0.063943
     6  N   -0.256793
     7  C   -0.052476
     8  C   -0.014028
     9  C   -0.086994
    10  C    0.046329
    11  C    0.104806
    12  C    0.053476
    13  C   -0.071777
    14  H    0.036034
    15  N   -0.433151
    16  C    0.168412
    17  C   -0.177137
    18  C   -0.004000
    19  C    0.148705
    20  C    0.110172
    21  C    0.012284
    22  O   -0.249583
    23  C    0.062477
    24  N   -0.341146
    25  C    0.041241
    26  C   -0.028202
    27  C   -0.023974
    28  C    0.074838
    29  C    0.076164
    30  C    0.035130
    31  C   -0.004510
    32  N   -0.310469
    33  C    0.080401
    34  C   -0.169727
    35  C    0.008355
    36  C    0.082970
    37  C    0.127318
    38  C    0.046102
    39  O   -0.188467
    40  C   -0.005314
    41  C    0.212868
    42  O   -0.257156
    43  O   -0.304774
    44  C    0.157718
    45  H   -0.017590
    46  H   -0.016801
    47  H   -0.041473
    48  H    0.000943
    49  H   -0.004047
    50  H    0.025482
    51  H    0.016472
    52  H    0.016672
    53  H    0.011188
    54  H    0.044082
    55  H    0.017901
    56  H    0.017949
    57  H    0.005871
    58  H    0.026861
    59  H    0.039536
    60  H    0.037364
    61  H    0.035688
    62  H    0.031471
    63  H    0.016574
    64  H    0.009483
    65  H    0.023250
    66  H    0.012552
    67  H    0.004776
    68  H    0.006407
    69  H    0.004735
    70  H    0.008800
    71  H    0.018145
    72  H    0.028942
    73  H    0.047543
    74  H    0.009125
    75  H    0.046026
    76  H    0.035164
    77  H    0.042944
    78  H    0.046392
    79  H    0.053626
    80  Mg   0.837783
    81  C   -0.016793
    82  C   -0.087783
    83  C   -0.045477
    84  C   -0.064889
    85  N   -0.254566
    86  C   -0.049856
    87  C   -0.015093
    88  C   -0.090502
    89  C    0.045753
    90  C    0.114355
    91  C    0.062518
    92  C   -0.077895
    93  H    0.034866
    94  N   -0.423499
    95  C    0.162945
    96  C   -0.174573
    97  C   -0.007779
    98  C    0.152129
    99  C    0.099336
   100  C    0.015598
   101  O   -0.253148
   102  C    0.061186
   103  N   -0.350056
   104  C    0.037505
   105  C   -0.019842
   106  C   -0.034793
   107  C    0.088920
   108  C    0.073639
   109  C    0.034724
   110  C   -0.007671
   111  N   -0.324108
   112  C    0.078443
   113  C   -0.163143
   114  C    0.002232
   115  C    0.096166
   116  C    0.131487
   117  C    0.042372
   118  O   -0.187916
   119  C    0.000902
   120  C    0.211263
   121  O   -0.251035
   122  O   -0.305622
   123  C    0.152037
   124  H   -0.019588
   125  H   -0.015527
   126  H   -0.040473
   127  H   -0.000642
   128  H   -0.004309
   129  H    0.022458
   130  H    0.014472
   131  H    0.016346
   132  H    0.013912
   133  H    0.037666
   134  H    0.020806
   135  H    0.019602
   136  H    0.008792
   137  H    0.026263
   138  H    0.039793
   139  H    0.038334
   140  H    0.036434
   141  H    0.033862
   142  H    0.014405
   143  H    0.012425
   144  H    0.025173
   145  H    0.011692
   146  H    0.005688
   147  H    0.006276
   148  H    0.003636
   149  H    0.010941
   150  H    0.017914
   151  H    0.030093
   152  H    0.045984
   153  H    0.008504
   154  H    0.046940
   155  H    0.035037
   156  H    0.043903
   157  H    0.049502
   158  H    0.053565
 Sum of Mulliken charges =  -0.00000

 Dipole moment (field-independent basis, Debye):
    X=              6.1956    Y=              1.8046    Z=              4.4380  Tot=              7.8319
 Quadrupole moment (field-independent basis, Debye-Ang):
   XX=           -597.3422   YY=           -492.8826   ZZ=           -496.4618
   XY=              6.5924   XZ=             67.6387   YZ=             53.4712

 Normal termination of Gaussian 16 at Sun Sep 12 21:22:12 2021.
