 Gaussian 16, Revision A.03,
 Gaussian 16:  ES64L-G16RevA.03 25-Dec-2016

 -----------------------------------
 #p cam-b3lyp/Def2SVP td=(nstates=5)
 -----------------------------------

 --------------------------------
 TDDFT excited states in gaussian
 --------------------------------
 Symbolic Z-matrix:
 Charge =  0 Multiplicity = 1

                         Standard orientation:
 ---------------------------------------------------------------------
 Center     Atomic      Atomic             Coordinates (Angstroms)
 Number     Number       Type             X           Y           Z
 ---------------------------------------------------------------------
      1         12           0       -7.858250   -0.708262    0.247846
      2          6           0       -8.039764    2.850087   -0.094817
      3          6           0       -8.806926   -0.922442   -3.022812
      4          6           0       -8.146011   -3.840762    0.649417
      5          6           0       -8.040309   -0.237571    3.696174
      6          7           0       -8.332180    0.838817   -1.262975
      7          6           0       -8.305657    2.167735   -1.284078
      8          6           0       -8.512719    2.767289   -2.707115
      9          6           0       -9.290344    1.550184   -3.382358
     10          6           0       -8.752164    0.414941   -2.529416
     11          6           0      -10.803807    1.621630   -3.206783
     12          6           0       -7.156153    3.054528   -3.434408
     13          6           0       -7.257989    3.934944   -4.683348
     14          1           0       -6.180825    4.870104   -4.970648
     15          7           0       -7.918877   -2.169912   -1.079842
     16          6           0       -8.315804   -2.074658   -2.371609
     17          6           0       -8.179494   -3.432533   -2.941062
     18          6           0       -7.852031   -4.363097   -1.825306
     19          6           0       -7.986747   -3.488279   -0.688678
     20          6           0       -8.308363   -3.728069   -4.403868
     21          6           0       -7.487417   -5.813554   -1.788361
     22          8           0       -7.469554   -6.482862   -0.699195
     23          6           0       -7.234388   -6.460636   -3.088478
     24          7           0       -8.284650   -1.893254    1.912661
     25          6           0       -8.291854   -3.227956    1.826041
     26          6           0       -8.338808   -3.863011    3.184142
     27          6           0       -8.116266   -2.679982    4.233271
     28          6           0       -8.058453   -1.492392    3.241022
     29          6           0       -9.633118   -4.613124    3.527805
     30          6           0       -6.958746   -2.849422    5.249074
     31          6           0       -5.631014   -2.803536    4.526497
     32          7           0       -7.834926    0.988962    1.600595
     33          6           0       -7.945291    0.954776    2.998209
     34          6           0       -7.988141    2.353583    3.462503
     35          6           0       -7.915951    3.109158    2.293854
     36          6           0       -7.859706    2.237481    1.168995
     37          6           0       -8.140589    2.779606    4.811465
     38          6           0       -7.898082    4.450089    1.732212
     39          8           0       -7.829295    5.586471    2.202741
     40          6           0       -8.100390    4.336209    0.156797
     41          6           0       -7.060458    5.203379   -0.498845
     42          8           0       -5.848350    4.915950   -0.424379
     43          8           0       -7.664884    6.091866   -1.302463
     44          6           0       -6.687622    6.964403   -2.006589
     45          1           0       -9.323971   -1.116859   -3.964517
     46          1           0       -8.138355   -4.915710    0.841423
     47          1           0       -8.011425   -0.012981    4.763965
     48          1           0       -9.129776    3.665510   -2.736493
     49          1           0       -9.002175    1.410950   -4.424133
     50          1           0      -11.089138    2.430697   -2.534535
     51          1           0      -11.093984    0.658055   -2.787482
     52          1           0      -11.303107    1.690279   -4.173615
     53          1           0       -6.788509    2.133285   -3.886304
     54          1           0       -6.433028    3.490299   -2.744105
     55          1           0       -8.224485    4.436565   -4.739665
     56          1           0       -7.237245    3.287641   -5.560142
     57          1           0       -8.714399   -2.877551   -4.950035
     58          1           0       -9.066872   -4.503872   -4.506349
     59          1           0       -7.369287   -4.072550   -4.837229
     60          1           0       -8.123998   -6.374141   -3.712707
     61          1           0       -6.900570   -7.472379   -2.860901
     62          1           0       -6.443104   -5.916954   -3.605419
     63          1           0       -7.542994   -4.597634    3.300049
     64          1           0       -8.995340   -2.515569    4.856867
     65          1           0       -9.475264   -5.657302    3.798873
     66          1           0      -10.308202   -4.527780    2.676765
     67          1           0      -10.226770   -4.160440    4.321576
     68          1           0       -7.023666   -3.820126    5.739447
     69          1           0       -6.952773   -2.085018    6.026186
     70          1           0       -5.510064   -3.827315    4.174246
     71          1           0       -4.831681   -2.531048    5.216446
     72          1           0       -5.678036   -2.160011    3.647776
     73          1           0       -7.432226    3.595331    4.955630
     74          1           0       -7.951816    1.963252    5.508268
     75          1           0       -9.184627    3.092377    4.807684
     76          1           0       -9.112490    4.679656   -0.054909
     77          1           0       -6.954585    7.995985   -1.776800
     78          1           0       -6.698508    6.660092   -3.053337
     79          1           0       -5.660776    6.931197   -1.640770
     80         12           0        8.019863   -0.831658   -0.106014
     81          6           0        7.858877    2.666525    0.678766
     82          6           0        7.079691   -0.010159   -3.280254
     83          6           0        7.714564   -3.931271   -0.711461
     84          6           0        7.822250   -1.466285    3.315085
     85          7           0        7.558722    1.111586   -1.056492
     86          6           0        7.591096    2.379877   -0.676064
     87          6           0        7.400500    3.402136   -1.828548
     88          6           0        6.610428    2.457725   -2.859455
     89          6           0        7.137354    1.099803   -2.400050
     90          6           0        5.103974    2.477633   -2.660639
     91          6           0        8.766533    3.889553   -2.427203
     92          6           0        8.668192    5.113165   -3.340894
     93          1           0        9.758263    6.084724   -3.322842
     94          7           0        7.958105   -1.802298   -1.835929
     95          6           0        7.573001   -1.309898   -3.031974
     96          6           0        7.687953   -2.426630   -3.982684
     97          6           0        8.014640   -3.661291   -3.218752
     98          6           0        7.885121   -3.172906   -1.860521
     99          6           0        7.571149   -2.245814   -5.468310
    100          6           0        8.370592   -5.054648   -3.640738
    101          8           0        8.381907   -6.028411   -2.807380
    102          6           0        8.614410   -5.262986   -5.075529
    103          7           0        7.587714   -2.468204    1.101181
    104          6           0        7.566926   -3.713929    0.595549
    105          6           0        7.508286   -4.747836    1.694637
    106          6           0        7.738985   -3.941121    3.056094
    107          6           0        7.805063   -2.505146    2.491291
    108          6           0        6.207323   -5.544607    1.789706
    109          6           0        8.892531   -4.427556    3.975546
    110          6           0       10.225283   -4.180092    3.306269
    111          7           0        8.053416    0.353433    1.700222
    112          6           0        7.931017   -0.111624    3.027932
    113          6           0        7.895491    1.077259    3.904143
    114          6           0        7.977157    2.160763    3.016547
    115          6           0        8.037536    1.681522    1.680065
    116          6           0        7.751165    1.063048    5.320152
    117          6           0        8.015317    3.601233    2.905616
    118          8           0        8.082271    4.532695    3.706630
    119          6           0        7.812944    3.996078    1.379337
    120          6           0        8.860524    5.013906    1.020038
    121          8           0       10.065524    4.706369    1.016165
    122          8           0        8.257614    6.113499    0.532419
    123          6           0        9.256044    7.147828    0.151502
    124          1           0        6.571090    0.112215   -4.236932
    125          1           0        7.714680   -5.014032   -0.856805
    126          1           0        7.860621   -1.582389    4.400315
    127          1           0        6.795326    4.264400   -1.575483
    128          1           0        6.909740    2.655628   -3.885425
    129          1           0        4.821199    3.034251   -1.779536
    130          1           0        4.806102    1.441655   -2.565474
    131          1           0        4.609726    2.851770   -3.561793
    132          1           0        9.127401    3.145017   -3.148442
    133          1           0        9.478942    4.077100   -1.647498
    134          1           0        7.700018    5.620096   -3.248159
    135          1           0        8.694733    4.773910   -4.379271
    136          1           0        7.165300   -1.258920   -5.722741
    137          1           0        6.809160   -2.951082   -5.817340
    138          1           0        8.507484   -2.449253   -5.992299
    139          1           0        7.729304   -4.975058   -5.637800
    140          1           0        8.941957   -6.300247   -5.168693
    141          1           0        9.421216   -4.593515   -5.394123
    142          1           0        8.299562   -5.478598    1.580766
    143          1           0        6.854488   -3.981739    3.708666
    144          1           0        6.359061   -6.638200    1.718256
    145          1           0        5.539352   -5.201698    1.010753
    146          1           0        5.622075   -5.367493    2.690433
    147          1           0        8.820713   -5.506284    4.134737
    148          1           0        8.893319   -3.957100    4.953134
    149          1           0       10.335438   -5.046861    2.647732
    150          1           0       11.023509   -4.141523    4.044780
    151          1           0       10.187317   -3.286884    2.671939
    152          1           0        8.456909    1.783212    5.712287
    153          1           0        7.927524    0.069827    5.727822
    154          1           0        6.704403    1.364752    5.412539
    155          1           0        6.802792    4.393945    1.275040
    156          1           0        8.991339    8.061817    0.692095
    157          1           0        9.233761    7.191897   -0.953625
    158          1           0       10.279632    6.999608    0.475154
 ---------------------------------------------------------------------

 SCF Done:  E(RCAM-B3LYP) =  -4069.81170682     A.U. after   19 cycles

 Excitation energies and oscillator strengths:

 Excited State   1:      Singlet-A      1.6702 eV  742.35 nm  f=0.0320  <S**2>=0.000
     309 -> 315       -0.10287
     310 -> 316        0.13845
     311 -> 313       -0.40775
     312 -> 314        0.55210
 This state for optimization and/or second-order correction.
 Total Energy, E(TD-HF/TD-DFT) =  -4069.75032990
 Copying the excited state density for this state as the 1-particle RhoCI density.

 Excited State   2:      Singlet-A      1.6849 eV  735.86 nm  f=0.7244  <S**2>=0.000
     309 -> 315        0.14233
     310 -> 316        0.10441
     311 -> 313        0.55129
     312 -> 314        0.40723

 Excited State   3:      Singlet-A      2.1852 eV  567.37 nm  f=0.0607  <S**2>=0.000
     309 -> 313       -0.13503
     310 -> 314        0.62844
     312 -> 316       -0.26637

 Excited State   4:      Singlet-A      2.1930 eV  565.36 nm  f=0.1329  <S**2>=0.000
     309 -> 313        0.62639
     310 -> 314        0.13396
     311 -> 315       -0.27246

 Excited State   5:      Singlet-A      2.7645 eV  448.48 nm  f=0.0000  <S**2>=0.000
     312 -> 313        0.70710

 The electronic state is 1-A.
 Alpha  occ. eigenvalues --  -46.87836 -46.87586 -19.26334 -19.26260 -19.19077
 Alpha  occ. eigenvalues --  -19.19069 -19.18850 -19.18660 -19.18203 -19.17966
 Alpha  occ. eigenvalues --  -14.42491 -14.42422 -14.41487 -14.41286 -14.39442
 Alpha  occ. eigenvalues --  -14.39280 -14.38624 -14.38524 -10.39128 -10.39005
 Alpha  occ. eigenvalues --  -10.35484 -10.35339 -10.34424 -10.34142 -10.31735
 Alpha  occ. eigenvalues --  -10.31670 -10.31446 -10.31228 -10.30953 -10.30949
 Alpha  occ. eigenvalues --  -10.30608 -10.30543 -10.30324 -10.30284 -10.30243
 Alpha  occ. eigenvalues --  -10.30074 -10.29955 -10.29820 -10.29667 -10.29368
 Alpha  occ. eigenvalues --  -10.29330 -10.29292 -10.28803 -10.28634 -10.28619
 Alpha  occ. eigenvalues --  -10.28585 -10.28404 -10.28330 -10.28166 -10.28052
 Alpha  occ. eigenvalues --  -10.27927 -10.27828 -10.27768 -10.27622 -10.27595
 Alpha  occ. eigenvalues --  -10.27530 -10.27527 -10.27479 -10.27453 -10.27444
 Alpha  occ. eigenvalues --  -10.27420 -10.27407 -10.27398 -10.27310 -10.27198
 Alpha  occ. eigenvalues --  -10.26959 -10.26775 -10.26620 -10.26448 -10.26379
 Alpha  occ. eigenvalues --  -10.26278 -10.26210 -10.26082 -10.26055 -10.25913
 Alpha  occ. eigenvalues --  -10.25863 -10.25863 -10.25769 -10.25461 -10.25330
 Alpha  occ. eigenvalues --  -10.24868 -10.24824 -10.24797 -10.24716 -10.24678
 Alpha  occ. eigenvalues --  -10.24618  -3.16579  -3.16336  -1.91460  -1.91218
 Alpha  occ. eigenvalues --   -1.91047  -1.90889  -1.90807  -1.90644  -1.16683
 Alpha  occ. eigenvalues --   -1.16555  -1.08661  -1.08571  -1.07251  -1.06914
 Alpha  occ. eigenvalues --   -1.06860  -1.06691  -1.04622  -1.04419  -1.03798
 Alpha  occ. eigenvalues --   -1.03590  -1.03271  -1.02966  -1.02449  -1.02037
 Alpha  occ. eigenvalues --   -0.92011  -0.91908  -0.89553  -0.89425  -0.89239
 Alpha  occ. eigenvalues --   -0.89067  -0.88320  -0.88153  -0.87902  -0.87717
 Alpha  occ. eigenvalues --   -0.87715  -0.87610  -0.87313  -0.87062  -0.85031
 Alpha  occ. eigenvalues --   -0.84923  -0.83969  -0.83809  -0.83004  -0.82878
 Alpha  occ. eigenvalues --   -0.82694  -0.82580  -0.81630  -0.81517  -0.80638
 Alpha  occ. eigenvalues --   -0.80368  -0.78835  -0.78570  -0.77259  -0.77072
 Alpha  occ. eigenvalues --   -0.76981  -0.76821  -0.75967  -0.75757  -0.74932
 Alpha  occ. eigenvalues --   -0.74732  -0.72810  -0.72625  -0.71711  -0.71503
 Alpha  occ. eigenvalues --   -0.69938  -0.69694  -0.68919  -0.68752  -0.67680
 Alpha  occ. eigenvalues --   -0.67530  -0.67273  -0.67132  -0.65334  -0.65193
 Alpha  occ. eigenvalues --   -0.64894  -0.64696  -0.64663  -0.64577  -0.64304
 Alpha  occ. eigenvalues --   -0.64135  -0.62341  -0.62198  -0.60479  -0.60277
 Alpha  occ. eigenvalues --   -0.59850  -0.59716  -0.59025  -0.58918  -0.58542
 Alpha  occ. eigenvalues --   -0.58351  -0.57625  -0.57470  -0.57345  -0.57167
 Alpha  occ. eigenvalues --   -0.56347  -0.56132  -0.56027  -0.55808  -0.55559
 Alpha  occ. eigenvalues --   -0.55383  -0.55375  -0.55175  -0.54562  -0.54414
 Alpha  occ. eigenvalues --   -0.53946  -0.53831  -0.53336  -0.53267  -0.53159
 Alpha  occ. eigenvalues --   -0.53069  -0.52957  -0.52827  -0.52800  -0.52608
 Alpha  occ. eigenvalues --   -0.52469  -0.52340  -0.51943  -0.51805  -0.51665
 Alpha  occ. eigenvalues --   -0.51587  -0.51234  -0.51125  -0.50613  -0.50423
 Alpha  occ. eigenvalues --   -0.50066  -0.49959  -0.49909  -0.49802  -0.49558
 Alpha  occ. eigenvalues --   -0.49419  -0.49254  -0.49141  -0.49126  -0.49021
 Alpha  occ. eigenvalues --   -0.48633  -0.48495  -0.48483  -0.48479  -0.48306
 Alpha  occ. eigenvalues --   -0.48276  -0.47736  -0.47524  -0.47336  -0.47052
 Alpha  occ. eigenvalues --   -0.46836  -0.46637  -0.46606  -0.46478  -0.46396
 Alpha  occ. eigenvalues --   -0.46201  -0.46198  -0.46011  -0.45860  -0.45741
 Alpha  occ. eigenvalues --   -0.45235  -0.45139  -0.44616  -0.44549  -0.44437
 Alpha  occ. eigenvalues --   -0.44402  -0.44182  -0.44134  -0.44059  -0.44049
 Alpha  occ. eigenvalues --   -0.44012  -0.43871  -0.43536  -0.43475  -0.43428
 Alpha  occ. eigenvalues --   -0.43309  -0.43065  -0.42852  -0.42821  -0.42742
 Alpha  occ. eigenvalues --   -0.42691  -0.42489  -0.42048  -0.41895  -0.41742
 Alpha  occ. eigenvalues --   -0.41590  -0.41583  -0.41385  -0.41181  -0.40915
 Alpha  occ. eigenvalues --   -0.40911  -0.40865  -0.40661  -0.40628  -0.40607
 Alpha  occ. eigenvalues --   -0.40423  -0.40295  -0.40156  -0.39472  -0.39364
 Alpha  occ. eigenvalues --   -0.38506  -0.38281  -0.37806  -0.37581  -0.37356
 Alpha  occ. eigenvalues --   -0.37312  -0.37195  -0.37124  -0.36757  -0.36690
 Alpha  occ. eigenvalues --   -0.36234  -0.36143  -0.34324  -0.34179  -0.33818
 Alpha  occ. eigenvalues --   -0.33780  -0.33225  -0.33102  -0.31380  -0.31219
 Alpha  occ. eigenvalues --   -0.31074  -0.30899  -0.30062  -0.29869  -0.29486
 Alpha  occ. eigenvalues --   -0.29357  -0.29259  -0.29135  -0.24119  -0.23961
 Alpha  occ. eigenvalues --   -0.21166  -0.21044
 Alpha virt. eigenvalues --   -0.08812  -0.08719  -0.01788  -0.01612  -0.00097
 Alpha virt. eigenvalues --    0.00038   0.02166   0.02286   0.03074   0.03292
 Alpha virt. eigenvalues --    0.04671   0.04807   0.05051   0.05250   0.06113

 Mulliken charges:
               1
     1  Mg   0.838570
     2  C   -0.003050
     3  C   -0.094319
     4  C   -0.045819
     5  C   -0.063825
     6  N   -0.256764
     7  C   -0.052526
     8  C   -0.013985
     9  C   -0.086964
    10  C    0.046242
    11  C    0.104802
    12  C    0.053535
    13  C   -0.071591
    14  H    0.035567
    15  N   -0.433144
    16  C    0.168370
    17  C   -0.177257
    18  C   -0.003995
    19  C    0.148654
    20  C    0.110205
    21  C    0.012279
    22  O   -0.249518
    23  C    0.062496
    24  N   -0.341118
    25  C    0.041235
    26  C   -0.028205
    27  C   -0.023976
    28  C    0.074792
    29  C    0.076140
    30  C    0.035107
    31  C   -0.004520
    32  N   -0.310506
    33  C    0.080420
    34  C   -0.169553
    35  C    0.008446
    36  C    0.083006
    37  C    0.127273
    38  C    0.046202
    39  O   -0.188202
    40  C   -0.005412
    41  C    0.212953
    42  O   -0.257249
    43  O   -0.304735
    44  C    0.157701
    45  H   -0.017655
    46  H   -0.016760
    47  H   -0.041310
    48  H    0.000998
    49  H   -0.004229
    50  H    0.025547
    51  H    0.016549
    52  H    0.016634
    53  H    0.010955
    54  H    0.043994
    55  H    0.018080
    56  H    0.017783
    57  H    0.005754
    58  H    0.026899
    59  H    0.039312
    60  H    0.037352
    61  H    0.035782
    62  H    0.031319
    63  H    0.016578
    64  H    0.009568
    65  H    0.023278
    66  H    0.012551
    67  H    0.004837
    68  H    0.006429
    69  H    0.004878
    70  H    0.008741
    71  H    0.018212
    72  H    0.028904
    73  H    0.047823
    74  H    0.009243
    75  H    0.046092
    76  H    0.035218
    77  H    0.043123
    78  H    0.046185
    79  H    0.053573
    80  Mg   0.837919
    81  C   -0.016756
    82  C   -0.087792
    83  C   -0.045585
    84  C   -0.064810
    85  N   -0.254564
    86  C   -0.049578
    87  C   -0.015145
    88  C   -0.090562
    89  C    0.045832
    90  C    0.114367
    91  C    0.062548
    92  C   -0.077804
    93  H    0.034676
    94  N   -0.423462
    95  C    0.162879
    96  C   -0.174779
    97  C   -0.007962
    98  C    0.152107
    99  C    0.099471
   100  C    0.015435
   101  O   -0.253322
   102  C    0.061257
   103  N   -0.350026
   104  C    0.037576
   105  C   -0.019849
   106  C   -0.034818
   107  C    0.088988
   108  C    0.073653
   109  C    0.034744
   110  C   -0.007639
   111  N   -0.324175
   112  C    0.078580
   113  C   -0.163024
   114  C    0.002473
   115  C    0.096201
   116  C    0.131432
   117  C    0.042598
   118  O   -0.187559
   119  C    0.000837
   120  C    0.211216
   121  O   -0.251241
   122  O   -0.305393
   123  C    0.152085
   124  H   -0.019866
   125  H   -0.015725
   126  H   -0.040481
   127  H   -0.000223
   128  H   -0.004647
   129  H    0.023336
   130  H    0.014492
   131  H    0.016156
   132  H    0.013724
   133  H    0.037622
   134  H    0.021024
   135  H    0.019358
   136  H    0.008613
   137  H    0.025767
   138  H    0.039544
   139  H    0.038031
   140  H    0.036175
   141  H    0.033824
   142  H    0.014231
   143  H    0.012508
   144  H    0.024970
   145  H    0.011780
   146  H    0.005762
   147  H    0.006152
   148  H    0.003625
   149  H    0.010844
   150  H    0.017810
   151  H    0.030150
   152  H    0.045954
   153  H    0.008350
   154  H    0.047458
   155  H    0.035804
   156  H    0.044069
   157  H    0.049383
   158  H    0.053398
 Sum of Mulliken charges =  -0.00000

 Dipole moment (field-independent basis, Debye):
    X=             -4.2348    Y=             -2.3169    Z=             -7.4401  Tot=              8.8689
 Quadrupole moment (field-independent basis, Debye-Ang):
   XX=           -517.4793   YY=           -549.1336   ZZ=           -449.9939
   XY=              4.2736   XZ=             -1.3926   YZ=            -46.2892

 Normal termination of Gaussian 16 at Sat Sep  4 13:20:25 2021.
