 Gaussian 16, Revision A.03,
 Gaussian 16:  ES64L-G16RevA.03 25-Dec-2016

 -----------------------------------
 #p cam-b3lyp/Def2SVP td=(nstates=5)
 -----------------------------------

 --------------------------------
 TDDFT excited states in gaussian
 --------------------------------
 Symbolic Z-matrix:
 Charge =  0 Multiplicity = 1

                         Standard orientation:
 ---------------------------------------------------------------------
 Center     Atomic      Atomic             Coordinates (Angstroms)
 Number     Number       Type             X           Y           Z
 ---------------------------------------------------------------------
      1         12           0        8.112114    0.474123    0.918968
      2          6           0        8.536946   -2.428921   -1.131414
      3          6           0        9.270283    2.316846   -1.708975
      4          6           0        8.176807    2.988105    2.850892
      5          6           0        8.083341   -1.658219    3.675405
      6          7           0        8.784583   -0.097919   -1.111106
      7          6           0        8.841927   -1.237457   -1.793262
      8          6           0        9.183923   -1.038860   -3.300237
      9          6           0        9.929652    0.367197   -3.205953
     10          6           0        9.264346    0.911542   -1.954162
     11          6           0       11.428805    0.245947   -2.952293
     12          6           0        7.901468   -0.948370   -4.194022
     13          6           0        8.144010   -1.082000   -5.700233
     14          1           0        7.149346   -1.767298   -6.511625
     15          7           0        8.174065    2.405256    0.506976
     16          6           0        8.664773    2.977892   -0.618449
     17          6           0        8.484471    4.435442   -0.446056
     18          6           0        8.023413    4.674957    0.949706
     19          6           0        8.132874    3.350941    1.506822
     20          6           0        8.695948    5.426819   -1.548870
     21          6           0        7.568002    5.904310    1.670418
     22          8           0        7.433224    5.936992    2.941378
     23          6           0        7.366183    7.111038    0.848154
     24          7           0        8.347814    0.672734    2.983582
     25          6           0        8.278348    1.870910    3.573949
     26          6           0        8.191574    1.740371    5.065716
     27          6           0        7.970478    0.186847    5.361408
     28          6           0        8.055278   -0.344200    3.909145
     29          6           0        9.409991    2.241435    5.853373
     30          6           0        6.737021   -0.197632    6.216498
     31          6           0        5.468002    0.099827    5.449551
     32          7           0        8.100152   -1.672658    1.238702
     33          6           0        8.110979   -2.341604    2.471206
     34          6           0        8.208053   -3.783614    2.179227
     35          6           0        8.264024   -3.852780    0.788570
     36          6           0        8.232072   -2.535899    0.247186
     37          6           0        8.292651   -4.825493    3.144508
     38          6           0        8.368221   -4.731582   -0.364993
     39          8           0        8.337460   -5.951806   -0.531122
     40          6           0        8.671877   -3.839516   -1.648675
     41          6           0        7.735624   -4.280651   -2.740526
     42          8           0        6.505804   -4.092213   -2.643572
     43          8           0        8.448190   -4.635009   -3.820907
     44          6           0        7.578031   -5.055299   -4.951541
     45          1           0        9.838370    2.966855   -2.377337
     46          1           0        8.089304    3.821622    3.550914
     47          1           0        7.994423   -2.388320    4.481940
     48          1           0        9.855963   -1.789515   -3.716533
     49          1           0        9.706372    1.004431   -4.061406
     50          1           0       11.716369   -0.785559   -2.749260
     51          1           0       11.628975    0.874801   -2.084557
     52          1           0       11.997256    0.680644   -3.774898
     53          1           0        7.509718    0.068164   -4.158655
     54          1           0        7.160577   -1.685035   -3.881403
     55          1           0        9.141286   -1.469465   -5.910520
     56          1           0        8.144092   -0.082901   -6.136124
     57          1           0        9.190774    4.972506   -2.406362
     58          1           0        9.410241    6.163638   -1.182004
     59          1           0        7.769669    5.924331   -1.836657
     60          1           0        8.300593    7.365923    0.347694
     61          1           0        6.955377    7.865891    1.517696
     62          1           0        6.647849    6.884909    0.059604
     63          1           0        7.345678    2.302751    5.458928
     64          1           0        8.812669   -0.251388    5.897448
     65          1           0        9.169362    3.005867    6.592594
     66          1           0       10.146466    2.606964    5.138331
     67          1           0        9.974043    1.463130    6.366700
     68          1           0        6.707539    0.397510    7.128574
     69          1           0        6.724503   -1.248567    6.505687
     70          1           0        5.308617    1.159768    5.644365
     71          1           0        4.641148   -0.496846    5.836209
     72          1           0        5.615620   -0.015494    4.375588
     73          1           0        7.627868   -5.616797    2.798285
     74          1           0        8.005815   -4.472145    4.134696
     75          1           0        9.351796   -5.074460    3.080602
     76          1           0        9.715544   -4.011393   -1.910094
     77          1           0        7.891775   -6.057846   -5.242569
     78          1           0        7.642633   -4.267122   -5.701880
     79          1           0        6.528202   -5.229336   -4.712983
     80         12           0       -7.675325    0.463927   -0.752903
     81          6           0       -9.947801   -1.719580    0.963839
     82          6           0      -10.073578    2.880314   -0.543054
     83          6           0       -5.883524    2.267500   -2.651332
     84          6           0       -5.966216   -2.380162   -1.818654
     85          7           0       -9.706943    0.460249    0.121596
     86          6           0      -10.440215   -0.407778    0.802168
     87          6           0      -11.740413    0.184741    1.408782
     88          6           0      -11.934667    1.420005    0.401172
     89          6           0      -10.479207    1.630196   -0.011305
     90          6           0      -12.736182    1.064017   -0.839867
     91          6           0      -11.541585    0.674387    2.886187
     92          6           0      -12.836595    0.977883    3.642878
     93          1           0      -12.894753    0.678607    5.070995
     94          7           0       -7.711737    2.422129   -1.073353
     95          6           0       -8.763522    3.252987   -0.916144
     96          6           0       -8.281963    4.588827   -1.300580
     97          6           0       -6.907646    4.450547   -1.854525
     98          6           0       -6.786356    3.007228   -1.901501
     99          6           0       -9.073185    5.840726   -1.055369
    100          6           0       -5.878383    5.451566   -2.284380
    101          8           0       -4.843769    5.106718   -2.957798
    102          6           0       -6.164238    6.860052   -1.974616
    103          7           0       -6.273627    0.008413   -2.219218
    104          6           0       -5.599919    0.981290   -2.857636
    105          6           0       -4.456255    0.413941   -3.664192
    106          6           0       -4.353323   -1.124665   -3.240324
    107          6           0       -5.565378   -1.206034   -2.286542
    108          6           0       -4.598777    0.514794   -5.182707
    109          6           0       -2.974351   -1.622606   -2.727336
    110          6           0       -2.651877   -0.972985   -1.400911
    111          7           0       -7.777472   -1.655627   -0.346582
    112          6           0       -6.984494   -2.673367   -0.920589
    113          6           0       -7.501639   -3.963169   -0.419191
    114          6           0       -8.582702   -3.604723    0.400138
    115          6           0       -8.741600   -2.192561    0.392759
    116          6           0       -7.007364   -5.250858   -0.770850
    117          6           0       -9.632220   -4.100551    1.261159
    118          8           0       -9.936967   -5.203820    1.712454
    119          6           0      -10.641572   -2.910715    1.564260
    120          6           0      -10.908322   -2.893580    3.044479
    121          8           0       -9.997138   -2.627321    3.847872
    122          8           0      -12.234614   -2.979186    3.254225
    123          6           0      -12.550077   -2.954922    4.707395
    124          1           0      -10.836737    3.635586   -0.732897
    125          1           0       -5.169680    2.849759   -3.238592
    126          1           0       -5.426643   -3.306558   -2.026801
    127          1           0      -12.602099   -0.470460    1.364267
    128          1           0      -12.314482    2.296590    0.919536
    129          1           0      -12.942842    0.005590   -0.896122
    130          1           0      -12.130835    1.376522   -1.680664
    131          1           0      -13.648343    1.665901   -0.884992
    132          1           0      -11.091959    1.675599    2.874136
    133          1           0      -10.953006   -0.027577    3.444268
    134          1           0      -13.718072    0.574834    3.129558
    135          1           0      -12.995371    2.058999    3.639300
    136          1           0      -10.112313    5.613724   -0.786869
    137          1           0       -9.148662    6.364317   -2.014551
    138          1           0       -8.599167    6.502844   -0.327650
    139          1           0       -7.104124    7.148445   -2.439275
    140          1           0       -5.273498    7.412877   -2.279313
    141          1           0       -6.304864    6.958694   -0.892440
    142          1           0       -3.525460    0.909568   -3.417031
    143          1           0       -4.571990   -1.795303   -4.084284
    144          1           0       -3.760342    1.051844   -5.665081
    145          1           0       -5.539699    1.000015   -5.405761
    146          1           0       -4.701075   -0.437010   -5.701171
    147          1           0       -2.182786   -1.324791   -3.419359
    148          1           0       -2.917741   -2.700477   -2.617905
    149          1           0       -2.234271   -0.005420   -1.695054
    150          1           0       -1.924191   -1.566121   -0.850727
    151          1           0       -3.564679   -0.777105   -0.826375
    152          1           0       -6.957617   -5.825835    0.144256
    153          1           0       -6.034422   -5.185120   -1.253369
    154          1           0       -7.787878   -5.576885   -1.463517
    155          1           0      -11.548361   -3.095266    0.986971
    156          1           0      -13.137537   -3.853021    4.921840
    157          1           0      -13.036998   -1.978746    4.891143
    158          1           0      -11.725693   -3.070777    5.401233
 ---------------------------------------------------------------------

 SCF Done:  E(RCAM-B3LYP) =  -4069.81187045     A.U. after   19 cycles

 Excitation energies and oscillator strengths:

 Excited State   1:      Singlet-A      1.6695 eV  742.65 nm  f=0.0199  <S**2>=0.000
     309 -> 315       -0.10250
     310 -> 316        0.13859
     311 -> 314       -0.40664
     312 -> 313        0.55295
 This state for optimization and/or second-order correction.
 Total Energy, E(TD-HF/TD-DFT) =  -4069.75051832
 Copying the excited state density for this state as the 1-particle RhoCI density.

 Excited State   2:      Singlet-A      1.6852 eV  735.71 nm  f=0.7367  <S**2>=0.000
     309 -> 315        0.14261
     310 -> 316        0.10429
     311 -> 314        0.55213
     312 -> 313        0.40612

 Excited State   3:      Singlet-A      2.1855 eV  567.31 nm  f=0.0882  <S**2>=0.000
     310 -> 313        0.63797
     312 -> 316       -0.27076

 Excited State   4:      Singlet-A      2.1930 eV  565.37 nm  f=0.1107  <S**2>=0.000
     309 -> 314        0.63609
     311 -> 315       -0.27644

 Excited State   5:      Singlet-A      2.8007 eV  442.69 nm  f=0.0000  <S**2>=0.000
     312 -> 314        0.70702

 The electronic state is 1-A.
 Alpha  occ. eigenvalues --  -46.87738 -46.87583 -19.26290 -19.26265 -19.19097
 Alpha  occ. eigenvalues --  -19.18999 -19.18747 -19.18660 -19.18121 -19.17980
 Alpha  occ. eigenvalues --  -14.42424 -14.42394 -14.41390 -14.41277 -14.39343
 Alpha  occ. eigenvalues --  -14.39278 -14.38530 -14.38522 -10.39056 -10.39026
 Alpha  occ. eigenvalues --  -10.35379 -10.35339 -10.34342 -10.34157 -10.31702
 Alpha  occ. eigenvalues --  -10.31669 -10.31352 -10.31234 -10.30957 -10.30855
 Alpha  occ. eigenvalues --  -10.30513 -10.30448 -10.30319 -10.30282 -10.30142
 Alpha  occ. eigenvalues --  -10.30055 -10.29861 -10.29808 -10.29571 -10.29363
 Alpha  occ. eigenvalues --  -10.29325 -10.29193 -10.28707 -10.28660 -10.28605
 Alpha  occ. eigenvalues --  -10.28514 -10.28334 -10.28309 -10.28080 -10.28071
 Alpha  occ. eigenvalues --  -10.27927 -10.27734 -10.27670 -10.27597 -10.27523
 Alpha  occ. eigenvalues --  -10.27430 -10.27414 -10.27412 -10.27411 -10.27398
 Alpha  occ. eigenvalues --  -10.27394 -10.27382 -10.27350 -10.27277 -10.27117
 Alpha  occ. eigenvalues --  -10.26983 -10.26673 -10.26637 -10.26377 -10.26333
 Alpha  occ. eigenvalues --  -10.26189 -10.26101 -10.25972 -10.25961 -10.25957
 Alpha  occ. eigenvalues --  -10.25844 -10.25781 -10.25750 -10.25372 -10.25320
 Alpha  occ. eigenvalues --  -10.24798 -10.24776 -10.24728 -10.24613 -10.24595
 Alpha  occ. eigenvalues --  -10.24541  -3.16481  -3.16333  -1.91363  -1.91215
 Alpha  occ. eigenvalues --   -1.90949  -1.90804  -1.90791  -1.90641  -1.16613
 Alpha  occ. eigenvalues --   -1.16583  -1.08587  -1.08581  -1.07147  -1.06913
 Alpha  occ. eigenvalues --   -1.06882  -1.06621  -1.04526  -1.04423  -1.03701
 Alpha  occ. eigenvalues --   -1.03586  -1.03175  -1.02958  -1.02353  -1.02033
 Alpha  occ. eigenvalues --   -0.91920  -0.91914  -0.89454  -0.89393  -0.89143
 Alpha  occ. eigenvalues --   -0.89087  -0.88221  -0.88116  -0.87812  -0.87711
 Alpha  occ. eigenvalues --   -0.87618  -0.87609  -0.87209  -0.87057  -0.84934
 Alpha  occ. eigenvalues --   -0.84934  -0.83870  -0.83765  -0.82898  -0.82863
 Alpha  occ. eigenvalues --   -0.82598  -0.82585  -0.81544  -0.81524  -0.80545
 Alpha  occ. eigenvalues --   -0.80372  -0.78735  -0.78564  -0.77161  -0.77068
 Alpha  occ. eigenvalues --   -0.76888  -0.76819  -0.75877  -0.75771  -0.74838
 Alpha  occ. eigenvalues --   -0.74715  -0.72715  -0.72618  -0.71618  -0.71507
 Alpha  occ. eigenvalues --   -0.69834  -0.69629  -0.68822  -0.68759  -0.67585
 Alpha  occ. eigenvalues --   -0.67529  -0.67172  -0.67140  -0.65239  -0.65204
 Alpha  occ. eigenvalues --   -0.64802  -0.64690  -0.64579  -0.64569  -0.64206
 Alpha  occ. eigenvalues --   -0.64101  -0.62259  -0.62204  -0.60378  -0.60267
 Alpha  occ. eigenvalues --   -0.59755  -0.59730  -0.58931  -0.58914  -0.58449
 Alpha  occ. eigenvalues --   -0.58347  -0.57542  -0.57484  -0.57251  -0.57153
 Alpha  occ. eigenvalues --   -0.56253  -0.56129  -0.55945  -0.55821  -0.55462
 Alpha  occ. eigenvalues --   -0.55389  -0.55283  -0.55155  -0.54474  -0.54394
 Alpha  occ. eigenvalues --   -0.53850  -0.53850  -0.53239  -0.53170  -0.53151
 Alpha  occ. eigenvalues --   -0.53074  -0.52867  -0.52830  -0.52696  -0.52613
 Alpha  occ. eigenvalues --   -0.52364  -0.52257  -0.51857  -0.51795  -0.51598
 Alpha  occ. eigenvalues --   -0.51568  -0.51142  -0.51117  -0.50503  -0.50414
 Alpha  occ. eigenvalues --   -0.49964  -0.49912  -0.49858  -0.49770  -0.49461
 Alpha  occ. eigenvalues --   -0.49426  -0.49161  -0.49136  -0.49049  -0.49035
 Alpha  occ. eigenvalues --   -0.48546  -0.48490  -0.48400  -0.48387  -0.48289
 Alpha  occ. eigenvalues --   -0.48280  -0.47639  -0.47522  -0.47240  -0.47048
 Alpha  occ. eigenvalues --   -0.46739  -0.46624  -0.46510  -0.46488  -0.46301
 Alpha  occ. eigenvalues --   -0.46188  -0.46108  -0.46004  -0.45775  -0.45745
 Alpha  occ. eigenvalues --   -0.45139  -0.45120  -0.44528  -0.44447  -0.44447
 Alpha  occ. eigenvalues --   -0.44398  -0.44083  -0.44058  -0.44038  -0.43982
 Alpha  occ. eigenvalues --   -0.43966  -0.43878  -0.43474  -0.43450  -0.43331
 Alpha  occ. eigenvalues --   -0.43314  -0.42972  -0.42860  -0.42824  -0.42663
 Alpha  occ. eigenvalues --   -0.42592  -0.42450  -0.41949  -0.41860  -0.41650
 Alpha  occ. eigenvalues --   -0.41593  -0.41485  -0.41381  -0.41087  -0.40917
 Alpha  occ. eigenvalues --   -0.40816  -0.40760  -0.40663  -0.40622  -0.40508
 Alpha  occ. eigenvalues --   -0.40388  -0.40194  -0.40171  -0.39365  -0.39290
 Alpha  occ. eigenvalues --   -0.38407  -0.38255  -0.37707  -0.37590  -0.37258
 Alpha  occ. eigenvalues --   -0.37216  -0.37173  -0.37130  -0.36700  -0.36678
 Alpha  occ. eigenvalues --   -0.36145  -0.36132  -0.34229  -0.34176  -0.33796
 Alpha  occ. eigenvalues --   -0.33743  -0.33131  -0.33098  -0.31277  -0.31218
 Alpha  occ. eigenvalues --   -0.30979  -0.30898  -0.29981  -0.29884  -0.29388
 Alpha  occ. eigenvalues --   -0.29264  -0.29257  -0.29136  -0.24024  -0.23959
 Alpha  occ. eigenvalues --   -0.21069  -0.21040
 Alpha virt. eigenvalues --   -0.08718  -0.08715  -0.01690  -0.01607   0.00002
 Alpha virt. eigenvalues --    0.00035   0.02256   0.02284   0.03183   0.03314
 Alpha virt. eigenvalues --    0.04768   0.04800   0.05125   0.05230   0.06212

 Mulliken charges:
               1
     1  Mg   0.838732
     2  C   -0.003153
     3  C   -0.094112
     4  C   -0.045748
     5  C   -0.063882
     6  N   -0.256788
     7  C   -0.052573
     8  C   -0.013983
     9  C   -0.087021
    10  C    0.046311
    11  C    0.104817
    12  C    0.053475
    13  C   -0.071679
    14  H    0.035640
    15  N   -0.433144
    16  C    0.168482
    17  C   -0.177073
    18  C   -0.003886
    19  C    0.148749
    20  C    0.110163
    21  C    0.012462
    22  O   -0.249584
    23  C    0.062378
    24  N   -0.341148
    25  C    0.041261
    26  C   -0.028179
    27  C   -0.024007
    28  C    0.074865
    29  C    0.076189
    30  C    0.035106
    31  C   -0.004559
    32  N   -0.310428
    33  C    0.080343
    34  C   -0.169693
    35  C    0.008285
    36  C    0.082912
    37  C    0.127313
    38  C    0.045991
    39  O   -0.188596
    40  C   -0.005300
    41  C    0.212929
    42  O   -0.257486
    43  O   -0.304693
    44  C    0.157807
    45  H   -0.017640
    46  H   -0.016773
    47  H   -0.041375
    48  H    0.000852
    49  H   -0.004037
    50  H    0.025434
    51  H    0.016492
    52  H    0.016608
    53  H    0.011316
    54  H    0.043804
    55  H    0.017911
    56  H    0.018081
    57  H    0.005810
    58  H    0.026756
    59  H    0.039901
    60  H    0.037206
    61  H    0.035688
    62  H    0.031918
    63  H    0.016703
    64  H    0.009418
    65  H    0.023221
    66  H    0.012447
    67  H    0.004728
    68  H    0.006411
    69  H    0.004816
    70  H    0.008875
    71  H    0.018554
    72  H    0.028848
    73  H    0.047563
    74  H    0.009279
    75  H    0.045944
    76  H    0.035124
    77  H    0.042957
    78  H    0.046384
    79  H    0.053285
    80  Mg   0.837916
    81  C   -0.016923
    82  C   -0.087943
    83  C   -0.045504
    84  C   -0.064725
    85  N   -0.254572
    86  C   -0.049842
    87  C   -0.015087
    88  C   -0.090507
    89  C    0.045714
    90  C    0.114439
    91  C    0.062552
    92  C   -0.077822
    93  H    0.034800
    94  N   -0.423418
    95  C    0.162850
    96  C   -0.174799
    97  C   -0.007965
    98  C    0.152103
    99  C    0.099424
   100  C    0.015495
   101  O   -0.253510
   102  C    0.061263
   103  N   -0.350142
   104  C    0.037555
   105  C   -0.019711
   106  C   -0.035128
   107  C    0.089100
   108  C    0.073849
   109  C    0.034675
   110  C   -0.007907
   111  N   -0.324161
   112  C    0.078604
   113  C   -0.162803
   114  C    0.002215
   115  C    0.096327
   116  C    0.131359
   117  C    0.042467
   118  O   -0.187832
   119  C    0.000890
   120  C    0.211250
   121  O   -0.250938
   122  O   -0.305678
   123  C    0.152057
   124  H   -0.019922
   125  H   -0.015810
   126  H   -0.039773
   127  H   -0.000747
   128  H   -0.004463
   129  H    0.022395
   130  H    0.014375
   131  H    0.016082
   132  H    0.013928
   133  H    0.037725
   134  H    0.020703
   135  H    0.019504
   136  H    0.008644
   137  H    0.025842
   138  H    0.039627
   139  H    0.038103
   140  H    0.035942
   141  H    0.033975
   142  H    0.014460
   143  H    0.012430
   144  H    0.024738
   145  H    0.011258
   146  H    0.005667
   147  H    0.006865
   148  H    0.004664
   149  H    0.010550
   150  H    0.019852
   151  H    0.029360
   152  H    0.046264
   153  H    0.009264
   154  H    0.046796
   155  H    0.034887
   156  H    0.043835
   157  H    0.049398
   158  H    0.053595
 Sum of Mulliken charges =  -0.00000

 Dipole moment (field-independent basis, Debye):
    X=             -0.0657    Y=              6.9545    Z=             -3.2856  Tot=              7.6919
 Quadrupole moment (field-independent basis, Debye-Ang):
   XX=           -421.0860   YY=           -540.8063   ZZ=           -480.4476
   XY=            -25.4072   XZ=            -17.8026   YZ=              0.2323

 Normal termination of Gaussian 16 at Sat Sep 11 20:03:11 2021.
