 Gaussian 16, Revision A.03,
 Gaussian 16:  ES64L-G16RevA.03 25-Dec-2016

 -----------------------------------
 #p cam-b3lyp/Def2SVP td=(nstates=5)
 -----------------------------------

 --------------------------------
 TDDFT excited states in gaussian
 --------------------------------
 Symbolic Z-matrix:
 Charge =  0 Multiplicity = 1

                         Standard orientation:
 ---------------------------------------------------------------------
 Center     Atomic      Atomic             Coordinates (Angstroms)
 Number     Number       Type             X           Y           Z
 ---------------------------------------------------------------------
      1         12           0        6.344644   -1.146589    0.271281
      2          6           0        6.798073    2.327077   -0.463743
      3          6           0        7.122393   -0.409798    3.510927
      4          6           0        6.395656   -4.263421    0.853841
      5          6           0        6.721631   -1.765595   -3.137586
      6          7           0        6.872852    0.755177    1.273740
      7          6           0        6.953173    2.025752    0.891172
      8          6           0        7.142896    3.017431    2.077743
      9          6           0        7.787661    2.018512    3.140023
     10          6           0        7.198794    0.713252    2.634598
     11          6           0        9.308373    1.936911    3.054714
     12          6           0        5.782257    3.598584    2.590242
     13          6           0        5.897927    4.810489    3.519359
     14          1           0        4.888089    5.854903    3.437058
     15          7           0        6.225890   -2.132903    1.978891
     16          6           0        6.569786   -1.672462    3.205681
     17          6           0        6.298006   -2.779626    4.147490
     18          6           0        5.947538   -3.984160    3.344767
     19          6           0        6.204502   -3.509252    2.009174
     20          6           0        6.335522   -2.621152    5.636526
     21          6           0        5.468651   -5.350287    3.722255
     22          8           0        5.446397   -6.318093    2.887132
     23          6           0        5.104872   -5.551363    5.136566
     24          7           0        6.749241   -2.808454   -0.925440
     25          6           0        6.644294   -4.050356   -0.440001
     26          6           0        6.701640   -5.071975   -1.536790
     27          6           0        6.623875   -4.254904   -2.906498
     28          6           0        6.617210   -2.819593   -2.325027
     29          6           0        7.945253   -5.971578   -1.549094
     30          6           0        5.504062   -4.653288   -3.900343
     31          6           0        4.152787   -4.304683   -3.317566
     32          7           0        6.520775    0.053490   -1.528673
     33          6           0        6.691756   -0.413415   -2.839947
     34          6           0        6.868993    0.770711   -3.700470
     35          6           0        6.804944    1.850477   -2.821921
     36          6           0        6.626902    1.369986   -1.493116
     37          6           0        7.116945    0.753211   -5.101416
     38          6           0        6.870153    3.297234   -2.693477
     39          8           0        6.915256    4.237219   -3.488390
     40          6           0        6.990365    3.658070   -1.147135
     41          6           0        5.995257    4.748193   -0.856101
     42          8           0        4.768516    4.529073   -0.922883
     43          8           0        6.632341    5.799763   -0.318639
     44          6           0        5.697851    6.905847    0.021157
     45          1           0        7.578409   -0.339201    4.500375
     46          1           0        6.309696   -5.342837    0.994949
     47          1           0        6.759867   -1.876983   -4.222752
     48          1           0        7.828724    3.840657    1.876839
     49          1           0        7.441854    2.223095    4.153080
     50          1           0        9.688751    2.481851    2.190842
     51          1           0        9.538366    0.874934    2.966387
     52          1           0        9.766891    2.266223    3.987501
     53          1           0        5.320902    2.884896    3.272782
     54          1           0        5.129126    3.847197    1.753022
     55          1           0        6.898308    5.243078    3.487526
     56          1           0        5.784751    4.465035    4.547004
     57          1           0        6.783764   -1.671835    5.927080
     58          1           0        7.023189   -3.374806    6.019708
     59          1           0        5.352800   -2.756435    6.088509
     60          1           0        5.969108   -5.334578    5.764777
     61          1           0        4.700911   -6.560973    5.202542
     62          1           0        4.337457   -4.826701    5.410223
     63          1           0        5.855041   -5.754937   -1.479709
     64          1           0        7.540955   -4.345065   -3.489172
     65          1           0        7.715852   -7.036439   -1.502696
     66          1           0        8.585436   -5.672944   -0.719471
     67          1           0        8.609287   -5.821873   -2.400014
     68          1           0        5.512444   -5.729518   -4.069470
     69          1           0        5.595570   -4.164413   -4.870332
     70          1           0        3.933301   -5.161864   -2.682036
     71          1           0        3.410531   -4.206253   -4.110396
     72          1           0        4.211602   -3.427577   -2.672808
     73          1           0        6.484347    1.528868   -5.532860
     74          1           0        6.894677   -0.223470   -5.530710
     75          1           0        8.181629    0.985423   -5.120960
     76          1           0        8.016234    3.985036   -0.980375
     77          1           0        6.057753    7.798654   -0.490310
     78          1           0        5.636197    6.936205    1.109128
     79          1           0        4.689483    6.827402   -0.386741
     80         12           0       -6.853294   -0.314921   -0.321548
     81          6           0       -5.015118    2.763289   -0.478963
     82          6           0       -7.616676    0.479501    2.906560
     83          6           0       -8.097897   -3.216477   -0.006352
     84          6           0       -5.035444   -1.381084   -3.097234
     85          7           0       -6.326104    1.424854    0.938406
     86          6           0       -5.673996    2.562530    0.751893
     87          6           0       -5.798372    3.574528    1.922338
     88          6           0       -6.128474    2.537261    3.103015
     89          6           0       -6.763451    1.420571    2.276895
     90          6           0       -4.886908    1.982635    3.781435
     91          6           0       -6.971747    4.594141    1.708778
     92          6           0       -6.958346    5.797260    2.654352
     93          1           0       -7.405470    7.089778    2.142547
     94          7           0       -8.125073   -1.027482    1.025080
     95          6           0       -8.322710   -0.570525    2.279433
     96          6           0       -9.346397   -1.446503    2.870108
     97          6           0       -9.617474   -2.558688    1.919180
     98          6           0       -8.586433   -2.316897    0.929944
     99          6           0      -10.019384   -1.144915    4.177609
    100          6           0      -10.628163   -3.665307    1.909204
    101          8           0      -10.529802   -4.659836    1.106658
    102          6           0      -11.684445   -3.597677    2.929585
    103          7           0       -6.459017   -2.127805   -1.259818
    104          6           0       -7.181146   -3.225485   -0.974229
    105          6           0       -6.904826   -4.332755   -1.963164
    106          6           0       -6.024071   -3.666027   -3.119593
    107          6           0       -5.861443   -2.248474   -2.528432
    108          6           0       -6.173443   -5.554264   -1.406948
    109          6           0       -6.551290   -3.804294   -4.574111
    110          6           0       -7.827027   -3.009989   -4.738344
    111          7           0       -5.439464    0.576291   -1.690816
    112          6           0       -4.780023   -0.056173   -2.767475
    113          6           0       -3.830592    0.924287   -3.332929
    114          6           0       -3.988277    2.060529   -2.525106
    115          6           0       -4.952285    1.799366   -1.514172
    116          6           0       -2.940506    0.689635   -4.418653
    117          6           0       -3.550717    3.417912   -2.291152
    118          8           0       -2.813861    4.206994   -2.881188
    119          6           0       -4.104088    3.890797   -0.878156
    120          6           0       -4.712467    5.255581   -1.050671
    121          8           0       -5.726104    5.411409   -1.754132
    122          8           0       -4.131130    6.109350   -0.188403
    123          6           0       -4.708822    7.474034   -0.313869
    124          1           0       -7.724619    0.521174    3.990768
    125          1           0       -8.575500   -4.199009   -0.010155
    126          1           0       -4.502962   -1.603761   -4.024352
    127          1           0       -4.890312    4.119967    2.149684
    128          1           0       -6.849908    2.951521    3.802500
    129          1           0       -3.981956    2.288465    3.277774
    130          1           0       -4.991323    0.905958    3.751245
    131          1           0       -4.882427    2.255418    4.840632
    132          1           0       -7.914864    4.124183    2.016053
    133          1           0       -7.000732    4.934109    0.691819
    134          1           0       -5.998873    5.901312    3.175433
    135          1           0       -7.680011    5.617485    3.454915
    136          1           0       -9.496623   -0.351174    4.725422
    137          1           0       -9.903522   -2.032431    4.809071
    138          1           0      -11.083801   -0.928878    4.063494
    139          1           0      -11.231493   -3.587446    3.918119
    140          1           0      -12.360593   -4.425022    2.705549
    141          1           0      -12.218195   -2.647257    2.818123
    142          1           0       -7.826100   -4.705505   -2.393751
    143          1           0       -5.016203   -4.103880   -3.167913
    144          1           0       -6.727009   -6.500328   -1.557260
    145          1           0       -5.982838   -5.388244   -0.354975
    146          1           0       -5.170991   -5.711529   -1.801352
    147          1           0       -6.804365   -4.845652   -4.787814
    148          1           0       -5.835760   -3.486149   -5.324968
    149          1           0       -8.593035   -3.691728   -4.356825
    150          1           0       -7.997511   -2.771397   -5.786220
    151          1           0       -7.824308   -2.123312   -4.093803
    152          1           0       -2.984973    1.565273   -5.052524
    153          1           0       -3.209171   -0.211895   -4.965303
    154          1           0       -1.997788    0.575566   -3.876856
    155          1           0       -3.262860    3.902338   -0.184056
    156          1           0       -3.875840    8.157089   -0.506867
    157          1           0       -5.290776    7.638417    0.612449
    158          1           0       -5.346605    7.671779   -1.167436
 ---------------------------------------------------------------------

 SCF Done:  E(RCAM-B3LYP) =  -4069.81111818     A.U. after   19 cycles

 Excitation energies and oscillator strengths:

 Excited State   1:      Singlet-A      1.6655 eV  744.41 nm  f=0.0869  <S**2>=0.000
     309 -> 315       -0.11167
     310 -> 316       -0.13006
     311 -> 313       -0.44607
     312 -> 314        0.52194
 This state for optimization and/or second-order correction.
 Total Energy, E(TD-HF/TD-DFT) =  -4069.74991104
 Copying the excited state density for this state as the 1-particle RhoCI density.

 Excited State   2:      Singlet-A      1.6898 eV  733.71 nm  f=0.6663  <S**2>=0.000
     309 -> 315        0.13515
     310 -> 316       -0.11488
     311 -> 313        0.52077
     312 -> 314        0.44521

 Excited State   3:      Singlet-A      2.1852 eV  567.38 nm  f=0.0271  <S**2>=0.000
     309 -> 313        0.25414
     310 -> 314        0.59070
     311 -> 315       -0.10717
     312 -> 316        0.25037

 Excited State   4:      Singlet-A      2.1932 eV  565.31 nm  f=0.1603  <S**2>=0.000
     309 -> 313        0.58814
     310 -> 314       -0.25220
     311 -> 315       -0.25674
     312 -> 316       -0.11037

 Excited State   5:      Singlet-A      2.6649 eV  465.25 nm  f=0.0000  <S**2>=0.000
     312 -> 313        0.70703

 The electronic state is 1-A.
 Alpha  occ. eigenvalues --  -46.87729 -46.87525 -19.26176 -19.26112 -19.18989
 Alpha  occ. eigenvalues --  -19.18833 -19.18770 -19.18597 -19.18052 -19.17829
 Alpha  occ. eigenvalues --  -14.42383 -14.42368 -14.41386 -14.41225 -14.39337
 Alpha  occ. eigenvalues --  -14.39217 -14.38510 -14.38453 -10.38917 -10.38904
 Alpha  occ. eigenvalues --  -10.35406 -10.35278 -10.34270 -10.34008 -10.31601
 Alpha  occ. eigenvalues --  -10.31498 -10.31328 -10.31167 -10.30899 -10.30841
 Alpha  occ. eigenvalues --  -10.30492 -10.30436 -10.30251 -10.30209 -10.30157
 Alpha  occ. eigenvalues --  -10.30023 -10.29853 -10.29751 -10.29559 -10.29308
 Alpha  occ. eigenvalues --  -10.29254 -10.29194 -10.28677 -10.28606 -10.28569
 Alpha  occ. eigenvalues --  -10.28474 -10.28289 -10.28260 -10.28051 -10.28032
 Alpha  occ. eigenvalues --  -10.27844 -10.27716 -10.27662 -10.27541 -10.27518
 Alpha  occ. eigenvalues --  -10.27463 -10.27444 -10.27408 -10.27406 -10.27364
 Alpha  occ. eigenvalues --  -10.27343 -10.27326 -10.27326 -10.27259 -10.27039
 Alpha  occ. eigenvalues --  -10.26856 -10.26629 -10.26589 -10.26387 -10.26324
 Alpha  occ. eigenvalues --  -10.26174 -10.26164 -10.26037 -10.25957 -10.25935
 Alpha  occ. eigenvalues --  -10.25801 -10.25744 -10.25632 -10.25397 -10.25287
 Alpha  occ. eigenvalues --  -10.24748 -10.24723 -10.24709 -10.24683 -10.24632
 Alpha  occ. eigenvalues --  -10.24553  -3.16472  -3.16275  -1.91353  -1.91158
 Alpha  occ. eigenvalues --   -1.90940  -1.90782  -1.90746  -1.90583  -1.16470
 Alpha  occ. eigenvalues --   -1.16460  -1.08501  -1.08430  -1.07173  -1.06852
 Alpha  occ. eigenvalues --   -1.06770  -1.06460  -1.04511  -1.04362  -1.03696
 Alpha  occ. eigenvalues --   -1.03527  -1.03164  -1.02901  -1.02342  -1.01971
 Alpha  occ. eigenvalues --   -0.91885  -0.91831  -0.89466  -0.89365  -0.89119
 Alpha  occ. eigenvalues --   -0.89038  -0.88236  -0.88098  -0.87786  -0.87623
 Alpha  occ. eigenvalues --   -0.87607  -0.87553  -0.87220  -0.86997  -0.84913
 Alpha  occ. eigenvalues --   -0.84881  -0.83886  -0.83753  -0.82925  -0.82819
 Alpha  occ. eigenvalues --   -0.82577  -0.82532  -0.81476  -0.81443  -0.80511
 Alpha  occ. eigenvalues --   -0.80301  -0.78734  -0.78497  -0.77157  -0.77020
 Alpha  occ. eigenvalues --   -0.76856  -0.76771  -0.75836  -0.75704  -0.74838
 Alpha  occ. eigenvalues --   -0.74676  -0.72704  -0.72554  -0.71602  -0.71449
 Alpha  occ. eigenvalues --   -0.69870  -0.69644  -0.68805  -0.68704  -0.67567
 Alpha  occ. eigenvalues --   -0.67461  -0.67155  -0.67085  -0.65211  -0.65144
 Alpha  occ. eigenvalues --   -0.64772  -0.64634  -0.64542  -0.64518  -0.64213
 Alpha  occ. eigenvalues --   -0.64076  -0.62176  -0.62125  -0.60387  -0.60212
 Alpha  occ. eigenvalues --   -0.59733  -0.59671  -0.58914  -0.58852  -0.58425
 Alpha  occ. eigenvalues --   -0.58280  -0.57470  -0.57377  -0.57231  -0.57097
 Alpha  occ. eigenvalues --   -0.56235  -0.56059  -0.55854  -0.55740  -0.55453
 Alpha  occ. eigenvalues --   -0.55316  -0.55262  -0.55108  -0.54425  -0.54348
 Alpha  occ. eigenvalues --   -0.53823  -0.53797  -0.53234  -0.53150  -0.53093
 Alpha  occ. eigenvalues --   -0.53010  -0.52818  -0.52766  -0.52701  -0.52558
 Alpha  occ. eigenvalues --   -0.52395  -0.52285  -0.51820  -0.51691  -0.51544
 Alpha  occ. eigenvalues --   -0.51538  -0.51112  -0.51045  -0.50535  -0.50368
 Alpha  occ. eigenvalues --   -0.49989  -0.49864  -0.49864  -0.49746  -0.49447
 Alpha  occ. eigenvalues --   -0.49366  -0.49129  -0.49062  -0.49020  -0.48958
 Alpha  occ. eigenvalues --   -0.48499  -0.48412  -0.48407  -0.48363  -0.48243
 Alpha  occ. eigenvalues --   -0.48197  -0.47628  -0.47468  -0.47229  -0.46993
 Alpha  occ. eigenvalues --   -0.46732  -0.46580  -0.46483  -0.46438  -0.46289
 Alpha  occ. eigenvalues --   -0.46135  -0.46077  -0.45937  -0.45717  -0.45658
 Alpha  occ. eigenvalues --   -0.45148  -0.45083  -0.44482  -0.44454  -0.44381
 Alpha  occ. eigenvalues --   -0.44336  -0.44088  -0.44023  -0.43993  -0.43950
 Alpha  occ. eigenvalues --   -0.43930  -0.43793  -0.43409  -0.43388  -0.43323
 Alpha  occ. eigenvalues --   -0.43250  -0.42950  -0.42783  -0.42738  -0.42635
 Alpha  occ. eigenvalues --   -0.42523  -0.42433  -0.41948  -0.41842  -0.41622
 Alpha  occ. eigenvalues --   -0.41506  -0.41467  -0.41342  -0.41072  -0.40859
 Alpha  occ. eigenvalues --   -0.40811  -0.40776  -0.40611  -0.40587  -0.40516
 Alpha  occ. eigenvalues --   -0.40370  -0.40168  -0.40122  -0.39410  -0.39314
 Alpha  occ. eigenvalues --   -0.38420  -0.38234  -0.37678  -0.37542  -0.37265
 Alpha  occ. eigenvalues --   -0.37189  -0.37141  -0.37072  -0.36613  -0.36585
 Alpha  occ. eigenvalues --   -0.36088  -0.36082  -0.34213  -0.34113  -0.33696
 Alpha  occ. eigenvalues --   -0.33605  -0.33105  -0.33036  -0.31299  -0.31157
 Alpha  occ. eigenvalues --   -0.30963  -0.30836  -0.29908  -0.29732  -0.29383
 Alpha  occ. eigenvalues --   -0.29238  -0.29188  -0.29045  -0.24009  -0.23897
 Alpha  occ. eigenvalues --   -0.21060  -0.20979
 Alpha virt. eigenvalues --   -0.08704  -0.08648  -0.01687  -0.01552   0.00005
 Alpha virt. eigenvalues --    0.00104   0.02291   0.02385   0.03189   0.03354
 Alpha virt. eigenvalues --    0.04785   0.04851   0.05261   0.05340   0.06249

 Mulliken charges:
               1
     1  Mg   0.838716
     2  C   -0.002527
     3  C   -0.094311
     4  C   -0.046035
     5  C   -0.064160
     6  N   -0.256696
     7  C   -0.052430
     8  C   -0.013962
     9  C   -0.086954
    10  C    0.046200
    11  C    0.104876
    12  C    0.053535
    13  C   -0.071632
    14  H    0.036234
    15  N   -0.433059
    16  C    0.168195
    17  C   -0.177442
    18  C   -0.004259
    19  C    0.148571
    20  C    0.110276
    21  C    0.012060
    22  O   -0.249923
    23  C    0.062598
    24  N   -0.341108
    25  C    0.041063
    26  C   -0.028063
    27  C   -0.024013
    28  C    0.074897
    29  C    0.076220
    30  C    0.035203
    31  C   -0.004425
    32  N   -0.310682
    33  C    0.080679
    34  C   -0.169264
    35  C    0.008848
    36  C    0.083364
    37  C    0.127085
    38  C    0.047030
    39  O   -0.187311
    40  C   -0.005662
    41  C    0.212851
    42  O   -0.255309
    43  O   -0.305310
    44  C    0.157186
    45  H   -0.017894
    46  H   -0.017145
    47  H   -0.041502
    48  H    0.001061
    49  H   -0.004381
    50  H    0.025532
    51  H    0.016352
    52  H    0.016393
    53  H    0.010700
    54  H    0.045007
    55  H    0.017835
    56  H    0.017306
    57  H    0.005662
    58  H    0.026603
    59  H    0.038950
    60  H    0.037279
    61  H    0.035375
    62  H    0.031147
    63  H    0.016211
    64  H    0.009483
    65  H    0.022982
    66  H    0.012583
    67  H    0.004682
    68  H    0.006116
    69  H    0.004847
    70  H    0.008477
    71  H    0.017430
    72  H    0.029361
    73  H    0.048646
    74  H    0.008906
    75  H    0.045919
    76  H    0.034921
    77  H    0.042915
    78  H    0.045609
    79  H    0.055486
    80  Mg   0.837600
    81  C   -0.016704
    82  C   -0.087989
    83  C   -0.045653
    84  C   -0.064948
    85  N   -0.254438
    86  C   -0.049781
    87  C   -0.015018
    88  C   -0.090489
    89  C    0.045556
    90  C    0.114405
    91  C    0.062601
    92  C   -0.077608
    93  H    0.034711
    94  N   -0.423403
    95  C    0.162633
    96  C   -0.175029
    97  C   -0.008106
    98  C    0.151875
    99  C    0.099541
   100  C    0.015328
   101  O   -0.253539
   102  C    0.061310
   103  N   -0.350058
   104  C    0.037331
   105  C   -0.019724
   106  C   -0.034848
   107  C    0.089148
   108  C    0.073731
   109  C    0.034771
   110  C   -0.007614
   111  N   -0.324313
   112  C    0.078669
   113  C   -0.162965
   114  C    0.003210
   115  C    0.095999
   116  C    0.131581
   117  C    0.043524
   118  O   -0.185002
   119  C    0.000504
   120  C    0.211450
   121  O   -0.251389
   122  O   -0.305339
   123  C    0.152119
   124  H   -0.020305
   125  H   -0.015896
   126  H   -0.040402
   127  H   -0.000505
   128  H   -0.004767
   129  H    0.022840
   130  H    0.014241
   131  H    0.015352
   132  H    0.013779
   133  H    0.037857
   134  H    0.020517
   135  H    0.019217
   136  H    0.008345
   137  H    0.025610
   138  H    0.039400
   139  H    0.037998
   140  H    0.036047
   141  H    0.033753
   142  H    0.014139
   143  H    0.012400
   144  H    0.024824
   145  H    0.011634
   146  H    0.005657
   147  H    0.005985
   148  H    0.003600
   149  H    0.010789
   150  H    0.017786
   151  H    0.030257
   152  H    0.046610
   153  H    0.007716
   154  H    0.048996
   155  H    0.036446
   156  H    0.044179
   157  H    0.048781
   158  H    0.053482
 Sum of Mulliken charges =  -0.00000

 Dipole moment (field-independent basis, Debye):
    X=              1.1668    Y=             -1.2452    Z=              8.1635  Tot=              8.3400
 Quadrupole moment (field-independent basis, Debye-Ang):
   XX=           -489.9532   YY=           -528.7585   ZZ=           -467.6592
   XY=            -17.2968   XZ=             -4.3253   YZ=             58.3855

 Normal termination of Gaussian 16 at Sat Sep 11 13:33:59 2021.
