 Gaussian 16, Revision A.03,
 Gaussian 16:  ES64L-G16RevA.03 25-Dec-2016

 -----------------------------------
 #p cam-b3lyp/Def2SVP td=(nstates=5)
 -----------------------------------

 --------------------------------
 TDDFT excited states in gaussian
 --------------------------------
 Symbolic Z-matrix:
 Charge =  0 Multiplicity = 1

                         Standard orientation:
 ---------------------------------------------------------------------
 Center     Atomic      Atomic             Coordinates (Angstroms)
 Number     Number       Type             X           Y           Z
 ---------------------------------------------------------------------
      1         12           0        4.175276    1.421811    0.389383
      2          6           0        5.484365   -1.652764   -0.893381
      3          6           0        4.687525    2.759401   -2.707635
      4          6           0        3.452796    4.256615    1.613529
      5          6           0        4.826621    0.194489    3.585489
      6          7           0        4.987072    0.561248   -1.481730
      7          6           0        5.397441   -0.646038   -1.857534
      8          6           0        5.654991   -0.761833   -3.389733
      9          6           0        5.921427    0.775644   -3.717108
     10          6           0        5.122698    1.405965   -2.589877
     11          6           0        7.383533    1.185040   -3.571701
     12          6           0        4.406267   -1.304219   -4.163191
     13          6           0        4.673795   -1.753977   -5.602461
     14          1           0        3.942310   -2.897655   -6.126178
     15          7           0        3.625996    3.098679   -0.499017
     16          6           0        3.908388    3.471711   -1.770390
     17          6           0        3.279766    4.797343   -1.955362
     18          6           0        2.771173    5.248630   -0.630308
     19          6           0        3.292868    4.217910    0.230406
     20          6           0        3.165564    5.475348   -3.286157
     21          6           0        1.954800    6.428131   -0.205520
     22          8           0        1.820560    6.755453    1.023062
     23          6           0        1.381449    7.253045   -1.284328
     24          7           0        4.343095    2.224089    2.309233
     25          6           0        3.902505    3.456972    2.582848
     26          6           0        3.865815    3.708126    4.061197
     27          6           0        4.144996    2.297903    4.756237
     28          6           0        4.387818    1.451045    3.482604
     29          6           0        4.867535    4.744439    4.589045
     30          6           0        3.097510    1.800798    5.783894
     31          6           0        1.796904    1.485675    5.079466
     32          7           0        4.839487   -0.461903    1.238789
     33          6           0        5.063822   -0.743093    2.594252
     34          6           0        5.608175   -2.111457    2.667234
     35          6           0        5.678688   -2.527829    1.339262
     36          6           0        5.232867   -1.476039    0.488808
     37          6           0        6.018891   -2.782834    3.852561
     38          6           0        6.050133   -3.607694    0.439387
     39          8           0        6.403831   -4.778176    0.588932
     40          6           0        6.054081   -3.040868   -1.048739
     41          6           0        5.300449   -4.018004   -1.909292
     42          8           0        4.074019   -4.191254   -1.756915
     43          8           0        6.084883   -4.414532   -2.923182
     44          6           0        5.387325   -5.362938   -3.832079
     45          1           0        5.020495    3.348232   -3.564576
     46          1           0        3.110009    5.179411    2.086161
     47          1           0        4.974146   -0.286140    4.554347
     48          1           0        6.527557   -1.356703   -3.660255
     49          1           0        5.506546    1.063930   -4.682762
     50          1           0        7.981287    0.381690   -3.141307
     51          1           0        7.378682    2.052016   -2.910776
     52          1           0        7.784022    1.535852   -4.523183
     53          1           0        3.715055   -0.482627   -4.351001
     54          1           0        3.935361   -2.119222   -3.612424
     55          1           0        5.741645   -1.863321   -5.793903
     56          1           0        4.358569   -0.955341   -6.274037
     57          1           0        3.775394    4.980838   -4.041215
     58          1           0        3.613300    6.463226   -3.179667
     59          1           0        2.128976    5.574372   -3.608666
     60          1           0        2.186868    7.635519   -1.911673
     61          1           0        0.756358    7.998051   -0.793331
     62          1           0        0.768087    6.619249   -1.925452
     63          1           0        2.887289    4.071985    4.371872
     64          1           0        5.083907    2.293782    5.310406
     65          1           0        4.401209    5.568163    5.130085
     66          1           0        5.449607    5.111312    3.744126
     67          1           0        5.649182    4.338948    5.230934
     68          1           0        2.885371    2.579329    6.515899
     69          1           0        3.416757    0.911927    6.328173
     70          1           0        1.313146    2.459620    5.014342
     71          1           0        1.200632    0.792547    5.673810
     72          1           0        1.969916    1.138993    4.060464
     73          1           0        5.635342   -3.800137    3.775398
     74          1           0        5.638656   -2.282609    4.742953
     75          1           0        7.102415   -2.707763    3.762027
     76          1           0        7.098070   -2.952450   -1.347726
     77          1           0        5.999287   -6.263308   -3.887489
     78          1           0        5.198643   -4.821543   -4.759277
     79          1           0        4.446109   -5.775948   -3.467559
     80         12           0       -4.325991   -1.539265    0.252058
     81          6           0       -5.148905    1.524961   -1.424969
     82          6           0       -4.078739    0.276068    3.129216
     83          6           0       -3.162942   -4.129128    1.668876
     84          6           0       -3.526074   -2.869991   -2.868036
     85          7           0       -4.602029    0.614988    0.670724
     86          6           0       -4.974295    1.673382   -0.033234
     87          6           0       -5.248499    2.945086    0.813607
     88          6           0       -4.339757    2.585921    2.087990
     89          6           0       -4.365200    1.062321    1.984730
     90          6           0       -2.899307    3.050017    1.949991
     91          6           0       -6.760690    3.086095    1.207835
     92          6           0       -7.154400    4.454813    1.767641
     93          1           0       -8.478732    4.981906    1.450168
     94          7           0       -4.182417   -1.994334    2.178419
     95          6           0       -4.116112   -1.133025    3.215265
     96          6           0       -3.999192   -1.965199    4.422729
     97          6           0       -3.836010   -3.383093    4.001232
     98          6           0       -3.696898   -3.217764    2.568259
     99          6           0       -4.126258   -1.407625    5.810676
    100          6           0       -3.797145   -4.673082    4.763214
    101          8           0       -3.407623   -5.765711    4.217984
    102          6           0       -4.139293   -4.601533    6.191251
    103          7           0       -3.269096   -3.181760   -0.460340
    104          6           0       -2.930012   -4.193485    0.357799
    105          6           0       -2.423478   -5.381506   -0.424775
    106          6           0       -2.721489   -5.043849   -1.959295
    107          6           0       -3.292698   -3.617943   -1.798335
    108          6           0       -0.939700   -5.706696   -0.254373
    109          6           0       -3.548965   -6.085411   -2.761234
    110          6           0       -4.964914   -6.136072   -2.234057
    111          7           0       -4.499251   -0.897065   -1.803574
    112          6           0       -4.078690   -1.598579   -2.954702
    113          6           0       -4.301815   -0.708689   -4.112606
    114          6           0       -4.819368    0.466758   -3.547836
    115          6           0       -4.893347    0.327247   -2.135553
    116          6           0       -3.987760   -1.011835   -5.467440
    117          6           0       -5.310001    1.797762   -3.824269
    118          8           0       -5.560277    2.436641   -4.845502
    119          6           0       -5.426781    2.588725   -2.450539
    120          6           0       -6.771406    3.261958   -2.415059
    121          8           0       -7.815325    2.587124   -2.376873
    122          8           0       -6.598601    4.580956   -2.213188
    123          6           0       -7.904527    5.290521   -2.159339
    124          1           0       -3.753238    0.782444    4.038345
    125          1           0       -2.849350   -5.084529    2.095889
    126          1           0       -3.393823   -3.247303   -3.884312
    127          1           0       -4.910185    3.871334    0.364864
    128          1           0       -4.808592    2.913334    3.012308
    129          1           0       -2.694838    3.441601    0.964600
    130          1           0       -2.289261    2.177645    2.144535
    131          1           0       -2.657635    3.768666    2.738335
    132          1           0       -6.961766    2.459041    2.085963
    133          1           0       -7.395167    2.838530    0.379110
    134          1           0       -6.384215    5.213235    1.581740
    135          1           0       -7.202770    4.383349    2.856934
    136          1           0       -4.076422   -0.311766    5.810065
    137          1           0       -3.233699   -1.719809    6.363632
    138          1           0       -5.012105   -1.775377    6.332874
    139          1           0       -3.460720   -3.914469    6.691202
    140          1           0       -4.142359   -5.634985    6.543156
    141          1           0       -5.144970   -4.177681    6.289238
    142          1           0       -2.960705   -6.281632   -0.152263
    143          1           0       -1.794098   -4.946863   -2.542702
    144          1           0       -0.756880   -6.739266    0.098405
    145          1           0       -0.509481   -4.988830    0.431291
    146          1           0       -0.331083   -5.567738   -1.146269
    147          1           0       -3.131395   -7.086137   -2.625871
    148          1           0       -3.573996   -5.888456   -3.827804
    149          1           0       -4.884197   -6.807734   -1.374144
    150          1           0       -5.639831   -6.538138   -2.986949
    151          1           0       -5.280231   -5.155796   -1.858183
    152          1           0       -4.826489   -0.677878   -6.063689
    153          1           0       -3.800236   -2.074850   -5.603838
    154          1           0       -3.080606   -0.415234   -5.595560
    155          1           0       -4.607728    3.308117   -2.416076
    156          1           0       -7.868236    6.084072   -2.912100
    157          1           0       -8.032349    5.601437   -1.105418
    158          1           0       -8.785830    4.742716   -2.471841
 ---------------------------------------------------------------------

 SCF Done:  E(RCAM-B3LYP) =  -4069.81221632     A.U. after   19 cycles

 Excitation energies and oscillator strengths:

 Excited State   1:      Singlet-A      1.6557 eV  748.84 nm  f=0.1108  <S**2>=0.000
     309 -> 315        0.10780
     310 -> 316        0.13012
     311 -> 313       -0.43940
     312 -> 314        0.52832
 This state for optimization and/or second-order correction.
 Total Energy, E(TD-HF/TD-DFT) =  -4069.75137080
 Copying the excited state density for this state as the 1-particle RhoCI density.

 Excited State   2:      Singlet-A      1.6924 eV  732.60 nm  f=0.5750  <S**2>=0.000
     309 -> 315       -0.13724
     310 -> 316        0.11369
     311 -> 313        0.52632
     312 -> 314        0.43776

 Excited State   3:      Singlet-A      2.1814 eV  568.38 nm  f=0.0512  <S**2>=0.000
     309 -> 313        0.26974
     310 -> 314        0.58552
     311 -> 315        0.11200
     312 -> 316       -0.24378

 Excited State   4:      Singlet-A      2.1952 eV  564.80 nm  f=0.1347  <S**2>=0.000
     309 -> 313        0.58096
     310 -> 314       -0.26655
     311 -> 315        0.25471
     312 -> 316        0.11798

 Excited State   5:      Singlet-A      2.3452 eV  528.67 nm  f=0.0000  <S**2>=0.000
     312 -> 313        0.70708

 The electronic state is 1-A.
 Alpha  occ. eigenvalues --  -46.87916 -46.87434 -19.26431 -19.26266 -19.19180
 Alpha  occ. eigenvalues --  -19.19058 -19.18949 -19.18511 -19.18274 -19.17922
 Alpha  occ. eigenvalues --  -14.42563 -14.42272 -14.41582 -14.41100 -14.39521
 Alpha  occ. eigenvalues --  -14.39132 -14.38702 -14.38390 -10.39234 -10.38985
 Alpha  occ. eigenvalues --  -10.35578 -10.35190 -10.34496 -10.34101 -10.31832
 Alpha  occ. eigenvalues --  -10.31692 -10.31511 -10.31108 -10.31019 -10.30808
 Alpha  occ. eigenvalues --  -10.30679 -10.30635 -10.30346 -10.30183 -10.30173
 Alpha  occ. eigenvalues --  -10.30066 -10.29860 -10.29744 -10.29616 -10.29367
 Alpha  occ. eigenvalues --  -10.29215 -10.29208 -10.28847 -10.28634 -10.28521
 Alpha  occ. eigenvalues --  -10.28505 -10.28475 -10.28204 -10.28202 -10.27914
 Alpha  occ. eigenvalues --  -10.27898 -10.27833 -10.27810 -10.27699 -10.27694
 Alpha  occ. eigenvalues --  -10.27647 -10.27522 -10.27522 -10.27451 -10.27323
 Alpha  occ. eigenvalues --  -10.27278 -10.27277 -10.27273 -10.27130 -10.26923
 Alpha  occ. eigenvalues --  -10.26918 -10.26806 -10.26525 -10.26501 -10.26453
 Alpha  occ. eigenvalues --  -10.26311 -10.26249 -10.26149 -10.25929 -10.25836
 Alpha  occ. eigenvalues --  -10.25746 -10.25736 -10.25693 -10.25613 -10.25032
 Alpha  occ. eigenvalues --  -10.24939 -10.24924 -10.24690 -10.24642 -10.24472
 Alpha  occ. eigenvalues --  -10.24429  -3.16659  -3.16184  -1.91540  -1.91127
 Alpha  occ. eigenvalues --   -1.91066  -1.90969  -1.90654  -1.90492  -1.16780
 Alpha  occ. eigenvalues --   -1.16555  -1.08734  -1.08540  -1.07355  -1.06845
 Alpha  occ. eigenvalues --   -1.06797  -1.06760  -1.04694  -1.04279  -1.03889
 Alpha  occ. eigenvalues --   -1.03434  -1.03354  -1.02796  -1.02533  -1.01879
 Alpha  occ. eigenvalues --   -0.92090  -0.91797  -0.89695  -0.89286  -0.89229
 Alpha  occ. eigenvalues --   -0.88933  -0.88461  -0.87971  -0.87887  -0.87787
 Alpha  occ. eigenvalues --   -0.87624  -0.87447  -0.87371  -0.86938  -0.85092
 Alpha  occ. eigenvalues --   -0.84786  -0.84134  -0.83543  -0.83092  -0.82765
 Alpha  occ. eigenvalues --   -0.82706  -0.82439  -0.81716  -0.81440  -0.80720
 Alpha  occ. eigenvalues --   -0.80258  -0.78896  -0.78451  -0.77355  -0.77061
 Alpha  occ. eigenvalues --   -0.76930  -0.76664  -0.76037  -0.75645  -0.75057
 Alpha  occ. eigenvalues --   -0.74420  -0.72894  -0.72485  -0.71797  -0.71293
 Alpha  occ. eigenvalues --   -0.70126  -0.69428  -0.68983  -0.68620  -0.67762
 Alpha  occ. eigenvalues --   -0.67384  -0.67324  -0.67017  -0.65401  -0.65076
 Alpha  occ. eigenvalues --   -0.64986  -0.64762  -0.64562  -0.64446  -0.64432
 Alpha  occ. eigenvalues --   -0.63908  -0.62441  -0.62111  -0.60561  -0.60112
 Alpha  occ. eigenvalues --   -0.59906  -0.59591  -0.59117  -0.58758  -0.58632
 Alpha  occ. eigenvalues --   -0.58211  -0.57710  -0.57454  -0.57415  -0.56989
 Alpha  occ. eigenvalues --   -0.56418  -0.56111  -0.56025  -0.55734  -0.55635
 Alpha  occ. eigenvalues --   -0.55512  -0.55286  -0.54985  -0.54693  -0.54224
 Alpha  occ. eigenvalues --   -0.53997  -0.53700  -0.53426  -0.53332  -0.53057
 Alpha  occ. eigenvalues --   -0.53018  -0.52949  -0.52859  -0.52714  -0.52663
 Alpha  occ. eigenvalues --   -0.52483  -0.52119  -0.52015  -0.51745  -0.51717
 Alpha  occ. eigenvalues --   -0.51478  -0.51331  -0.51011  -0.50665  -0.50284
 Alpha  occ. eigenvalues --   -0.50205  -0.50026  -0.49764  -0.49625  -0.49514
 Alpha  occ. eigenvalues --   -0.49326  -0.49291  -0.49199  -0.49026  -0.48902
 Alpha  occ. eigenvalues --   -0.48717  -0.48613  -0.48563  -0.48379  -0.48159
 Alpha  occ. eigenvalues --   -0.48023  -0.47819  -0.47413  -0.47375  -0.46935
 Alpha  occ. eigenvalues --   -0.46868  -0.46662  -0.46488  -0.46473  -0.46328
 Alpha  occ. eigenvalues --   -0.46299  -0.46054  -0.45940  -0.45818  -0.45634
 Alpha  occ. eigenvalues --   -0.45367  -0.44810  -0.44702  -0.44633  -0.44321
 Alpha  occ. eigenvalues --   -0.44298  -0.44258  -0.44198  -0.44130  -0.43930
 Alpha  occ. eigenvalues --   -0.43831  -0.43766  -0.43626  -0.43512  -0.43387
 Alpha  occ. eigenvalues --   -0.43157  -0.43139  -0.42879  -0.42827  -0.42796
 Alpha  occ. eigenvalues --   -0.42664  -0.42261  -0.42178  -0.41829  -0.41723
 Alpha  occ. eigenvalues --   -0.41648  -0.41454  -0.41263  -0.41232  -0.41009
 Alpha  occ. eigenvalues --   -0.40949  -0.40734  -0.40726  -0.40519  -0.40476
 Alpha  occ. eigenvalues --   -0.40337  -0.40165  -0.40043  -0.39682  -0.39112
 Alpha  occ. eigenvalues --   -0.38639  -0.38006  -0.37859  -0.37477  -0.37456
 Alpha  occ. eigenvalues --   -0.37371  -0.37021  -0.36965  -0.36869  -0.36616
 Alpha  occ. eigenvalues --   -0.36344  -0.35937  -0.34406  -0.34030  -0.33924
 Alpha  occ. eigenvalues --   -0.33736  -0.33311  -0.32953  -0.31481  -0.31161
 Alpha  occ. eigenvalues --   -0.31063  -0.30744  -0.30135  -0.29830  -0.29560
 Alpha  occ. eigenvalues --   -0.29429  -0.29136  -0.29030  -0.24202  -0.23812
 Alpha  occ. eigenvalues --   -0.21246  -0.20891
 Alpha virt. eigenvalues --   -0.08888  -0.08585  -0.01878  -0.01439  -0.00171
 Alpha virt. eigenvalues --    0.00164   0.02081   0.02378   0.02825   0.03501
 Alpha virt. eigenvalues --    0.04602   0.04953   0.04964   0.05278   0.06064

 Mulliken charges:
               1
     1  Mg   0.838908
     2  C   -0.003045
     3  C   -0.093230
     4  C   -0.046639
     5  C   -0.063990
     6  N   -0.256723
     7  C   -0.052348
     8  C   -0.014091
     9  C   -0.087132
    10  C    0.046243
    11  C    0.104704
    12  C    0.053382
    13  C   -0.071769
    14  H    0.035185
    15  N   -0.433196
    16  C    0.168434
    17  C   -0.176387
    18  C   -0.004189
    19  C    0.148595
    20  C    0.109810
    21  C    0.011351
    22  O   -0.250975
    23  C    0.062446
    24  N   -0.340986
    25  C    0.041288
    26  C   -0.028061
    27  C   -0.023793
    28  C    0.074346
    29  C    0.076159
    30  C    0.035363
    31  C   -0.004419
    32  N   -0.310536
    33  C    0.080414
    34  C   -0.169271
    35  C    0.008529
    36  C    0.082986
    37  C    0.127275
    38  C    0.046148
    39  O   -0.188111
    40  C   -0.005456
    41  C    0.213343
    42  O   -0.258366
    43  O   -0.304375
    44  C    0.157947
    45  H   -0.016970
    46  H   -0.017569
    47  H   -0.041666
    48  H    0.001056
    49  H   -0.003406
    50  H    0.025496
    51  H    0.016475
    52  H    0.017132
    53  H    0.011886
    54  H    0.043203
    55  H    0.018180
    56  H    0.018796
    57  H    0.006459
    58  H    0.026985
    59  H    0.041333
    60  H    0.038110
    61  H    0.035138
    62  H    0.032565
    63  H    0.014909
    64  H    0.009858
    65  H    0.022759
    66  H    0.013164
    67  H    0.005024
    68  H    0.005664
    69  H    0.005326
    70  H    0.006314
    71  H    0.016149
    72  H    0.030676
    73  H    0.048268
    74  H    0.008906
    75  H    0.046098
    76  H    0.035509
    77  H    0.043427
    78  H    0.046659
    79  H    0.052364
    80  Mg   0.837689
    81  C   -0.017467
    82  C   -0.088434
    83  C   -0.044780
    84  C   -0.063935
    85  N   -0.254848
    86  C   -0.050094
    87  C   -0.015012
    88  C   -0.090501
    89  C    0.046058
    90  C    0.114794
    91  C    0.062534
    92  C   -0.077665
    93  H    0.033888
    94  N   -0.423716
    95  C    0.163585
    96  C   -0.174937
    97  C   -0.007309
    98  C    0.152340
    99  C    0.099586
   100  C    0.015494
   101  O   -0.252046
   102  C    0.061323
   103  N   -0.350198
   104  C    0.039254
   105  C   -0.021136
   106  C   -0.033943
   107  C    0.089191
   108  C    0.070952
   109  C    0.034537
   110  C   -0.007416
   111  N   -0.323857
   112  C    0.078152
   113  C   -0.163827
   114  C    0.001324
   115  C    0.096263
   116  C    0.131793
   117  C    0.041232
   118  O   -0.189949
   119  C    0.001427
   120  C    0.211153
   121  O   -0.251009
   122  O   -0.305936
   123  C    0.152193
   124  H   -0.019898
   125  H   -0.014176
   126  H   -0.041091
   127  H   -0.001115
   128  H   -0.004782
   129  H    0.022216
   130  H    0.014140
   131  H    0.018673
   132  H    0.013746
   133  H    0.037236
   134  H    0.021187
   135  H    0.019555
   136  H    0.008440
   137  H    0.025222
   138  H    0.039480
   139  H    0.037646
   140  H    0.036355
   141  H    0.033490
   142  H    0.013202
   143  H    0.014398
   144  H    0.024544
   145  H    0.016060
   146  H    0.014388
   147  H    0.006621
   148  H    0.002252
   149  H    0.011018
   150  H    0.016746
   151  H    0.029508
   152  H    0.045191
   153  H    0.008463
   154  H    0.045034
   155  H    0.033185
   156  H    0.043028
   157  H    0.049827
   158  H    0.053418
 Sum of Mulliken charges =  -0.00000

 Dipole moment (field-independent basis, Debye):
    X=              3.0593    Y=              4.1723    Z=              0.9845  Tot=              5.2666
 Quadrupole moment (field-independent basis, Debye-Ang):
   XX=           -525.6005   YY=           -528.1291   ZZ=           -466.5005
   XY=             14.1188   XZ=            -46.5140   YZ=             22.8423

 Normal termination of Gaussian 16 at Thu Sep  9 20:27:06 2021.
