 Gaussian 16, Revision A.03,
 Gaussian 16:  ES64L-G16RevA.03 25-Dec-2016

 -----------------------------------
 #p cam-b3lyp/Def2SVP td=(nstates=5)
 -----------------------------------

 --------------------------------
 TDDFT excited states in gaussian
 --------------------------------
 Symbolic Z-matrix:
 Charge =  0 Multiplicity = 1

                         Standard orientation:
 ---------------------------------------------------------------------
 Center     Atomic      Atomic             Coordinates (Angstroms)
 Number     Number       Type             X           Y           Z
 ---------------------------------------------------------------------
      1         12           0      -15.794411   -0.756334    0.116520
      2          6           0      -15.991328    2.816191    0.218995
      3          6           0      -16.677340   -0.562044   -3.173731
      4          6           0      -16.070479   -3.915513    0.116350
      5          6           0      -16.047063   -0.722636    3.592249
      6          7           0      -16.248218    0.966283   -1.197746
      7          6           0      -16.229566    2.287439   -1.051560
      8          6           0      -16.412381    3.060002   -2.392119
      9          6           0      -17.169002    1.934338   -3.230214
     10          6           0      -16.640609    0.703071   -2.515577
     11          6           0      -18.686036    1.977565   -3.077766
     12          6           0      -15.043615    3.441254   -3.050037
     13          6           0      -15.126395    4.471010   -4.180570
     14          1           0      -14.049644    5.438823   -4.326500
     15          7           0      -15.819853   -2.040093   -1.384868
     16          6           0      -16.191929   -1.785017   -2.662280
     17          6           0      -16.036008   -3.060209   -3.394573
     18          6           0      -15.724722   -4.122170   -2.397861
     19          6           0      -15.887174   -3.397361   -1.163504
     20          6           0      -16.134290   -3.170379   -4.885195
     21          6           0      -15.351874   -5.564436   -2.535644
     22          8           0      -15.351228   -6.365022   -1.538831
     23          6           0      -15.069343   -6.042361   -3.901223
     24          7           0      -16.246022   -2.142394    1.610682
     25          6           0      -16.243208   -3.455703    1.357311
     26          6           0      -16.312859   -4.256285    2.623864
     27          6           0      -16.118332   -3.213396    3.817302
     28          6           0      -16.048449   -1.910504    2.983121
     29          6           0      -17.608968   -5.048393    2.844496
     30          6           0      -14.979944   -3.504624    4.827094
     31          6           0      -13.638593   -3.363516    4.143015
     32          7           0      -15.808223    0.757854    1.671540
     33          6           0      -15.945790    0.548196    3.051320
     34          6           0      -16.006461    1.877538    3.686329
     35          6           0      -15.916051    2.774014    2.623314
     36          6           0      -15.832303    2.050552    1.399435
     37          6           0      -16.188015    2.130397    5.074686
     38          6           0      -15.895513    4.174867    2.234667
     39          8           0      -15.843059    5.243491    2.845227
     40          6           0      -16.066140    4.258771    0.653631
     41          6           0      -15.018959    5.205202    0.133063
     42          8           0      -13.806780    4.915212    0.195453
     43          8           0      -15.613016    6.185230   -0.564922
     44          6           0      -14.627574    7.142835   -1.134177
     45          1           0      -17.174577   -0.638709   -4.142658
     46          1           0      -16.059896   -5.006020    0.172212
     47          1           0      -16.040548   -0.633669    4.680135
     48          1           0      -17.034327    3.952512   -2.321167
     49          1           0      -16.859574    1.927968   -4.275172
     50          1           0      -18.989546    2.694840   -2.315322
     51          1           0      -18.978380    0.967928   -2.788523
     52          1           0      -19.166677    2.165104   -4.038281
     53          1           0      -14.661437    2.585353   -3.606306
     54          1           0      -14.336910    3.789670   -2.296047
     55          1           0      -16.094705    4.972135   -4.193132
     56          1           0      -15.084409    3.938896   -5.130986
     57          1           0      -16.534816   -2.259579   -5.328554
     58          1           0      -16.885793   -3.930012   -5.099460
     59          1           0      -15.184759   -3.454278   -5.339205
     60          1           0      -15.947047   -5.881548   -4.527580
     61          1           0      -14.733759   -7.073412   -3.795549
     62          1           0      -14.271465   -5.435185   -4.329799
     63          1           0      -15.514912   -4.996680    2.662869
     64          1           0      -17.010486   -3.131783    4.438651
     65          1           0      -17.449963   -6.117733    2.985680
     66          1           0      -18.267732   -4.859471    1.997366
     67          1           0      -18.220897   -4.701075    3.676560
     68          1           0      -15.048430   -4.529412    5.190503
     69          1           0      -14.993991   -2.843731    5.693854
     70          1           0      -13.504376   -4.334560    3.667735
     71          1           0      -12.854673   -3.176764    4.877729
     72          1           0      -13.672364   -2.615019    3.351121
     73          1           0      -15.487714    2.924221    5.334286
     74          1           0      -16.007876    1.233786    5.667343
     75          1           0      -17.233706    2.437287    5.088991
     76          1           0      -17.076009    4.622297    0.466185
     77          1           0      -14.905419    8.136440   -0.782348
     78          1           0      -14.616012    6.972205   -2.210819
     79          1           0      -13.607920    7.067818   -0.754680
     80         12           0       15.963259   -0.800727    0.032043
     81          6           0       15.763247    2.767383    0.360167
     82          6           0       15.078776   -0.399948   -3.237765
     83          6           0       15.690916   -3.954971   -0.177691
     84          6           0       15.704158   -0.995179    3.502027
     85          7           0       15.507210    1.000907   -1.167276
     86          6           0       15.523576    2.307645   -0.951562
     87          6           0       15.348199    3.172582   -2.228549
     88          6           0       14.584616    2.097018   -3.144499
     89          6           0       15.111885    0.813791   -2.505754
     90          6           0       13.074505    2.128201   -2.977342
     91          6           0       16.722144    3.592192   -2.859598
     92          6           0       16.633038    4.688178   -3.923842
     93          1           0       17.715872    5.664123   -4.010264
     94          7           0       15.941478   -1.984814   -1.560444
     95          6           0       15.576110   -1.652736   -2.816431
     96          6           0       15.716991   -2.880600   -3.614342
     97          6           0       16.037352   -4.004547   -2.693037
     98          6           0       15.878356   -3.347968   -1.410958
     99          6           0       15.627576   -2.892028   -5.112781
    100          6           0       16.410889   -5.437020   -2.926902
    101          8           0       16.412830   -6.296270   -1.975842
    102          6           0       16.683720   -5.824577   -4.318615
    103          7           0       15.519168   -2.273685    1.430449
    104          6           0       15.516650   -3.573908    1.087911
    105          6           0       15.443941   -4.459523    2.308889
    106          6           0       15.642852   -3.483490    3.560036
    107          6           0       15.709949   -2.130831    2.817605
    108          6           0       14.146877   -5.249646    2.481299
    109          6           0       16.781784   -3.837862    4.554985
    110          6           0       18.125446   -3.665559    3.883971
    111          7           0       15.953915    0.605534    1.672291
    112          6           0       15.809161    0.312678    3.046105
    113          6           0       15.748635    1.603322    3.762362
    114          6           0       15.839960    2.565348    2.745184
    115          6           0       15.929333    1.919971    1.482243
    116          6           0       15.577166    1.768680    5.165699
    117          6           0       15.870368    3.980156    2.451755
    118          8           0       15.915513    5.006850    3.128211
    119          6           0       15.694728    4.175011    0.884086
    120          6           0       16.742041    5.148290    0.416772
    121          8           0       17.948971    4.853930    0.474212
    122          8           0       16.141112    6.170996   -0.218295
    123          6           0       17.139588    7.157433   -0.710048
    124          1           0       14.587872   -0.405430   -4.211342
    125          1           0       15.701238   -5.047370   -0.183407
    126          1           0       15.722422   -0.971420    4.593715
    127          1           0       14.732379    4.054463   -2.098837
    128          1           0       14.902263    2.165069   -4.181721
    129          1           0       12.771013    2.790119   -2.179912
    130          1           0       12.781960    1.110139   -2.755974
    131          1           0       12.595153    2.379636   -3.927784
    132          1           0       17.101918    2.765035   -3.473055
    133          1           0       17.418099    3.884341   -2.097410
    134          1           0       15.659805    5.193819   -3.914335
    135          1           0       16.681885    4.219381   -4.909677
    136          1           0       15.219952   -1.949492   -5.498619
    137          1           0       14.877292   -3.643102   -5.382617
    138          1           0       16.575201   -3.152028   -5.589315
    139          1           0       15.807647   -5.618989   -4.929100
    140          1           0       17.020088   -6.862169   -4.272435
    141          1           0       17.491907   -5.193830   -4.705398
    142          1           0       16.242249   -5.191497    2.303802
    143          1           0       14.746250   -3.448641    4.196216
    144          1           0       14.307441   -6.341952    2.553004
    145          1           0       13.491691   -5.015182    1.652868
    146          1           0       13.543186   -4.964398    3.341182
    147          1           0       16.714304   -4.888049    4.849423
    148          1           0       16.760526   -3.246465    5.464265
    149          1           0       18.254195   -4.608251    3.343740
    150          1           0       18.909024   -3.525629    4.625908
    151          1           0       18.093591   -2.861029    3.140077
    152          1           0       16.270284    2.539519    5.475360
    153          1           0       15.752446    0.837318    5.700127
    154          1           0       14.526783    2.070016    5.199678
    155          1           0       14.684074    4.546940    0.711404
    156          1           0       16.858276    8.130468   -0.295627
    157          1           0       17.138292    7.059830   -1.811971
    158          1           0       18.157741    7.061215   -0.351507
 ---------------------------------------------------------------------

 SCF Done:  E(RCAM-B3LYP) =  -4069.81176480     A.U. after   19 cycles

 Excitation energies and oscillator strengths:

 Excited State   1:      Singlet-A      1.6753 eV  740.07 nm  f=0.2112  <S**2>=0.000
     310 -> 316        0.16854
     311 -> 314       -0.16333
     312 -> 313        0.66633
     310 <- 316        0.10161
 This state for optimization and/or second-order correction.
 Total Energy, E(TD-HF/TD-DFT) =  -4069.75019835
 Copying the excited state density for this state as the 1-particle RhoCI density.

 Excited State   2:      Singlet-A      1.6801 eV  737.95 nm  f=0.5661  <S**2>=0.000
     309 -> 315        0.17056
     311 -> 314        0.66596
     312 -> 313        0.16328
     309 <- 315        0.10212

 Excited State   3:      Singlet-A      2.1861 eV  567.15 nm  f=0.0950  <S**2>=0.000
     310 -> 313        0.64208
     312 -> 316       -0.27294

 Excited State   4:      Singlet-A      2.1925 eV  565.49 nm  f=0.1051  <S**2>=0.000
     309 -> 314        0.64031
     311 -> 315       -0.27814

 Excited State   5:      Singlet-A      3.0659 eV  404.40 nm  f=0.0000  <S**2>=0.000
     311 -> 313        0.70711

 The electronic state is 1-A.
 Alpha  occ. eigenvalues --  -46.87796 -46.87660 -19.26347 -19.26283 -19.19159
 Alpha  occ. eigenvalues --  -19.19019 -19.18815 -19.18715 -19.18168 -19.18050
 Alpha  occ. eigenvalues --  -14.42497 -14.42450 -14.41449 -14.41359 -14.39402
 Alpha  occ. eigenvalues --  -14.39352 -14.38599 -14.38586 -10.39089 -10.39079
 Alpha  occ. eigenvalues --  -10.35449 -10.35393 -10.34388 -10.34227 -10.31754
 Alpha  occ. eigenvalues --  -10.31678 -10.31404 -10.31308 -10.31023 -10.30909
 Alpha  occ. eigenvalues --  -10.30569 -10.30507 -10.30397 -10.30360 -10.30206
 Alpha  occ. eigenvalues --  -10.30141 -10.29920 -10.29894 -10.29630 -10.29437
 Alpha  occ. eigenvalues --  -10.29401 -10.29254 -10.28749 -10.28718 -10.28654
 Alpha  occ. eigenvalues --  -10.28540 -10.28404 -10.28364 -10.28139 -10.28117
 Alpha  occ. eigenvalues --  -10.28000 -10.27792 -10.27727 -10.27669 -10.27584
 Alpha  occ. eigenvalues --  -10.27517 -10.27500 -10.27483 -10.27483 -10.27469
 Alpha  occ. eigenvalues --  -10.27465 -10.27448 -10.27403 -10.27376 -10.27157
 Alpha  occ. eigenvalues --  -10.27049 -10.26706 -10.26692 -10.26417 -10.26412
 Alpha  occ. eigenvalues --  -10.26234 -10.26182 -10.26138 -10.26023 -10.26018
 Alpha  occ. eigenvalues --  -10.25934 -10.25848 -10.25841 -10.25434 -10.25397
 Alpha  occ. eigenvalues --  -10.24872 -10.24832 -10.24787 -10.24732 -10.24690
 Alpha  occ. eigenvalues --  -10.24685  -3.16539  -3.16410  -1.91421  -1.91292
 Alpha  occ. eigenvalues --   -1.91007  -1.90881  -1.90849  -1.90718  -1.16641
 Alpha  occ. eigenvalues --   -1.16632  -1.08656  -1.08626  -1.07217  -1.06968
 Alpha  occ. eigenvalues --   -1.06943  -1.06641  -1.04581  -1.04495  -1.03760
 Alpha  occ. eigenvalues --   -1.03663  -1.03233  -1.03039  -1.02411  -1.02111
 Alpha  occ. eigenvalues --   -0.91986  -0.91971  -0.89519  -0.89494  -0.89188
 Alpha  occ. eigenvalues --   -0.89150  -0.88286  -0.88220  -0.87869  -0.87793
 Alpha  occ. eigenvalues --   -0.87684  -0.87673  -0.87274  -0.87121  -0.84999
 Alpha  occ. eigenvalues --   -0.84982  -0.83935  -0.83876  -0.82968  -0.82933
 Alpha  occ. eigenvalues --   -0.82652  -0.82649  -0.81595  -0.81585  -0.80596
 Alpha  occ. eigenvalues --   -0.80442  -0.78797  -0.78636  -0.77218  -0.77144
 Alpha  occ. eigenvalues --   -0.76934  -0.76898  -0.75923  -0.75838  -0.74897
 Alpha  occ. eigenvalues --   -0.74802  -0.72774  -0.72699  -0.71672  -0.71580
 Alpha  occ. eigenvalues --   -0.69906  -0.69758  -0.68873  -0.68827  -0.67641
 Alpha  occ. eigenvalues --   -0.67601  -0.67220  -0.67200  -0.65286  -0.65271
 Alpha  occ. eigenvalues --   -0.64853  -0.64770  -0.64653  -0.64620  -0.64268
 Alpha  occ. eigenvalues --   -0.64204  -0.62297  -0.62277  -0.60442  -0.60340
 Alpha  occ. eigenvalues --   -0.59804  -0.59796  -0.58992  -0.58987  -0.58503
 Alpha  occ. eigenvalues --   -0.58425  -0.57583  -0.57553  -0.57308  -0.57236
 Alpha  occ. eigenvalues --   -0.56309  -0.56204  -0.55978  -0.55885  -0.55520
 Alpha  occ. eigenvalues --   -0.55452  -0.55338  -0.55247  -0.54522  -0.54487
 Alpha  occ. eigenvalues --   -0.53912  -0.53895  -0.53298  -0.53227  -0.53222
 Alpha  occ. eigenvalues --   -0.53141  -0.52914  -0.52902  -0.52757  -0.52669
 Alpha  occ. eigenvalues --   -0.52437  -0.52401  -0.51913  -0.51883  -0.51658
 Alpha  occ. eigenvalues --   -0.51617  -0.51200  -0.51195  -0.50573  -0.50476
 Alpha  occ. eigenvalues --   -0.50031  -0.49980  -0.49919  -0.49867  -0.49515
 Alpha  occ. eigenvalues --   -0.49488  -0.49214  -0.49202  -0.49103  -0.49096
 Alpha  occ. eigenvalues --   -0.48592  -0.48557  -0.48461  -0.48445  -0.48375
 Alpha  occ. eigenvalues --   -0.48339  -0.47695  -0.47594  -0.47297  -0.47118
 Alpha  occ. eigenvalues --   -0.46796  -0.46709  -0.46555  -0.46553  -0.46358
 Alpha  occ. eigenvalues --   -0.46270  -0.46161  -0.46085  -0.45821  -0.45821
 Alpha  occ. eigenvalues --   -0.45208  -0.45200  -0.44577  -0.44513  -0.44507
 Alpha  occ. eigenvalues --   -0.44476  -0.44144  -0.44127  -0.44088  -0.44078
 Alpha  occ. eigenvalues --   -0.44019  -0.43939  -0.43552  -0.43494  -0.43385
 Alpha  occ. eigenvalues --   -0.43385  -0.43026  -0.42929  -0.42900  -0.42698
 Alpha  occ. eigenvalues --   -0.42654  -0.42554  -0.42009  -0.41964  -0.41703
 Alpha  occ. eigenvalues --   -0.41668  -0.41534  -0.41458  -0.41140  -0.40989
 Alpha  occ. eigenvalues --   -0.40869  -0.40824  -0.40723  -0.40699  -0.40570
 Alpha  occ. eigenvalues --   -0.40493  -0.40235  -0.40227  -0.39440  -0.39426
 Alpha  occ. eigenvalues --   -0.38468  -0.38350  -0.37749  -0.37654  -0.37319
 Alpha  occ. eigenvalues --   -0.37266  -0.37263  -0.37199  -0.36770  -0.36712
 Alpha  occ. eigenvalues --   -0.36216  -0.36192  -0.34285  -0.34253  -0.33860
 Alpha  occ. eigenvalues --   -0.33769  -0.33186  -0.33175  -0.31345  -0.31274
 Alpha  occ. eigenvalues --   -0.31035  -0.30973  -0.30028  -0.29954  -0.29449
 Alpha  occ. eigenvalues --   -0.29327  -0.29321  -0.29211  -0.24080  -0.24036
 Alpha  occ. eigenvalues --   -0.21127  -0.21117
 Alpha virt. eigenvalues --   -0.08792  -0.08774  -0.01749  -0.01684  -0.00058
 Alpha virt. eigenvalues --   -0.00029   0.02201   0.02208   0.03123   0.03228
 Alpha virt. eigenvalues --    0.04718   0.04730   0.05099   0.05167   0.06176

 Mulliken charges:
               1
     1  Mg   0.838751
     2  C   -0.002983
     3  C   -0.094128
     4  C   -0.045869
     5  C   -0.063967
     6  N   -0.256769
     7  C   -0.052457
     8  C   -0.014023
     9  C   -0.086997
    10  C    0.046318
    11  C    0.104812
    12  C    0.053477
    13  C   -0.071795
    14  H    0.036113
    15  N   -0.433137
    16  C    0.168426
    17  C   -0.177172
    18  C   -0.004007
    19  C    0.148702
    20  C    0.110183
    21  C    0.012275
    22  O   -0.249623
    23  C    0.062481
    24  N   -0.341173
    25  C    0.041257
    26  C   -0.028170
    27  C   -0.024007
    28  C    0.074890
    29  C    0.076166
    30  C    0.035121
    31  C   -0.004506
    32  N   -0.310473
    33  C    0.080413
    34  C   -0.169698
    35  C    0.008361
    36  C    0.082980
    37  C    0.127307
    38  C    0.046133
    39  O   -0.188412
    40  C   -0.005313
    41  C    0.212858
    42  O   -0.257099
    43  O   -0.304794
    44  C    0.157691
    45  H   -0.017616
    46  H   -0.016838
    47  H   -0.041472
    48  H    0.000945
    49  H   -0.004049
    50  H    0.025481
    51  H    0.016451
    52  H    0.016650
    53  H    0.011190
    54  H    0.044126
    55  H    0.017879
    56  H    0.017931
    57  H    0.005864
    58  H    0.026819
    59  H    0.039523
    60  H    0.037343
    61  H    0.035640
    62  H    0.031482
    63  H    0.016554
    64  H    0.009472
    65  H    0.023213
    66  H    0.012543
    67  H    0.004762
    68  H    0.006375
    69  H    0.004749
    70  H    0.008773
    71  H    0.018164
    72  H    0.028973
    73  H    0.047596
    74  H    0.009126
    75  H    0.046018
    76  H    0.035153
    77  H    0.042962
    78  H    0.046383
    79  H    0.053695
    80  Mg   0.837907
    81  C   -0.016820
    82  C   -0.087782
    83  C   -0.045515
    84  C   -0.064865
    85  N   -0.254587
    86  C   -0.049826
    87  C   -0.015099
    88  C   -0.090509
    89  C    0.045766
    90  C    0.114371
    91  C    0.062524
    92  C   -0.077894
    93  H    0.034898
    94  N   -0.423506
    95  C    0.162917
    96  C   -0.174632
    97  C   -0.007811
    98  C    0.152129
    99  C    0.099369
   100  C    0.015565
   101  O   -0.253183
   102  C    0.061202
   103  N   -0.350075
   104  C    0.037526
   105  C   -0.019851
   106  C   -0.034809
   107  C    0.088921
   108  C    0.073640
   109  C    0.034736
   110  C   -0.007683
   111  N   -0.324114
   112  C    0.078449
   113  C   -0.163101
   114  C    0.002256
   115  C    0.096180
   116  C    0.131487
   117  C    0.042411
   118  O   -0.187821
   119  C    0.000917
   120  C    0.211261
   121  O   -0.251046
   122  O   -0.305611
   123  C    0.152033
   124  H   -0.019667
   125  H   -0.015570
   126  H   -0.040426
   127  H   -0.000613
   128  H   -0.004340
   129  H    0.022508
   130  H    0.014438
   131  H    0.016288
   132  H    0.013905
   133  H    0.037679
   134  H    0.020809
   135  H    0.019576
   136  H    0.008757
   137  H    0.026135
   138  H    0.039781
   139  H    0.038247
   140  H    0.036388
   141  H    0.033890
   142  H    0.014395
   143  H    0.012460
   144  H    0.025139
   145  H    0.011656
   146  H    0.005718
   147  H    0.006271
   148  H    0.003669
   149  H    0.010927
   150  H    0.017936
   151  H    0.030092
   152  H    0.046018
   153  H    0.008519
   154  H    0.047012
   155  H    0.035078
   156  H    0.043944
   157  H    0.049485
   158  H    0.053572
 Sum of Mulliken charges =  -0.00000

 Dipole moment (field-independent basis, Debye):
    X=             -4.0232    Y=             -2.4422    Z=             -7.7441  Tot=              9.0621
 Quadrupole moment (field-independent basis, Debye-Ang):
   XX=           -516.1990   YY=           -551.6781   ZZ=           -447.2303
   XY=              0.1719   XZ=              0.1519   YZ=            -48.5490

 Normal termination of Gaussian 16 at Sat Sep  4 20:12:03 2021.
