 Gaussian 16, Revision A.03,
 Gaussian 16:  ES64L-G16RevA.03 25-Dec-2016

 -----------------------------------
 #p cam-b3lyp/Def2SVP td=(nstates=5)
 -----------------------------------

 --------------------------------
 TDDFT excited states in gaussian
 --------------------------------
 Symbolic Z-matrix:
 Charge =  0 Multiplicity = 1

                         Standard orientation:
 ---------------------------------------------------------------------
 Center     Atomic      Atomic             Coordinates (Angstroms)
 Number     Number       Type             X           Y           Z
 ---------------------------------------------------------------------
      1         12           0        5.373792   -0.551730    0.873359
      2          6           0        5.848259    2.389178   -1.111120
      3          6           0        5.772989    1.422776    3.627453
      4          6           0        5.411589   -3.193313    2.627563
      5          6           0        6.138869   -2.415215   -1.970536
      6          7           0        5.755063    1.617087    1.100327
      7          6           0        5.856306    2.643870    0.262093
      8          6           0        5.895925    4.025995    0.980100
      9          6           0        6.434803    3.554302    2.404570
     10          6           0        5.927865    2.122928    2.394232
     11          6           0        7.956693    3.535670    2.504600
     12          6           0        4.477101    4.678830    1.091799
     13          6           0        4.468170    6.159973    1.481015
     14          1           0        3.456501    7.030343    0.901076
     15          7           0        5.081844   -0.807625    2.810401
     16          6           0        5.279044    0.110017    3.787300
     17          6           0        4.922467   -0.561724    5.055486
     18          6           0        4.683878   -2.001101    4.756548
     19          6           0        5.080212   -2.064299    3.372965
     20          6           0        4.791040    0.161126    6.360846
     21          6           0        4.188775   -3.141250    5.589054
     22          8           0        4.275964   -4.355895    5.199683
     23          6           0        3.672953   -2.801851    6.927627
     24          7           0        5.937032   -2.519817    0.464670
     25          6           0        5.799368   -3.481945    1.383551
     26          6           0        5.995731   -4.842450    0.783214
     27          6           0        6.057557   -4.623494   -0.797289
     28          6           0        5.962109   -3.078058   -0.825345
     29          6           0        7.247815   -5.602273    1.242524
     30          6           0        5.062375   -5.439716   -1.659735
     31          6           0        3.648904   -4.973294   -1.392066
     32          7           0        5.729476   -0.131305   -1.226112
     33          6           0        6.053400   -1.057232   -2.228313
     34          6           0        6.305686   -0.288821   -3.461182
     35          6           0        6.126030    1.040584   -3.084020
     36          6           0        5.808966    1.100664   -1.696882
     37          6           0        6.708581   -0.831099   -4.713397
     38          6           0        6.152327    2.425922   -3.524480
     39          8           0        6.270084    2.987125   -4.614745
     40          6           0        6.093297    3.362055   -2.237624
     41          6           0        5.053866    4.419473   -2.492099
     42          8           0        3.846058    4.119834   -2.585813
     43          8           0        5.609380    5.632494   -2.348824
     44          6           0        4.624475    6.726992   -2.559039
     45          1           0        6.114575    1.896498    4.549867
     46          1           0        5.328476   -4.137641    3.169571
     47          1           0        6.299738   -2.934373   -2.917135
     48          1           0        6.586029    4.746662    0.540987
     49          1           0        5.974809    4.113339    3.219189
     50          1           0        8.421878    3.726280    1.537547
     51          1           0        8.212813    2.537415    2.860104
     52          1           0        8.302761    4.225849    3.274448
     53          1           0        3.954497    4.258112    1.950835
     54          1           0        3.917347    4.546149    0.165302
     55          1           0        5.458493    6.604765    1.379373
     56          1           0        4.246887    6.231941    2.545934
     57          1           0        5.188160    1.173602    6.299734
     58          1           0        5.444182   -0.344369    7.071894
     59          1           0        3.766442    0.153255    6.732960
     60          1           0        4.457998   -2.308973    7.501496
     61          1           0        3.281080   -3.729615    7.343007
     62          1           0        2.867807   -2.074205    6.821709
     63          1           0        5.159577   -5.498954    1.020439
     64          1           0        7.035274   -4.877478   -1.207456
     65          1           0        7.032495   -6.578194    1.678324
     66          1           0        7.786406   -4.969474    1.947347
     67          1           0        8.000005   -5.753848    0.468798
     68          1           0        5.107547   -6.495312   -1.393985
     69          1           0        5.253304   -5.358667   -2.729889
     70          1           0        3.374267   -5.530038   -0.496833
     71          1           0        2.998153   -5.232345   -2.227904
     72          1           0        3.620786   -3.913479   -1.138120
     73          1           0        6.115171   -0.320737   -5.471925
     74          1           0        6.551923   -1.909031   -4.746919
     75          1           0        7.764773   -0.562256   -4.719435
     76          1           0        7.088563    3.787758   -2.113753
     77          1           0        5.024204    7.372680   -3.341049
     78          1           0        4.441378    7.171259   -1.580516
     79          1           0        3.669338    6.438037   -2.998990
     80         12           0       -5.062198   -0.742090   -0.830286
     81          6           0       -7.307153    1.530837    0.804669
     82          6           0       -3.792234    1.947845   -2.499431
     83          6           0       -3.386459   -2.763824   -2.611269
     84          6           0       -7.227310   -3.316855    0.079986
     85          7           0       -5.566951    1.410522   -0.768954
     86          6           0       -6.395674    2.166144   -0.064255
     87          6           0       -6.184316    3.693374   -0.244407
     88          6           0       -5.484746    3.670484   -1.689723
     89          6           0       -4.876495    2.270242   -1.644717
     90          6           0       -6.476988    3.723493   -2.839508
     91          6           0       -5.231027    4.297542    0.845658
     92          6           0       -5.224672    5.826070    0.918603
     93          1           0       -5.073262    6.459908    2.225429
     94          7           0       -3.461608   -0.433679   -1.962341
     95          6           0       -3.084897    0.726227   -2.540241
     96          6           0       -1.852116    0.423526   -3.283725
     97          6           0       -1.622273   -1.045926   -3.232506
     98          6           0       -2.852578   -1.483400   -2.603959
     99          6           0       -0.981994    1.488903   -3.884790
    100          6           0       -0.489027   -1.915002   -3.687083
    101          8           0       -0.604592   -3.189506   -3.758523
    102          6           0        0.728663   -1.223491   -4.134888
    103          7           0       -5.377296   -2.717683   -1.396046
    104          6           0       -4.466588   -3.380052   -2.130753
    105          6           0       -4.776003   -4.857264   -2.180806
    106          6           0       -5.953124   -5.085753   -1.122613
    107          6           0       -6.191846   -3.622513   -0.689784
    108          6           0       -5.204285   -5.401417   -3.543472
    109          6           0       -5.710943   -6.152596   -0.019965
    110          6           0       -4.617053   -5.689345    0.915023
    111          7           0       -6.830080   -0.926525    0.397980
    112          6           0       -7.594977   -2.092131    0.622445
    113          6           0       -8.765329   -1.695650    1.432086
    114          6           0       -8.610991   -0.311828    1.604404
    115          6           0       -7.438704    0.126782    0.931459
    116          6           0       -9.811403   -2.560313    1.861261
    117          6           0       -9.178885    0.879390    2.193639
    118          8           0      -10.121142    1.109728    2.950497
    119          6           0       -8.427844    2.146258    1.595826
    120          6           0       -8.062781    3.052331    2.739625
    121          8           0       -7.240844    2.686535    3.598233
    122          8           0       -8.575040    4.275767    2.513421
    123          6           0       -8.230389    5.213220    3.615328
    124          1           0       -3.478220    2.684413   -3.239531
    125          1           0       -2.786485   -3.521940   -3.119966
    126          1           0       -7.896681   -4.077627    0.487208
    127          1           0       -7.096392    4.276880   -0.281980
    128          1           0       -4.704038    4.423176   -1.762622
    129          1           0       -7.497582    3.648360   -2.494704
    130          1           0       -6.231093    2.885937   -3.479112
    131          1           0       -6.309308    4.621478   -3.441030
    132          1           0       -4.189423    4.119272    0.548969
    133          1           0       -5.452256    3.890532    1.813143
    134          1           0       -6.066606    6.268312    0.372218
    135          1           0       -4.340604    6.194899    0.392858
    136          1           0       -1.491436    2.460223   -3.905232
    137          1           0       -0.844962    1.231805   -4.940727
    138          1           0       -0.002278    1.552123   -3.406431
    139          1           0        0.483990   -0.559532   -4.960570
    140          1           0        1.455850   -2.012673   -4.335593
    141          1           0        1.091409   -0.589524   -3.318120
    142          1           0       -3.915583   -5.442966   -1.881244
    143          1           0       -6.879177   -5.424336   -1.610073
    144          1           0       -4.564784   -6.229398   -3.903422
    145          1           0       -5.203669   -4.584467   -4.252782
    146          1           0       -6.233017   -5.753545   -3.597541
    147          1           0       -5.362193   -7.086805   -0.466942
    148          1           0       -6.598560   -6.384359    0.559200
    149          1           0       -3.702909   -5.975206    0.386142
    150          1           0       -4.692958   -6.196749    1.874619
    151          1           0       -4.615808   -4.597163    1.008764
    152          1           0      -10.016508   -2.312048    2.894121
    153          1           0       -9.533158   -3.606317    1.750707
    154          1           0      -10.602455   -2.270147    1.164621
    155          1           0       -9.107793    2.628481    0.892476
    156          1           0       -9.172291    5.624762    3.991029
    157          1           0       -7.505038    5.928133    3.183458
    158          1           0       -7.808718    4.790345    4.519664
 ---------------------------------------------------------------------

 SCF Done:  E(RCAM-B3LYP) =  -4069.81320776     A.U. after   18 cycles

 Excitation energies and oscillator strengths:

 Excited State   1:      Singlet-A      1.6547 eV  749.27 nm  f=0.1371  <S**2>=0.000
     309 -> 315        0.11668
     310 -> 316        0.12264
     311 -> 313       -0.47235
     312 -> 314        0.49919
 This state for optimization and/or second-order correction.
 Total Energy, E(TD-HF/TD-DFT) =  -4069.75239778
 Copying the excited state density for this state as the 1-particle RhoCI density.

 Excited State   2:      Singlet-A      1.6976 eV  730.34 nm  f=0.6123  <S**2>=0.000
     309 -> 315       -0.13115
     310 -> 316        0.12308
     311 -> 313        0.49727
     312 -> 314        0.47074

 Excited State   3:      Singlet-A      2.1874 eV  566.81 nm  f=0.0098  <S**2>=0.000
     309 -> 313       -0.35264
     310 -> 314        0.53794
     311 -> 315       -0.14900
     312 -> 316       -0.22867

 Excited State   4:      Singlet-A      2.1966 eV  564.44 nm  f=0.1710  <S**2>=0.000
     309 -> 313        0.53528
     310 -> 314        0.34982
     311 -> 315        0.23510
     312 -> 316       -0.15348

 Excited State   5:      Singlet-A      2.4747 eV  501.01 nm  f=0.0000  <S**2>=0.000
     312 -> 313        0.70689

 The electronic state is 1-A.
 Alpha  occ. eigenvalues --  -46.87893 -46.87435 -19.26590 -19.26244 -19.19362
 Alpha  occ. eigenvalues --  -19.19042 -19.18845 -19.18413 -19.18347 -19.17851
 Alpha  occ. eigenvalues --  -14.42549 -14.42275 -14.41517 -14.41137 -14.39489
 Alpha  occ. eigenvalues --  -14.39113 -14.38708 -14.38376 -10.39398 -10.38966
 Alpha  occ. eigenvalues --  -10.35473 -10.35065 -10.34572 -10.34034 -10.31996
 Alpha  occ. eigenvalues --  -10.31685 -10.31528 -10.31098 -10.31015 -10.30778
 Alpha  occ. eigenvalues --  -10.30684 -10.30600 -10.30233 -10.30182 -10.30126
 Alpha  occ. eigenvalues --  -10.29991 -10.29894 -10.29726 -10.29706 -10.29330
 Alpha  occ. eigenvalues --  -10.29170 -10.29131 -10.28892 -10.28730 -10.28545
 Alpha  occ. eigenvalues --  -10.28532 -10.28482 -10.28239 -10.28158 -10.27939
 Alpha  occ. eigenvalues --  -10.27901 -10.27818 -10.27749 -10.27669 -10.27520
 Alpha  occ. eigenvalues --  -10.27517 -10.27437 -10.27424 -10.27419 -10.27355
 Alpha  occ. eigenvalues --  -10.27335 -10.27264 -10.27207 -10.27177 -10.26891
 Alpha  occ. eigenvalues --  -10.26874 -10.26823 -10.26539 -10.26390 -10.26340
 Alpha  occ. eigenvalues --  -10.26077 -10.25993 -10.25977 -10.25963 -10.25907
 Alpha  occ. eigenvalues --  -10.25834 -10.25707 -10.25667 -10.25416 -10.25251
 Alpha  occ. eigenvalues --  -10.24960 -10.24861 -10.24636 -10.24570 -10.24474
 Alpha  occ. eigenvalues --  -10.24348  -3.16636  -3.16186  -1.91518  -1.91104
 Alpha  occ. eigenvalues --   -1.91069  -1.90947  -1.90657  -1.90493  -1.16941
 Alpha  occ. eigenvalues --   -1.16534  -1.08822  -1.08471  -1.07241  -1.06972
 Alpha  occ. eigenvalues --   -1.06825  -1.06667  -1.04687  -1.04270  -1.03836
 Alpha  occ. eigenvalues --   -1.03437  -1.03327  -1.02811  -1.02503  -1.01882
 Alpha  occ. eigenvalues --   -0.92107  -0.91773  -0.89525  -0.89312  -0.89289
 Alpha  occ. eigenvalues --   -0.88958  -0.88277  -0.88028  -0.87986  -0.87767
 Alpha  occ. eigenvalues --   -0.87577  -0.87458  -0.87332  -0.86736  -0.85100
 Alpha  occ. eigenvalues --   -0.84796  -0.83915  -0.83695  -0.82967  -0.82746
 Alpha  occ. eigenvalues --   -0.82619  -0.82359  -0.81759  -0.81425  -0.80713
 Alpha  occ. eigenvalues --   -0.80227  -0.78873  -0.78314  -0.77287  -0.77043
 Alpha  occ. eigenvalues --   -0.76905  -0.76724  -0.76052  -0.75620  -0.74920
 Alpha  occ. eigenvalues --   -0.74605  -0.72858  -0.72466  -0.71763  -0.71374
 Alpha  occ. eigenvalues --   -0.69812  -0.69573  -0.68979  -0.68609  -0.67742
 Alpha  occ. eigenvalues --   -0.67377  -0.67336  -0.66958  -0.65416  -0.65077
 Alpha  occ. eigenvalues --   -0.64977  -0.64711  -0.64564  -0.64459  -0.64271
 Alpha  occ. eigenvalues --   -0.64007  -0.62478  -0.62116  -0.60491  -0.60024
 Alpha  occ. eigenvalues --   -0.59924  -0.59585  -0.59081  -0.58781  -0.58606
 Alpha  occ. eigenvalues --   -0.58208  -0.57785  -0.57378  -0.57368  -0.56997
 Alpha  occ. eigenvalues --   -0.56426  -0.56178  -0.55957  -0.55704  -0.55608
 Alpha  occ. eigenvalues --   -0.55409  -0.55182  -0.55064  -0.54606  -0.54323
 Alpha  occ. eigenvalues --   -0.54028  -0.53717  -0.53370  -0.53331  -0.53060
 Alpha  occ. eigenvalues --   -0.53003  -0.52890  -0.52821  -0.52700  -0.52320
 Alpha  occ. eigenvalues --   -0.52285  -0.52214  -0.52040  -0.51738  -0.51687
 Alpha  occ. eigenvalues --   -0.51406  -0.51291  -0.51000  -0.50587  -0.50068
 Alpha  occ. eigenvalues --   -0.50038  -0.49933  -0.49672  -0.49620  -0.49614
 Alpha  occ. eigenvalues --   -0.49335  -0.49218  -0.49214  -0.48934  -0.48905
 Alpha  occ. eigenvalues --   -0.48748  -0.48542  -0.48481  -0.48356  -0.48193
 Alpha  occ. eigenvalues --   -0.48020  -0.47768  -0.47373  -0.47335  -0.46863
 Alpha  occ. eigenvalues --   -0.46824  -0.46682  -0.46498  -0.46453  -0.46337
 Alpha  occ. eigenvalues --   -0.46246  -0.46016  -0.45981  -0.45883  -0.45650
 Alpha  occ. eigenvalues --   -0.45206  -0.45012  -0.44721  -0.44559  -0.44320
 Alpha  occ. eigenvalues --   -0.44260  -0.44246  -0.44141  -0.44091  -0.43920
 Alpha  occ. eigenvalues --   -0.43850  -0.43653  -0.43612  -0.43461  -0.43391
 Alpha  occ. eigenvalues --   -0.43180  -0.43123  -0.42940  -0.42771  -0.42691
 Alpha  occ. eigenvalues --   -0.42616  -0.42323  -0.42013  -0.41802  -0.41779
 Alpha  occ. eigenvalues --   -0.41625  -0.41463  -0.41263  -0.41234  -0.40949
 Alpha  occ. eigenvalues --   -0.40869  -0.40782  -0.40551  -0.40518  -0.40427
 Alpha  occ. eigenvalues --   -0.40371  -0.40309  -0.40015  -0.39315  -0.39245
 Alpha  occ. eigenvalues --   -0.38476  -0.38168  -0.37890  -0.37481  -0.37397
 Alpha  occ. eigenvalues --   -0.37343  -0.37065  -0.36980  -0.36946  -0.36639
 Alpha  occ. eigenvalues --   -0.36289  -0.36036  -0.34391  -0.34074  -0.34036
 Alpha  occ. eigenvalues --   -0.33723  -0.33291  -0.32952  -0.31377  -0.31128
 Alpha  occ. eigenvalues --   -0.30980  -0.30748  -0.30213  -0.29764  -0.29546
 Alpha  occ. eigenvalues --   -0.29437  -0.29059  -0.28964  -0.24179  -0.23815
 Alpha  occ. eigenvalues --   -0.21217  -0.20879
 Alpha virt. eigenvalues --   -0.08867  -0.08541  -0.01824  -0.01457  -0.00140
 Alpha virt. eigenvalues --    0.00254   0.02074   0.02420   0.02882   0.03435
 Alpha virt. eigenvalues --    0.04608   0.04808   0.04926   0.05300   0.06012

 Mulliken charges:
               1
     1  Mg   0.837434
     2  C   -0.004436
     3  C   -0.094123
     4  C   -0.045129
     5  C   -0.063455
     6  N   -0.256989
     7  C   -0.052837
     8  C   -0.013949
     9  C   -0.087077
    10  C    0.046482
    11  C    0.104716
    12  C    0.053457
    13  C   -0.071582
    14  H    0.034549
    15  N   -0.433394
    16  C    0.168907
    17  C   -0.176652
    18  C   -0.003319
    19  C    0.149058
    20  C    0.110004
    21  C    0.012954
    22  O   -0.248794
    23  C    0.062140
    24  N   -0.341407
    25  C    0.041890
    26  C   -0.028263
    27  C   -0.023853
    28  C    0.075353
    29  C    0.076132
    30  C    0.034653
    31  C   -0.005931
    32  N   -0.309803
    33  C    0.078720
    34  C   -0.171223
    35  C    0.007271
    36  C    0.080524
    37  C    0.127638
    38  C    0.043914
    39  O   -0.189704
    40  C   -0.004633
    41  C    0.213550
    42  O   -0.261254
    43  O   -0.303821
    44  C    0.158149
    45  H   -0.017236
    46  H   -0.015998
    47  H   -0.040743
    48  H    0.000772
    49  H   -0.003750
    50  H    0.025460
    51  H    0.016829
    52  H    0.016990
    53  H    0.011804
    54  H    0.042048
    55  H    0.018302
    56  H    0.018804
    57  H    0.005961
    58  H    0.027268
    59  H    0.040818
    60  H    0.037287
    61  H    0.036402
    62  H    0.032463
    63  H    0.017668
    64  H    0.009141
    65  H    0.023587
    66  H    0.012104
    67  H    0.004905
    68  H    0.006306
    69  H    0.004735
    70  H    0.008109
    71  H    0.027723
    72  H    0.026278
    73  H    0.045839
    74  H    0.010161
    75  H    0.046294
    76  H    0.035649
    77  H    0.043396
    78  H    0.047046
    79  H    0.051440
    80  Mg   0.836872
    81  C   -0.017017
    82  C   -0.086365
    83  C   -0.045830
    84  C   -0.065054
    85  N   -0.254456
    86  C   -0.050627
    87  C   -0.015059
    88  C   -0.090500
    89  C    0.045364
    90  C    0.114362
    91  C    0.062364
    92  C   -0.077347
    93  H    0.033032
    94  N   -0.423693
    95  C    0.162650
    96  C   -0.173316
    97  C   -0.008043
    98  C    0.152222
    99  C    0.097509
   100  C    0.014534
   101  O   -0.255969
   102  C    0.061043
   103  N   -0.350054
   104  C    0.037910
   105  C   -0.019801
   106  C   -0.034502
   107  C    0.088388
   108  C    0.073878
   109  C    0.034908
   110  C   -0.007470
   111  N   -0.323813
   112  C    0.077560
   113  C   -0.163909
   114  C    0.001835
   115  C    0.095529
   116  C    0.131662
   117  C    0.041721
   118  O   -0.189253
   119  C    0.001088
   120  C    0.211173
   121  O   -0.251634
   122  O   -0.305516
   123  C    0.152328
   124  H   -0.018452
   125  H   -0.016180
   126  H   -0.041237
   127  H   -0.001211
   128  H   -0.003750
   129  H    0.022057
   130  H    0.014671
   131  H    0.016261
   132  H    0.014534
   133  H    0.036991
   134  H    0.020668
   135  H    0.019825
   136  H    0.009098
   137  H    0.026446
   138  H    0.052540
   139  H    0.040578
   140  H    0.033463
   141  H    0.040445
   142  H    0.013926
   143  H    0.011893
   144  H    0.024446
   145  H    0.011791
   146  H    0.005374
   147  H    0.005616
   148  H    0.003269
   149  H    0.010784
   150  H    0.017611
   151  H    0.030296
   152  H    0.045170
   153  H    0.007996
   154  H    0.046323
   155  H    0.034620
   156  H    0.043493
   157  H    0.049303
   158  H    0.052912
 Sum of Mulliken charges =  -0.00000

 Dipole moment (field-independent basis, Debye):
    X=              3.6227    Y=              3.0283    Z=              0.8874  Tot=              4.8044
 Quadrupole moment (field-independent basis, Debye-Ang):
   XX=           -533.6079   YY=           -464.1621   ZZ=           -519.5971
   XY=              8.3912   XZ=             52.3424   YZ=             21.6838

 Normal termination of Gaussian 16 at Fri Sep 10 10:53:35 2021.
