 Gaussian 16, Revision A.03,
 Gaussian 16:  ES64L-G16RevA.03 25-Dec-2016

 -----------------------------------
 #p cam-b3lyp/Def2SVP td=(nstates=5)
 -----------------------------------

 --------------------------------
 TDDFT excited states in gaussian
 --------------------------------
 Symbolic Z-matrix:
 Charge =  0 Multiplicity = 1

                         Standard orientation:
 ---------------------------------------------------------------------
 Center     Atomic      Atomic             Coordinates (Angstroms)
 Number     Number       Type             X           Y           Z
 ---------------------------------------------------------------------
      1         12           0       -6.574871   -0.666340   -0.399754
      2          6           0       -6.934664    1.911941    2.056917
      3          6           0       -7.316109    1.684396   -2.759347
      4          6           0       -6.710089   -3.008207   -2.533764
      5          6           0       -6.985434   -2.975597    2.177925
      6          7           0       -7.044927    1.491495   -0.246640
      7          6           0       -7.091581    2.372502    0.747755
      8          6           0       -7.247813    3.844611    0.262100
      9          6           0       -7.915090    3.571104   -1.159847
     10          6           0       -7.365346    2.180187   -1.422635
     11          6           0       -9.437881    3.496837   -1.114105
     12          6           0       -5.869020    4.572440    0.117437
     13          6           0       -5.946321    6.094405   -0.034226
     14          1           0       -4.908121    6.912429    0.574318
     15          7           0       -6.475471   -0.609779   -2.372004
     16          6           0       -6.800455    0.435932   -3.169600
     17          6           0       -6.555159   -0.017051   -4.555716
     18          6           0       -6.242339   -1.472442   -4.510161
     19          6           0       -6.492380   -1.764446   -3.121784
     20          6           0       -6.581053    0.901837   -5.738393
     21          6           0       -5.799972   -2.447826   -5.554703
     22          8           0       -5.808780   -3.710389   -5.353626
     23          6           0       -5.435133   -1.884443   -6.867156
     24          7           0       -7.031484   -2.697889   -0.251615
     25          6           0       -6.958917   -3.501062   -1.318682
     26          6           0       -7.050059   -4.944906   -0.922517
     27          6           0       -6.956114   -4.972780    0.671268
     28          6           0       -6.906567   -3.446965    0.931466
     29          6           0       -8.318353   -5.683441   -1.371971
     30          6           0       -5.852669   -5.863611    1.295166
     31          6           0       -4.489392   -5.296260    0.968538
     32          7           0       -6.726102   -0.588240    1.764056
     33          6           0       -6.916376   -1.670347    2.635557
     34          6           0       -7.064626   -1.111670    3.992012
     35          6           0       -6.966214    0.266641    3.811964
     36          6           0       -6.795253    0.552404    2.427261
     37          6           0       -7.319725   -1.856880    5.176926
     38          6           0       -6.990378    1.565799    4.464238
     39          8           0       -7.013048    1.947967    5.635104
     40          6           0       -7.093008    2.689030    3.340117
     41          6           0       -6.066455    3.742659    3.655337
     42          8           0       -4.846647    3.489015    3.583914
     43          8           0       -6.671326    4.936031    3.757977
     44          6           0       -5.704685    6.030469    4.040759
     45          1           0       -7.765199    2.276813   -3.558910
     46          1           0       -6.653625   -3.853858   -3.222330
     47          1           0       -7.031998   -3.640043    3.042677
     48          1           0       -7.911347    4.456794    0.873148
     49          1           0       -7.558823    4.268764   -1.917518
     50          1           0       -9.807056    3.515721   -0.088788
     51          1           0       -9.697863    2.553641   -1.595023
     52          1           0       -9.882520    4.279453   -1.729398
     53          1           0       -5.424488    4.312602   -0.843258
     54          1           0       -5.213247    4.326268    0.953312
     55          1           0       -6.934374    6.471702    0.230931
     56          1           0       -5.837881    6.338267   -1.091095
     57          1           0       -7.001204    1.873455   -5.481532
     58          1           0       -7.287642    0.480774   -6.453339
     59          1           0       -5.600324    0.998730   -6.204348
     60          1           0       -6.289938   -1.347019   -7.278292
     61          1           0       -5.059209   -2.718629   -7.458481
     62          1           0       -4.646470   -1.144646   -6.726938
     63          1           0       -6.222596   -5.517723   -1.339185
     64          1           0       -7.878154   -5.331787    1.129122
     65          1           0       -8.118555   -6.570303   -1.973852
     66          1           0       -8.945938   -4.976390   -1.913734
     67          1           0       -8.982043   -5.986277   -0.562513
     68          1           0       -5.891917   -6.867247    0.873125
     69          1           0       -5.935168   -5.955796    2.378193
     70          1           0       -4.290865   -5.696450   -0.025075
     71          1           0       -3.748509   -5.649098    1.686737
     72          1           0       -4.520580   -4.209966    0.882054
     73          1           0       -6.667801   -1.441048    5.945072
     74          1           0       -7.126890   -2.918793    5.026065
     75          1           0       -8.377591   -1.641770    5.326937
     76          1           0       -8.108530    3.081659    3.381097
     77          1           0       -6.041979    6.529890    4.949079
     78          1           0       -5.636961    6.626893    3.130761
     79          1           0       -4.700881    5.722737    4.335745
     80         12           0        6.623119   -0.618117    0.404103
     81          6           0        6.734947    1.975214   -2.074034
     82          6           0        7.572425    1.730027    2.688749
     83          6           0        6.971362   -2.958936    2.517568
     84          6           0        6.807599   -2.924785   -2.201849
     85          7           0        7.065488    1.540401    0.210864
     86          6           0        7.014715    2.430477   -0.768689
     87          6           0        7.199483    3.902112   -0.310746
     88          6           0        8.007797    3.630803    1.050093
     89          6           0        7.495265    2.226493    1.362987
     90          6           0        9.512628    3.556854    0.851684
     91          6           0        5.831112    4.617992   -0.033071
     92          6           0        5.919603    6.138263    0.117545
     93          1           0        4.817230    6.952928   -0.386026
     94          7           0        6.707851   -0.556954    2.385936
     95          6           0        7.094073    0.484719    3.152127
     96          6           0        6.999154    0.017490    4.543836
     97          6           0        6.683400   -1.436760    4.529911
     98          6           0        6.798339   -1.717900    3.112928
     99          6           0        7.122846    0.939524    5.721947
    100          6           0        6.347741   -2.415513    5.614142
    101          8           0        6.343600   -3.679635    5.402479
    102          6           0        6.115452   -1.855839    6.953663
    103          7           0        7.068474   -2.639464    0.208711
    104          6           0        7.108159   -3.445720    1.284018
    105          6           0        7.173086   -4.897889    0.874890
    106          6           0        6.923772   -4.910740   -0.704754
    107          6           0        6.843027   -3.389748   -0.960594
    108          6           0        8.483411   -5.619551    1.188935
    109          6           0        5.770818   -5.810525   -1.227974
    110          6           0        4.439201   -5.263540   -0.766437
    111          7           0        6.563399   -0.534716   -1.754032
    112          6           0        6.683455   -1.616988   -2.653111
    113          6           0        6.698509   -1.050128   -4.017256
    114          6           0        6.608626    0.335275   -3.814610
    115          6           0        6.562587    0.613563   -2.421796
    116          6           0        6.834251   -1.791529   -5.224738
    117          6           0        6.552926    1.626235   -4.461935
    118          8           0        6.469232    2.010567   -5.627705
    119          6           0        6.759724    2.753252   -3.360372
    120          6           0        5.701571    3.802518   -3.565031
    121          8           0        4.500612    3.531821   -3.388873
    122          8           0        6.293530    5.000640   -3.721436
    123          6           0        5.284451    6.075576   -3.916671
    124          1           0        8.085346    2.332183    3.439223
    125          1           0        6.985859   -3.811558    3.200430
    126          1           0        6.763984   -3.584272   -3.071233
    127          1           0        7.792104    4.514921   -0.979366
    128          1           0        7.712351    4.327217    1.830525
    129          1           0        9.782883    3.581416   -0.193537
    130          1           0        9.822991    2.622531    1.300857
    131          1           0       10.007662    4.345945    1.424931
    132          1           0        5.484165    4.349377    0.973019
    133          1           0        5.111574    4.371063   -0.789337
    134          1           0        6.880694    6.532132   -0.234755
    135          1           0        5.903780    6.382983    1.182380
    136          1           0        7.517730    1.919319    5.426207
    137          1           0        7.895848    0.521179    6.375639
    138          1           0        6.192415    1.028331    6.286828
    139          1           0        7.000305   -1.312399    7.276407
    140          1           0        5.801642   -2.698908    7.572235
    141          1           0        5.302216   -1.124171    6.890909
    142          1           0        6.391841   -5.471251    1.358636
    143          1           0        7.804664   -5.275349   -1.253329
    144          1           0        8.345974   -6.520732    1.815870
    145          1           0        9.151801   -4.918912    1.671533
    146          1           0        9.060797   -5.927895    0.319015
    147          1           0        5.855300   -6.816218   -0.808932
    148          1           0        5.758023   -5.911704   -2.308055
    149          1           0        4.344109   -5.667284    0.245996
    150          1           0        3.636000   -5.617509   -1.409574
    151          1           0        4.469788   -4.170873   -0.684054
    152          1           0        6.117035   -1.382214   -5.923706
    153          1           0        6.667954   -2.854026   -5.059723
    154          1           0        7.876519   -1.572697   -5.471846
    155          1           0        7.765381    3.155626   -3.488126
    156          1           0        5.534219    6.581786   -4.854248
    157          1           0        5.313014    6.683484   -2.992886
    158          1           0        4.260848    5.773827   -4.105410
 ---------------------------------------------------------------------

 SCF Done:  E(RCAM-B3LYP) =  -4069.81193019     A.U. after   19 cycles

 Excitation energies and oscillator strengths:

 Excited State   1:      Singlet-A      1.6662 eV  744.12 nm  f=0.0122  <S**2>=0.000
     309 -> 316        0.13270
     310 -> 315        0.10885
     311 -> 313        0.53175
     312 -> 314        0.43436
 This state for optimization and/or second-order correction.
 Total Energy, E(TD-HF/TD-DFT) =  -4069.75069878
 Copying the excited state density for this state as the 1-particle RhoCI density.

 Excited State   2:      Singlet-A      1.6892 eV  733.99 nm  f=0.7334  <S**2>=0.000
     309 -> 316       -0.11211
     310 -> 315        0.13784
     311 -> 313       -0.43350
     312 -> 314        0.53059

 Excited State   3:      Singlet-A      2.1857 eV  567.26 nm  f=0.0432  <S**2>=0.000
     309 -> 313        0.61338
     310 -> 314       -0.19312
     311 -> 316       -0.25986

 Excited State   4:      Singlet-A      2.1937 eV  565.18 nm  f=0.1462  <S**2>=0.000
     309 -> 313        0.19162
     310 -> 314        0.61102
     312 -> 315       -0.26616

 Excited State   5:      Singlet-A      2.7010 eV  459.04 nm  f=0.0000  <S**2>=0.000
     312 -> 313        0.70710

 The electronic state is 1-A.
 Alpha  occ. eigenvalues --  -46.87641 -46.87570 -19.26329 -19.26196 -19.19130
 Alpha  occ. eigenvalues --  -19.18920 -19.18640 -19.18605 -19.18045 -19.17994
 Alpha  occ. eigenvalues --  -14.42410 -14.42298 -14.41299 -14.41274 -14.39259
 Alpha  occ. eigenvalues --  -14.39244 -14.38515 -14.38437 -10.39057 -10.38978
 Alpha  occ. eigenvalues --  -10.35280 -10.35271 -10.34267 -10.34172 -10.31759
 Alpha  occ. eigenvalues --  -10.31614 -10.31262 -10.31230 -10.30934 -10.30755
 Alpha  occ. eigenvalues --  -10.30422 -10.30358 -10.30312 -10.30279 -10.30051
 Alpha  occ. eigenvalues --  -10.30048 -10.29816 -10.29780 -10.29478 -10.29343
 Alpha  occ. eigenvalues --  -10.29313 -10.29096 -10.28642 -10.28607 -10.28586
 Alpha  occ. eigenvalues --  -10.28408 -10.28319 -10.28212 -10.28063 -10.27976
 Alpha  occ. eigenvalues --  -10.27918 -10.27644 -10.27582 -10.27575 -10.27437
 Alpha  occ. eigenvalues --  -10.27425 -10.27401 -10.27373 -10.27362 -10.27346
 Alpha  occ. eigenvalues --  -10.27315 -10.27298 -10.27291 -10.27257 -10.27038
 Alpha  occ. eigenvalues --  -10.26996 -10.26607 -10.26554 -10.26276 -10.26200
 Alpha  occ. eigenvalues --  -10.26108 -10.26053 -10.26047 -10.25960 -10.25870
 Alpha  occ. eigenvalues --  -10.25849 -10.25794 -10.25723 -10.25331 -10.25313
 Alpha  occ. eigenvalues --  -10.24793 -10.24688 -10.24639 -10.24633 -10.24605
 Alpha  occ. eigenvalues --  -10.24539  -3.16383  -3.16319  -1.91265  -1.91201
 Alpha  occ. eigenvalues --   -1.90852  -1.90790  -1.90694  -1.90627  -1.16620
 Alpha  occ. eigenvalues --   -1.16542  -1.08606  -1.08508  -1.07040  -1.06915
 Alpha  occ. eigenvalues --   -1.06857  -1.06544  -1.04430  -1.04409  -1.03610
 Alpha  occ. eigenvalues --   -1.03576  -1.03082  -1.02953  -1.02261  -1.02026
 Alpha  occ. eigenvalues --   -0.91912  -0.91832  -0.89411  -0.89376  -0.89073
 Alpha  occ. eigenvalues --   -0.89046  -0.88145  -0.88139  -0.87731  -0.87719
 Alpha  occ. eigenvalues --   -0.87599  -0.87523  -0.87102  -0.87014  -0.84919
 Alpha  occ. eigenvalues --   -0.84837  -0.83800  -0.83798  -0.82826  -0.82794
 Alpha  occ. eigenvalues --   -0.82568  -0.82502  -0.81542  -0.81466  -0.80456
 Alpha  occ. eigenvalues --   -0.80370  -0.78636  -0.78542  -0.77074  -0.77062
 Alpha  occ. eigenvalues --   -0.76831  -0.76804  -0.75792  -0.75771  -0.74763
 Alpha  occ. eigenvalues --   -0.74729  -0.72629  -0.72618  -0.71533  -0.71505
 Alpha  occ. eigenvalues --   -0.69766  -0.69674  -0.68747  -0.68728  -0.67521
 Alpha  occ. eigenvalues --   -0.67494  -0.67110  -0.67066  -0.65196  -0.65146
 Alpha  occ. eigenvalues --   -0.64717  -0.64695  -0.64583  -0.64484  -0.64127
 Alpha  occ. eigenvalues --   -0.64124  -0.62228  -0.62183  -0.60280  -0.60243
 Alpha  occ. eigenvalues --   -0.59716  -0.59660  -0.58915  -0.58845  -0.58363
 Alpha  occ. eigenvalues --   -0.58351  -0.57500  -0.57462  -0.57167  -0.57155
 Alpha  occ. eigenvalues --   -0.56165  -0.56126  -0.55866  -0.55833  -0.55371
 Alpha  occ. eigenvalues --   -0.55366  -0.55211  -0.55180  -0.54426  -0.54402
 Alpha  occ. eigenvalues --   -0.53834  -0.53753  -0.53150  -0.53145  -0.53070
 Alpha  occ. eigenvalues --   -0.53063  -0.52831  -0.52782  -0.52588  -0.52562
 Alpha  occ. eigenvalues --   -0.52317  -0.52298  -0.51821  -0.51785  -0.51573
 Alpha  occ. eigenvalues --   -0.51467  -0.51132  -0.51062  -0.50386  -0.50361
 Alpha  occ. eigenvalues --   -0.49890  -0.49885  -0.49782  -0.49757  -0.49397
 Alpha  occ. eigenvalues --   -0.49364  -0.49125  -0.49072  -0.49035  -0.48962
 Alpha  occ. eigenvalues --   -0.48494  -0.48465  -0.48327  -0.48307  -0.48286
 Alpha  occ. eigenvalues --   -0.48241  -0.47548  -0.47513  -0.47149  -0.47034
 Alpha  occ. eigenvalues --   -0.46654  -0.46630  -0.46474  -0.46413  -0.46214
 Alpha  occ. eigenvalues --   -0.46190  -0.46030  -0.46017  -0.45766  -0.45702
 Alpha  occ. eigenvalues --   -0.45131  -0.45063  -0.44449  -0.44448  -0.44395
 Alpha  occ. eigenvalues --   -0.44349  -0.44054  -0.43999  -0.43996  -0.43950
 Alpha  occ. eigenvalues --   -0.43872  -0.43849  -0.43501  -0.43374  -0.43311
 Alpha  occ. eigenvalues --   -0.43242  -0.42888  -0.42884  -0.42833  -0.42591
 Alpha  occ. eigenvalues --   -0.42520  -0.42466  -0.41883  -0.41871  -0.41598
 Alpha  occ. eigenvalues --   -0.41565  -0.41391  -0.41379  -0.41001  -0.40913
 Alpha  occ. eigenvalues --   -0.40726  -0.40652  -0.40634  -0.40602  -0.40433
 Alpha  occ. eigenvalues --   -0.40415  -0.40138  -0.40084  -0.39339  -0.39298
 Alpha  occ. eigenvalues --   -0.38328  -0.38270  -0.37606  -0.37576  -0.37185
 Alpha  occ. eigenvalues --   -0.37176  -0.37118  -0.37117  -0.36731  -0.36603
 Alpha  occ. eigenvalues --   -0.36147  -0.36064  -0.34171  -0.34138  -0.33820
 Alpha  occ. eigenvalues --   -0.33661  -0.33092  -0.33040  -0.31172  -0.31166
 Alpha  occ. eigenvalues --   -0.30889  -0.30887  -0.29907  -0.29901  -0.29290
 Alpha  occ. eigenvalues --   -0.29234  -0.29174  -0.29130  -0.23952  -0.23931
 Alpha  occ. eigenvalues --   -0.21030  -0.20977
 Alpha virt. eigenvalues --   -0.08705  -0.08621  -0.01596  -0.01595   0.00067
 Alpha virt. eigenvalues --    0.00104   0.02280   0.02339   0.03316   0.03354
 Alpha virt. eigenvalues --    0.04810   0.04862   0.05203   0.05204   0.06249

 Mulliken charges:
               1
     1  Mg   0.839569
     2  C   -0.002899
     3  C   -0.093691
     4  C   -0.045851
     5  C   -0.064026
     6  N   -0.256796
     7  C   -0.052466
     8  C   -0.014116
     9  C   -0.087114
    10  C    0.046575
    11  C    0.104853
    12  C    0.053338
    13  C   -0.071589
    14  H    0.035532
    15  N   -0.433192
    16  C    0.168852
    17  C   -0.176642
    18  C   -0.003663
    19  C    0.148967
    20  C    0.110097
    21  C    0.012709
    22  O   -0.249869
    23  C    0.062147
    24  N   -0.341182
    25  C    0.041331
    26  C   -0.028138
    27  C   -0.023878
    28  C    0.074780
    29  C    0.076260
    30  C    0.035175
    31  C   -0.004506
    32  N   -0.310366
    33  C    0.080293
    34  C   -0.169956
    35  C    0.008063
    36  C    0.082950
    37  C    0.127384
    38  C    0.045858
    39  O   -0.189268
    40  C   -0.005312
    41  C    0.212702
    42  O   -0.257069
    43  O   -0.304778
    44  C    0.157969
    45  H   -0.017637
    46  H   -0.016933
    47  H   -0.041788
    48  H    0.000524
    49  H   -0.003827
    50  H    0.025244
    51  H    0.016407
    52  H    0.016487
    53  H    0.012202
    54  H    0.044130
    55  H    0.017438
    56  H    0.018264
    57  H    0.005830
    58  H    0.026580
    59  H    0.040960
    60  H    0.037050
    61  H    0.035673
    62  H    0.032962
    63  H    0.016550
    64  H    0.009157
    65  H    0.023031
    66  H    0.012484
    67  H    0.004525
    68  H    0.006035
    69  H    0.004556
    70  H    0.008681
    71  H    0.018225
    72  H    0.029362
    73  H    0.047128
    74  H    0.009018
    75  H    0.045664
    76  H    0.034865
    77  H    0.042423
    78  H    0.046476
    79  H    0.053216
    80  Mg   0.838587
    81  C   -0.016819
    82  C   -0.087510
    83  C   -0.045423
    84  C   -0.064885
    85  N   -0.254581
    86  C   -0.049850
    87  C   -0.015205
    88  C   -0.090585
    89  C    0.046002
    90  C    0.114409
    91  C    0.062396
    92  C   -0.077714
    93  H    0.034367
    94  N   -0.423550
    95  C    0.163387
    96  C   -0.174268
    97  C   -0.007451
    98  C    0.152337
    99  C    0.099328
   100  C    0.015974
   101  O   -0.253280
   102  C    0.060893
   103  N   -0.350073
   104  C    0.037600
   105  C   -0.019830
   106  C   -0.034750
   107  C    0.088878
   108  C    0.073730
   109  C    0.034761
   110  C   -0.007727
   111  N   -0.323989
   112  C    0.078341
   113  C   -0.163352
   114  C    0.001921
   115  C    0.096207
   116  C    0.131558
   117  C    0.042110
   118  O   -0.188747
   119  C    0.000972
   120  C    0.211058
   121  O   -0.251042
   122  O   -0.305584
   123  C    0.152329
   124  H   -0.019661
   125  H   -0.015580
   126  H   -0.040661
   127  H   -0.001022
   128  H   -0.004131
   129  H    0.022248
   130  H    0.014400
   131  H    0.016167
   132  H    0.014815
   133  H    0.037672
   134  H    0.020402
   135  H    0.019921
   136  H    0.008734
   137  H    0.025987
   138  H    0.040931
   139  H    0.038014
   140  H    0.036513
   141  H    0.035062
   142  H    0.014482
   143  H    0.012159
   144  H    0.025044
   145  H    0.011564
   146  H    0.005493
   147  H    0.006026
   148  H    0.003537
   149  H    0.010883
   150  H    0.018164
   151  H    0.030397
   152  H    0.045530
   153  H    0.008520
   154  H    0.046639
   155  H    0.034780
   156  H    0.043387
   157  H    0.049635
   158  H    0.053018
 Sum of Mulliken charges =  -0.00000

 Dipole moment (field-independent basis, Debye):
    X=              0.3131    Y=              3.1229    Z=             -0.3634  Tot=              3.1595
 Quadrupole moment (field-independent basis, Debye-Ang):
   XX=           -467.3173   YY=           -460.7275   ZZ=           -539.4874
   XY=              2.8364   XZ=             48.7386   YZ=              0.2887

 Normal termination of Gaussian 16 at Sat Sep 11 07:01:15 2021.
