 Gaussian 16, Revision A.03,
 Gaussian 16:  ES64L-G16RevA.03 25-Dec-2016

 -----------------------------------
 #p cam-b3lyp/Def2SVP td=(nstates=5)
 -----------------------------------

 --------------------------------
 TDDFT excited states in gaussian
 --------------------------------
 Symbolic Z-matrix:
 Charge =  0 Multiplicity = 1

                         Standard orientation:
 ---------------------------------------------------------------------
 Center     Atomic      Atomic             Coordinates (Angstroms)
 Number     Number       Type             X           Y           Z
 ---------------------------------------------------------------------
      1         12           0        4.404457   -0.512963   -0.610835
      2          6           0        4.574576    2.901581    0.449431
      3          6           0        5.707822   -1.365203    2.425279
      4          6           0        4.688603   -3.482089   -1.687949
      5          6           0        4.202079    0.667509   -3.883631
      6          7           0        5.019922    0.703927    1.133019
      7          6           0        4.978033    1.997867    1.434909
      8          6           0        5.331372    2.296947    2.922551
      9          6           0        6.194424    0.995212    3.242900
     10          6           0        5.581502    0.042488    2.231679
     11          6           0        7.678522    1.155843    2.929609
     12          6           0        4.058723    2.378446    3.831096
     13          6           0        4.284672    2.984371    5.219316
     14          1           0        3.232923    3.800450    5.806842
     15          7           0        4.629491   -2.214619    0.367213
     16          6           0        5.163955   -2.374585    1.601735
     17          6           0        5.108957   -3.824925    1.884875
     18          6           0        4.673988   -4.515562    0.639115
     19          6           0        4.671874   -3.420161   -0.296550
     20          6           0        5.400939   -4.412003    3.231662
     21          6           0        4.327019   -5.939117    0.337065
     22          8           0        4.199167   -6.368695   -0.860303
     23          6           0        4.226359   -6.849959    1.491741
     24          7           0        4.662149   -1.311589   -2.522229
     25          6           0        4.696691   -2.634174   -2.718591
     26          6           0        4.603399   -2.972267   -4.176990
     27          6           0        4.251631   -1.606495   -4.925774
     28          6           0        4.286716   -0.652863   -3.706091
     29          6           0        5.862326   -3.587953   -4.803125
     30          6           0        2.992369   -1.603537   -5.828365
     31          6           0        1.751101   -1.755993   -4.978007
     32          7           0        4.210599    1.425539   -1.567743
     33          6           0        4.167947    1.685364   -2.945185
     34          6           0        4.141001    3.150597   -3.107775
     35          6           0        4.186881    3.644826   -1.805670
     36          6           0        4.265660    2.557754   -0.888958
     37          6           0        4.139320    3.851804   -4.345814
     38          6           0        4.212530    4.838940   -0.976640
     39          8           0        4.077467    6.044878   -1.188688
     40          6           0        4.587379    4.408798    0.510066
     41          6           0        3.613820    5.083504    1.437569
     42          8           0        2.404804    4.774304    1.431109
     43          8           0        4.290505    5.807571    2.342205
     44          6           0        3.384464    6.479744    3.311446
     45          1           0        6.327289   -1.731598    3.246228
     46          1           0        4.674427   -4.493581   -2.099191
     47          1           0        4.053613    1.107061   -4.871662
     48          1           0        5.935831    3.191238    3.075183
     49          1           0        6.023777    0.633093    4.256543
     50          1           0        7.877762    2.096260    2.415955
     51          1           0        7.934022    0.310996    2.289729
     52          1           0        8.279569    1.040804    3.831987
     53          1           0        3.755086    1.371004    4.115571
     54          1           0        3.258677    2.921361    3.326619
     55          1           0        5.244712    3.497905    5.278608
     56          1           0        4.368603    2.169287    5.938200
     57          1           0        5.852804   -3.678907    3.898695
     58          1           0        6.176449   -5.164421    3.089675
     59          1           0        4.519581   -4.872272    3.678533
     60          1           0        5.177642   -6.862599    2.024140
     61          1           0        3.883268   -7.804027    1.093127
     62          1           0        3.489112   -6.453869    2.190689
     63          1           0        3.809614   -3.695131   -4.360837
     64          1           0        5.054970   -1.285059   -5.589099
     65          1           0        5.689809   -4.558401   -5.269143
     66          1           0        6.625202   -3.656381   -4.028122
     67          1           0        6.359505   -2.959723   -5.541743
     68          1           0        3.016308   -2.448746   -6.515384
     69          1           0        2.891210   -0.695560   -6.423003
     70          1           0        1.683140   -2.834184   -4.837589
     71          1           0        0.877542   -1.375531   -5.508437
     72          1           0        1.885273   -1.307016   -3.993678
     73          1           0        3.408558    4.653685   -4.241202
     74          1           0        3.886469    3.191103   -5.174755
     75          1           0        5.173220    4.194366   -4.385263
     76          1           0        5.611857    4.737166    0.682521
     77          1           0        3.610835    7.545469    3.276522
     78          1           0        3.513811    5.965960    4.264179
     79          1           0        2.324316    6.486061    3.055739
     80         12           0       -4.518662   -0.942637    0.508008
     81          6           0       -4.663965    2.280048   -1.064317
     82          6           0       -3.362332    0.637803    3.300813
     83          6           0       -3.952576   -3.798657    1.769020
     84          6           0       -4.578400   -2.347131   -2.680960
     85          7           0       -4.108735    1.187539    0.939971
     86          6           0       -4.259983    2.329457    0.286156
     87          6           0       -4.038969    3.599690    1.150578
     88          6           0       -3.099721    2.958516    2.284415
     89          6           0       -3.571694    1.508337    2.201513
     90          6           0       -1.621225    3.000290    1.935647
     91          6           0       -5.377273    4.150293    1.757030
     92          6           0       -5.282458    5.556288    2.353638
     93          1           0       -6.433149    6.446104    2.224827
     94          7           0       -4.240372   -1.479686    2.398172
     95          6           0       -3.786384   -0.705136    3.405774
     96          6           0       -3.741959   -1.573697    4.592273
     97          6           0       -4.049884   -2.965953    4.166219
     98          6           0       -4.072941   -2.802050    2.726540
     99          6           0       -3.508220   -1.046603    5.978264
    100          6           0       -4.272473   -4.237405    4.927840
    101          8           0       -4.290693   -5.378001    4.343429
    102          6           0       -4.375276   -4.116643    6.389462
    103          7           0       -4.083960   -2.793921   -0.332309
    104          6           0       -3.934809   -3.885281    0.438792
    105          6           0       -3.902661   -5.143009   -0.396359
    106          6           0       -4.305553   -4.687076   -1.875338
    107          6           0       -4.419003   -3.163589   -1.648408
    108          6           0       -2.564068   -5.879782   -0.438106
    109          6           0       -5.499497   -5.426460   -2.539019
    110          6           0       -6.782308   -5.090981   -1.812917
    111          7           0       -4.790097   -0.213764   -1.507710
    112          6           0       -4.753057   -0.969265   -2.700154
    113          6           0       -4.874794   -0.016890   -3.822910
    114          6           0       -4.951680    1.238711   -3.201563
    115          6           0       -4.862411    1.081772   -1.791986
    116          6           0       -4.854175   -0.353997   -5.205677
    117          6           0       -5.077363    2.662090   -3.418080
    118          8           0       -5.276962    3.377255   -4.399113
    119          6           0       -4.769523    3.410470   -2.050027
    120          6           0       -5.848138    4.435099   -1.828164
    121          8           0       -7.024607    4.082258   -1.633110
    122          8           0       -5.280686    5.644373   -1.666817
    123          6           0       -6.309686    6.692307   -1.432716
    124          1           0       -2.781493    1.002775    4.148345
    125          1           0       -3.866720   -4.816601    2.156187
    126          1           0       -4.703553   -2.714502   -3.701765
    127          1           0       -3.517975    4.405965    0.648317
    128          1           0       -3.320895    3.376123    3.263217
    129          1           0       -1.454866    3.348628    0.927112
    130          1           0       -1.263399    1.985347    2.049229
    131          1           0       -1.076536    3.596233    2.673548
    132          1           0       -5.622494    3.578609    2.661344
    133          1           0       -6.166172    4.118327    1.030908
    134          1           0       -4.362622    6.071311    2.050992
    135          1           0       -5.195099    5.467433    3.439224
    136          1           0       -3.149394   -0.010126    5.959250
    137          1           0       -2.672660   -1.615618    6.400082
    138          1           0       -4.379237   -1.164886    6.626345
    139          1           0       -3.465921   -3.665562    6.779400
    140          1           0       -4.622480   -5.117494    6.748718
    141          1           0       -5.194583   -3.428918    6.626924
    142          1           0       -4.629678   -5.862465   -0.040102
    143          1           0       -3.480774   -4.838200   -2.587192
    144          1           0       -2.634632   -6.932393   -0.104777
    145          1           0       -1.855291   -5.334707    0.171052
    146          1           0       -2.073135   -5.890861   -1.409738
    147          1           0       -5.369048   -6.508156   -2.454968
    148          1           0       -5.617571   -5.197250   -3.592837
    149          1           0       -6.775565   -5.784571   -0.966762
    150          1           0       -7.642817   -5.261992   -2.456604
    151          1           0       -6.749560   -4.073787   -1.405615
    152          1           0       -5.638614    0.222015   -5.678300
    153          1           0       -4.997903   -1.421845   -5.356753
    154          1           0       -3.842331   -0.034668   -5.469216
    155          1           0       -3.783366    3.867363   -2.141265
    156          1           0       -6.155715    7.466304   -2.190948
    157          1           0       -6.193909    6.993601   -0.374621
    158          1           0       -7.345271    6.426206   -1.609397
 ---------------------------------------------------------------------

 SCF Done:  E(RCAM-B3LYP) =  -4069.81255068     A.U. after   19 cycles

 Excitation energies and oscillator strengths:

 Excited State   1:      Singlet-A      1.6538 eV  749.70 nm  f=0.0872  <S**2>=0.000
     309 -> 315       -0.10959
     310 -> 316        0.12702
     311 -> 313       -0.44567
     312 -> 314        0.52322
 This state for optimization and/or second-order correction.
 Total Energy, E(TD-HF/TD-DFT) =  -4069.75177533
 Copying the excited state density for this state as the 1-particle RhoCI density.

 Excited State   2:      Singlet-A      1.6942 eV  731.80 nm  f=0.6029  <S**2>=0.000
     309 -> 315        0.13692
     310 -> 316        0.11432
     311 -> 313        0.52109
     312 -> 314        0.44388

 Excited State   3:      Singlet-A      2.1800 eV  568.72 nm  f=0.0498  <S**2>=0.000
     309 -> 313       -0.24546
     310 -> 314        0.59633
     311 -> 315        0.10122
     312 -> 316       -0.24633

 Excited State   4:      Singlet-A      2.1962 eV  564.54 nm  f=0.1342  <S**2>=0.000
     309 -> 313        0.59154
     310 -> 314        0.24175
     311 -> 315       -0.26038
     312 -> 316       -0.10724

 Excited State   5:      Singlet-A      2.3308 eV  531.94 nm  f=0.0000  <S**2>=0.000
     312 -> 313        0.70708

 The electronic state is 1-A.
 Alpha  occ. eigenvalues --  -46.87928 -46.87396 -19.26626 -19.26008 -19.19397
 Alpha  occ. eigenvalues --  -19.18901 -19.18847 -19.18568 -19.18329 -19.17787
 Alpha  occ. eigenvalues --  -14.42595 -14.42188 -14.41576 -14.41101 -14.39528
 Alpha  occ. eigenvalues --  -14.39103 -14.38720 -14.38340 -10.39424 -10.38770
 Alpha  occ. eigenvalues --  -10.35530 -10.35252 -10.34558 -10.33954 -10.32054
 Alpha  occ. eigenvalues --  -10.31561 -10.31429 -10.31071 -10.30969 -10.30707
 Alpha  occ. eigenvalues --  -10.30705 -10.30630 -10.30314 -10.30161 -10.30100
 Alpha  occ. eigenvalues --  -10.30043 -10.29908 -10.29750 -10.29649 -10.29367
 Alpha  occ. eigenvalues --  -10.29200 -10.29178 -10.28978 -10.28896 -10.28506
 Alpha  occ. eigenvalues --  -10.28310 -10.28293 -10.28242 -10.28137 -10.27913
 Alpha  occ. eigenvalues --  -10.27864 -10.27761 -10.27699 -10.27590 -10.27574
 Alpha  occ. eigenvalues --  -10.27574 -10.27559 -10.27548 -10.27371 -10.27370
 Alpha  occ. eigenvalues --  -10.27330 -10.27306 -10.27254 -10.27194 -10.27155
 Alpha  occ. eigenvalues --  -10.27028 -10.26716 -10.26444 -10.26400 -10.26337
 Alpha  occ. eigenvalues --  -10.26316 -10.26254 -10.26131 -10.25960 -10.25902
 Alpha  occ. eigenvalues --  -10.25694 -10.25682 -10.25522 -10.25160 -10.25074
 Alpha  occ. eigenvalues --  -10.24961 -10.24915 -10.24766 -10.24627 -10.24565
 Alpha  occ. eigenvalues --  -10.24445  -3.16671  -3.16146  -1.91553  -1.91139
 Alpha  occ. eigenvalues --   -1.91028  -1.90981  -1.90616  -1.90454  -1.16976
 Alpha  occ. eigenvalues --   -1.16308  -1.08800  -1.08388  -1.07300  -1.06994
 Alpha  occ. eigenvalues --   -1.06827  -1.06630  -1.04730  -1.04187  -1.03890
 Alpha  occ. eigenvalues --   -1.03393  -1.03360  -1.02790  -1.02540  -1.01852
 Alpha  occ. eigenvalues --   -0.92134  -0.91696  -0.89634  -0.89395  -0.89261
 Alpha  occ. eigenvalues --   -0.88672  -0.88399  -0.87987  -0.87980  -0.87825
 Alpha  occ. eigenvalues --   -0.87565  -0.87388  -0.87374  -0.86942  -0.85178
 Alpha  occ. eigenvalues --   -0.84619  -0.84054  -0.83651  -0.83056  -0.82824
 Alpha  occ. eigenvalues --   -0.82776  -0.82304  -0.81806  -0.81300  -0.80764
 Alpha  occ. eigenvalues --   -0.80165  -0.78906  -0.78423  -0.77367  -0.77135
 Alpha  occ. eigenvalues --   -0.76862  -0.76538  -0.76112  -0.75424  -0.75025
 Alpha  occ. eigenvalues --   -0.74534  -0.72899  -0.72437  -0.71820  -0.71237
 Alpha  occ. eigenvalues --   -0.70006  -0.69534  -0.69053  -0.68471  -0.67789
 Alpha  occ. eigenvalues --   -0.67419  -0.67354  -0.66899  -0.65487  -0.65026
 Alpha  occ. eigenvalues --   -0.64905  -0.64793  -0.64489  -0.64390  -0.64334
 Alpha  occ. eigenvalues --   -0.63958  -0.62533  -0.61984  -0.60547  -0.60137
 Alpha  occ. eigenvalues --   -0.59981  -0.59404  -0.59134  -0.58717  -0.58656
 Alpha  occ. eigenvalues --   -0.58154  -0.57804  -0.57442  -0.57258  -0.56999
 Alpha  occ. eigenvalues --   -0.56457  -0.56234  -0.55956  -0.55651  -0.55578
 Alpha  occ. eigenvalues --   -0.55500  -0.55202  -0.54994  -0.54718  -0.54220
 Alpha  occ. eigenvalues --   -0.54107  -0.53468  -0.53427  -0.53389  -0.53122
 Alpha  occ. eigenvalues --   -0.52996  -0.52880  -0.52854  -0.52625  -0.52538
 Alpha  occ. eigenvalues --   -0.52372  -0.52196  -0.52018  -0.51804  -0.51679
 Alpha  occ. eigenvalues --   -0.51355  -0.51321  -0.50922  -0.50652  -0.50314
 Alpha  occ. eigenvalues --   -0.50145  -0.50040  -0.49707  -0.49674  -0.49619
 Alpha  occ. eigenvalues --   -0.49372  -0.49275  -0.49173  -0.48918  -0.48783
 Alpha  occ. eigenvalues --   -0.48644  -0.48605  -0.48555  -0.48222  -0.48151
 Alpha  occ. eigenvalues --   -0.48100  -0.47848  -0.47431  -0.47293  -0.46941
 Alpha  occ. eigenvalues --   -0.46882  -0.46758  -0.46499  -0.46423  -0.46307
 Alpha  occ. eigenvalues --   -0.46152  -0.46028  -0.46003  -0.45832  -0.45516
 Alpha  occ. eigenvalues --   -0.45318  -0.44954  -0.44748  -0.44650  -0.44290
 Alpha  occ. eigenvalues --   -0.44252  -0.44251  -0.44166  -0.44164  -0.43861
 Alpha  occ. eigenvalues --   -0.43706  -0.43699  -0.43669  -0.43549  -0.43251
 Alpha  occ. eigenvalues --   -0.43177  -0.43045  -0.42971  -0.42774  -0.42626
 Alpha  occ. eigenvalues --   -0.42601  -0.42333  -0.42160  -0.41861  -0.41726
 Alpha  occ. eigenvalues --   -0.41697  -0.41372  -0.41292  -0.41117  -0.41049
 Alpha  occ. eigenvalues --   -0.40950  -0.40693  -0.40637  -0.40510  -0.40480
 Alpha  occ. eigenvalues --   -0.40368  -0.40156  -0.39858  -0.39540  -0.39215
 Alpha  occ. eigenvalues --   -0.38602  -0.38084  -0.37999  -0.37451  -0.37445
 Alpha  occ. eigenvalues --   -0.37323  -0.36999  -0.36994  -0.36853  -0.36470
 Alpha  occ. eigenvalues --   -0.36379  -0.35928  -0.34426  -0.34098  -0.33976
 Alpha  occ. eigenvalues --   -0.33559  -0.33330  -0.32914  -0.31435  -0.31178
 Alpha  occ. eigenvalues --   -0.31123  -0.30691  -0.30194  -0.29684  -0.29565
 Alpha  occ. eigenvalues --   -0.29446  -0.29115  -0.28971  -0.24220  -0.23765
 Alpha  occ. eigenvalues --   -0.21256  -0.20850
 Alpha virt. eigenvalues --   -0.08900  -0.08547  -0.01876  -0.01429  -0.00179
 Alpha virt. eigenvalues --    0.00206   0.02062   0.02445   0.02837   0.03524
 Alpha virt. eigenvalues --    0.04527   0.04760   0.05072   0.05483   0.05875

 Mulliken charges:
               1
     1  Mg   0.838765
     2  C   -0.004065
     3  C   -0.094531
     4  C   -0.045616
     5  C   -0.063233
     6  N   -0.256738
     7  C   -0.052969
     8  C   -0.013913
     9  C   -0.086974
    10  C    0.046045
    11  C    0.104728
    12  C    0.053576
    13  C   -0.071013
    14  H    0.032807
    15  N   -0.433234
    16  C    0.168614
    17  C   -0.176785
    18  C   -0.003416
    19  C    0.148774
    20  C    0.110017
    21  C    0.012640
    22  O   -0.249708
    23  C    0.062131
    24  N   -0.341050
    25  C    0.041410
    26  C   -0.028243
    27  C   -0.023999
    28  C    0.074626
    29  C    0.076086
    30  C    0.034975
    31  C   -0.004310
    32  N   -0.310429
    33  C    0.080192
    34  C   -0.169016
    35  C    0.008180
    36  C    0.082622
    37  C    0.127249
    38  C    0.045597
    39  O   -0.188462
    40  C   -0.005414
    41  C    0.213796
    42  O   -0.259965
    43  O   -0.303828
    44  C    0.158018
    45  H   -0.017513
    46  H   -0.016628
    47  H   -0.040638
    48  H    0.001014
    49  H   -0.004412
    50  H    0.025628
    51  H    0.016995
    52  H    0.016825
    53  H    0.010812
    54  H    0.041914
    55  H    0.019082
    56  H    0.018239
    57  H    0.005482
    58  H    0.027167
    59  H    0.040405
    60  H    0.037246
    61  H    0.036150
    62  H    0.032878
    63  H    0.016356
    64  H    0.009846
    65  H    0.023342
    66  H    0.012611
    67  H    0.005113
    68  H    0.006342
    69  H    0.005672
    70  H    0.007690
    71  H    0.018411
    72  H    0.029486
    73  H    0.048299
    74  H    0.010076
    75  H    0.046084
    76  H    0.035632
    77  H    0.044015
    78  H    0.046273
    79  H    0.051206
    80  Mg   0.837194
    81  C   -0.016743
    82  C   -0.087850
    83  C   -0.046625
    84  C   -0.065572
    85  N   -0.255191
    86  C   -0.047844
    87  C   -0.015415
    88  C   -0.091320
    89  C    0.046832
    90  C    0.117010
    91  C    0.062408
    92  C   -0.077392
    93  H    0.032931
    94  N   -0.423394
    95  C    0.163030
    96  C   -0.175487
    97  C   -0.008851
    98  C    0.152256
    99  C    0.099950
   100  C    0.014626
   101  O   -0.254089
   102  C    0.061508
   103  N   -0.350260
   104  C    0.037705
   105  C   -0.019821
   106  C   -0.034590
   107  C    0.089132
   108  C    0.073590
   109  C    0.034855
   110  C   -0.007526
   111  N   -0.324146
   112  C    0.078823
   113  C   -0.163820
   114  C    0.002533
   115  C    0.096138
   116  C    0.131526
   117  C    0.042119
   118  O   -0.188173
   119  C    0.001050
   120  C    0.210936
   121  O   -0.251975
   122  O   -0.304326
   123  C    0.152490
   124  H   -0.019866
   125  H   -0.016693
   126  H   -0.041407
   127  H    0.003007
   128  H   -0.006804
   129  H    0.030730
   130  H    0.010909
   131  H    0.021318
   132  H    0.012639
   133  H    0.036681
   134  H    0.022971
   135  H    0.018444
   136  H    0.008666
   137  H    0.023981
   138  H    0.039072
   139  H    0.037010
   140  H    0.035476
   141  H    0.034014
   142  H    0.013664
   143  H    0.012348
   144  H    0.024360
   145  H    0.011218
   146  H    0.007464
   147  H    0.005957
   148  H    0.003132
   149  H    0.010626
   150  H    0.017360
   151  H    0.030356
   152  H    0.045703
   153  H    0.007932
   154  H    0.045784
   155  H    0.038550
   156  H    0.043833
   157  H    0.049728
   158  H    0.052569
 Sum of Mulliken charges =  -0.00000

 Dipole moment (field-independent basis, Debye):
    X=              5.3136    Y=             -1.7372    Z=              6.3355  Tot=              8.4493
 Quadrupole moment (field-independent basis, Debye-Ang):
   XX=           -518.3410   YY=           -536.5803   ZZ=           -463.9715
   XY=             -4.2280   XZ=              1.3633   YZ=             36.0749

 Normal termination of Gaussian 16 at Sat Sep  4 00:03:51 2021.
