 Gaussian 16, Revision A.03,
 Gaussian 16:  ES64L-G16RevA.03 25-Dec-2016

 -----------------------------------
 #p cam-b3lyp/Def2SVP td=(nstates=5)
 -----------------------------------

 --------------------------------
 TDDFT excited states in gaussian
 --------------------------------
 Symbolic Z-matrix:
 Charge =  0 Multiplicity = 1

                         Standard orientation:
 ---------------------------------------------------------------------
 Center     Atomic      Atomic             Coordinates (Angstroms)
 Number     Number       Type             X           Y           Z
 ---------------------------------------------------------------------
      1         12           0       15.783793    0.545299    0.554765
      2          6           0       16.089151   -2.275857   -1.626989
      3          6           0       16.590358    2.509887   -2.115986
      4          6           0       15.965871    3.000245    2.553942
      5          6           0       16.123322   -1.669079    3.224393
      6          7           0       16.255853    0.061250   -1.553197
      7          6           0       16.280053   -1.054061   -2.276154
      8          6           0       16.452471   -0.796927   -3.803088
      9          6           0       17.154358    0.633232   -3.739844
     10          6           0       16.607506    1.113462   -2.407082
     11          6           0       18.675316    0.562019   -3.649754
     12          6           0       15.079753   -0.728728   -4.553239
     13          6           0       15.165046   -0.807265   -6.080299
     14          1           0       14.114216   -1.505369   -6.805389
     15          7           0       15.733931    2.488978    0.204798
     16          6           0       16.081670    3.113858   -0.945805
     17          6           0       15.869879    4.557518   -0.705659
     18          6           0       15.551982    4.736768    0.738261
     19          6           0       15.766393    3.401667    1.235164
     20          6           0       15.927906    5.589231   -1.790072
     21          6           0       15.133187    5.925331    1.544524
     22          8           0       15.133459    5.914306    2.822981
     23          6           0       14.802866    7.147768    0.789820
     24          7           0       16.230920    0.690194    2.588657
     25          6           0       16.182849    1.866388    3.223669
     26          6           0       16.260045    1.687493    4.710940
     27          6           0       16.126173    0.118381    4.974989
     28          6           0       16.074362   -0.364790    3.504571
     29          6           0       17.537134    2.210895    5.382582
     30          6           0       15.004995   -0.338906    5.941565
     31          6           0       13.651896   -0.067312    5.323133
     32          7           0       15.881049   -1.609057    0.800405
     33          6           0       16.046455   -2.314114    2.001324
     34          6           0       16.162266   -3.741827    1.651623
     35          6           0       16.072213   -3.766643    0.261256
     36          6           0       15.936747   -2.436169   -0.228417
     37          6           0       16.385568   -4.808445    2.566444
     38          6           0       16.083651   -4.605454   -0.926230
     39          8           0       16.078076   -5.820368   -1.129812
     40          6           0       16.217491   -3.663916   -2.203500
     41          6           0       15.186298   -4.107411   -3.205130
     42          8           0       13.967961   -3.969366   -2.972826
     43          8           0       15.791719   -4.401258   -4.366018
     44          6           0       14.821344   -4.820221   -5.412439
     45          1           0       17.060954    3.201177   -2.817840
     46          1           0       15.924308    3.808203    3.287368
     47          1           0       16.146391   -2.426149    4.010374
     48          1           0       17.102202   -1.508266   -4.313254
     49          1           0       16.819097    1.287037   -4.544743
     50          1           0       19.018771   -0.463358   -3.513512
     51          1           0       18.944633    1.171528   -2.786933
     52          1           0       19.137381    1.042941   -4.512301
     53          1           0       14.658680    0.270473   -4.442086
     54          1           0       14.402590   -1.502433   -4.189707
     55          1           0       16.147197   -1.149598   -6.407555
     56          1           0       15.083761    0.203843   -6.479364
     57          1           0       16.344192    5.180436   -2.709930
     58          1           0       16.650993    6.341489   -1.475489
     59          1           0       14.959415    6.059290   -1.961542
     60          1           0       15.669179    7.453391    0.202754
     61          1           0       14.439544    7.865662    1.524309
     62          1           0       14.012996    6.918205    0.074030
     63          1           0       15.441681    2.204804    5.210036
     64          1           0       17.035468   -0.303219    5.404068
     65          1           0       17.350001    2.942782    6.168729
     66          1           0       18.180038    2.625927    4.606879
     67          1           0       18.179520    1.439637    5.806750
     68          1           0       15.052007    0.226768    6.871484
     69          1           0       15.060112   -1.397823    6.194368
     70          1           0       13.477185    0.979340    5.569768
     71          1           0       12.892299   -0.706736    5.774087
     72          1           0       13.688252   -0.144299    4.236286
     73          1           0       15.715784   -5.613847    2.265302
     74          1           0       16.193624   -4.496525    3.592829
     75          1           0       17.439942   -5.014502    2.382889
     76          1           0       17.232755   -3.787587   -2.579089
     77          1           0       15.137188   -5.800705   -5.768988
     78          1           0       14.778066   -4.007781   -6.138024
     79          1           0       13.809623   -5.041593   -5.070747
     80         12           0      -15.953744   -0.589367    0.539801
     81          6           0      -15.826482    1.650067   -2.261594
     82          6           0      -15.173137    2.078157    2.517061
     83          6           0      -15.615077   -2.610506    2.962148
     84          6           0      -15.590517   -3.216533   -1.721125
     85          7           0      -15.573941    1.538681    0.071406
     86          6           0      -15.614126    2.286638   -1.020975
     87          6           0      -15.495508    3.812305   -0.760572
     88          6           0      -14.734054    3.756627    0.652209
     89          6           0      -15.213085    2.388872    1.134325
     90          6           0      -13.220881    3.713073    0.519013
     91          6           0      -16.896316    4.507267   -0.631104
     92          6           0      -16.863092    6.036237   -0.684991
     93          1           0      -17.970128    6.734078   -1.333044
     94          7           0      -15.950556   -0.259509    2.496772
     95          6           0      -15.629205    0.889321    3.127808
     96          6           0      -15.764706    0.609978    4.565787
     97          6           0      -16.032497   -0.843747    4.738025
     98          6           0      -15.851838   -1.308118    3.377215
     99          6           0      -15.718203    1.685850    5.611617
    100          6           0      -16.379568   -1.679910    5.932417
    101          8           0      -16.334386   -2.960273    5.894122
    102          6           0      -16.683335   -0.954522    7.174608
    103          7           0      -15.435839   -2.600551    0.636178
    104          6           0      -15.413291   -3.253060    1.811612
    105          6           0      -15.285133   -4.743556    1.605729
    106          6           0      -15.470361   -4.977731    0.034605
    107          6           0      -15.589883   -3.508961   -0.427814
    108          6           0      -13.965819   -5.366965    2.060866
    109          6           0      -16.571750   -5.982126   -0.402211
    110          6           0      -17.937768   -5.428341   -0.066496
    111          7           0      -15.929551   -0.798811   -1.610461
    112          6           0      -15.738642   -1.986750   -2.349667
    113          6           0      -15.687231   -1.608038   -3.776683
    114          6           0      -15.829880   -0.212312   -3.767086
    115          6           0      -15.940684    0.248557   -2.427374
    116          6           0      -15.479307   -2.499269   -4.866907
    117          6           0      -15.901256    0.977036   -4.585044
    118          8           0      -15.950512    1.197947   -5.794389
    119          6           0      -15.775302    2.248704   -3.639866
    120          6           0      -16.857735    3.220654   -4.022200
    121          8           0      -18.055424    2.931303   -3.853551
    122          8           0      -16.298997    4.408227   -4.318610
    123          6           0      -17.333629    5.408685   -4.693358
    124          1           0      -14.710450    2.794407    3.196614
    125          1           0      -15.600437   -3.362568    3.754393
    126          1           0      -15.577915   -3.987963   -2.494051
    127          1           0      -14.896652    4.351524   -1.484724
    128          1           0      -15.082892    4.539982    1.320072
    129          1           0      -12.909874    3.607156   -0.509684
    130          1           0      -12.898752    2.859797    1.101416
    131          1           0      -12.774977    4.589956    0.997104
    132          1           0      -17.274464    4.363400    0.389218
    133          1           0      -17.576599    4.134278   -1.371861
    134          1           0      -15.901882    6.414920   -1.053239
    135          1           0      -16.929490    6.420966    0.335599
    136          1           0      -15.343623    2.631145    5.199894
    137          1           0      -14.958908    1.388286    6.342919
    138          1           0      -16.672907    1.814817    6.125986
    139          1           0      -15.830154   -0.339940    7.451771
    140          1           0      -16.994292   -1.718050    7.890299
    141          1           0      -17.516612   -0.268858    6.984507
    142          1           0      -16.066205   -5.275602    2.134820
    143          1           0      -14.556868   -5.379475   -0.427960
    144          1           0      -14.099099   -6.180315    2.798962
    145          1           0      -13.340299   -4.583350    2.467329
    146          1           0      -13.344366   -5.767511    1.261771
    147          1           0      -16.471695   -6.918572    0.152054
    148          1           0      -16.537956   -6.227838   -1.458370
    149          1           0      -18.060282   -5.695756    0.987337
    150          1           0      -18.702688   -5.895263   -0.683686
    151          1           0      -17.945829   -4.334134   -0.132014
    152          1           0      -16.180776   -2.214647   -5.639848
    153          1           0      -15.617678   -3.535451   -4.565340
    154          1           0      -14.435596   -2.276751   -5.104404
    155          1           0      -14.778854    2.667627   -3.785365
    156          1           0      -17.062959    5.793399   -5.681502
    157          1           0      -17.361789    6.135769   -3.860111
    158          1           0      -18.338571    5.046235   -4.875514
 ---------------------------------------------------------------------

 SCF Done:  E(RCAM-B3LYP) =  -4069.81178715     A.U. after   19 cycles

 Excitation energies and oscillator strengths:

 Excited State   1:      Singlet-A      1.6756 eV  739.96 nm  f=0.3903  <S**2>=0.000
     310 -> 316        0.17363
     312 -> 313        0.68603
     310 <- 316        0.10465
 This state for optimization and/or second-order correction.
 Total Energy, E(TD-HF/TD-DFT) =  -4069.75021135
 Copying the excited state density for this state as the 1-particle RhoCI density.

 Excited State   2:      Singlet-A      1.6798 eV  738.07 nm  f=0.3857  <S**2>=0.000
     309 -> 315        0.17552
     311 -> 314        0.68568
     309 <- 315        0.10511

 Excited State   3:      Singlet-A      2.1861 eV  567.14 nm  f=0.1024  <S**2>=0.000
     310 -> 313        0.64248
     312 -> 316       -0.27314

 Excited State   4:      Singlet-A      2.1925 eV  565.49 nm  f=0.0986  <S**2>=0.000
     309 -> 314        0.64071
     311 -> 315       -0.27826

 Excited State   5:      Singlet-A      3.0657 eV  404.43 nm  f=0.0000  <S**2>=0.000
     311 -> 313        0.70711

 The electronic state is 1-A.
 Alpha  occ. eigenvalues --  -46.87796 -46.87661 -19.26355 -19.26278 -19.19166
 Alpha  occ. eigenvalues --  -19.19015 -19.18816 -19.18713 -19.18168 -19.18054
 Alpha  occ. eigenvalues --  -14.42498 -14.42449 -14.41449 -14.41359 -14.39402
 Alpha  occ. eigenvalues --  -14.39352 -14.38601 -14.38586 -10.39095 -10.39075
 Alpha  occ. eigenvalues --  -10.35450 -10.35390 -10.34387 -10.34231 -10.31763
 Alpha  occ. eigenvalues --  -10.31672 -10.31403 -10.31310 -10.31024 -10.30907
 Alpha  occ. eigenvalues --  -10.30569 -10.30507 -10.30398 -10.30362 -10.30207
 Alpha  occ. eigenvalues --  -10.30140 -10.29921 -10.29894 -10.29630 -10.29437
 Alpha  occ. eigenvalues --  -10.29401 -10.29254 -10.28745 -10.28721 -10.28659
 Alpha  occ. eigenvalues --  -10.28530 -10.28406 -10.28364 -10.28142 -10.28113
 Alpha  occ. eigenvalues --  -10.28002 -10.27792 -10.27726 -10.27670 -10.27584
 Alpha  occ. eigenvalues --  -10.27515 -10.27503 -10.27485 -10.27480 -10.27467
 Alpha  occ. eigenvalues --  -10.27464 -10.27452 -10.27402 -10.27373 -10.27155
 Alpha  occ. eigenvalues --  -10.27053 -10.26699 -10.26696 -10.26413 -10.26412
 Alpha  occ. eigenvalues --  -10.26231 -10.26188 -10.26135 -10.26026 -10.26019
 Alpha  occ. eigenvalues --  -10.25934 -10.25852 -10.25843 -10.25438 -10.25392
 Alpha  occ. eigenvalues --  -10.24874 -10.24832 -10.24788 -10.24729 -10.24692
 Alpha  occ. eigenvalues --  -10.24690  -3.16539  -3.16411  -1.91420  -1.91293
 Alpha  occ. eigenvalues --   -1.91007  -1.90882  -1.90849  -1.90719  -1.16649
 Alpha  occ. eigenvalues --   -1.16627  -1.08661  -1.08625  -1.07218  -1.06965
 Alpha  occ. eigenvalues --   -1.06950  -1.06637  -1.04580  -1.04496  -1.03760
 Alpha  occ. eigenvalues --   -1.03664  -1.03233  -1.03039  -1.02411  -1.02112
 Alpha  occ. eigenvalues --   -0.91988  -0.91971  -0.89521  -0.89494  -0.89184
 Alpha  occ. eigenvalues --   -0.89153  -0.88288  -0.88219  -0.87869  -0.87795
 Alpha  occ. eigenvalues --   -0.87685  -0.87671  -0.87274  -0.87120  -0.85001
 Alpha  occ. eigenvalues --   -0.84979  -0.83938  -0.83875  -0.82968  -0.82930
 Alpha  occ. eigenvalues --   -0.82654  -0.82646  -0.81599  -0.81583  -0.80595
 Alpha  occ. eigenvalues --   -0.80444  -0.78797  -0.78636  -0.77217  -0.77145
 Alpha  occ. eigenvalues --   -0.76932  -0.76900  -0.75920  -0.75841  -0.74898
 Alpha  occ. eigenvalues --   -0.74802  -0.72774  -0.72700  -0.71671  -0.71581
 Alpha  occ. eigenvalues --   -0.69909  -0.69756  -0.68871  -0.68829  -0.67640
 Alpha  occ. eigenvalues --   -0.67602  -0.67217  -0.67201  -0.65284  -0.65274
 Alpha  occ. eigenvalues --   -0.64852  -0.64771  -0.64655  -0.64619  -0.64270
 Alpha  occ. eigenvalues --   -0.64203  -0.62294  -0.62281  -0.60442  -0.60339
 Alpha  occ. eigenvalues --   -0.59802  -0.59798  -0.58993  -0.58987  -0.58503
 Alpha  occ. eigenvalues --   -0.58426  -0.57582  -0.57557  -0.57308  -0.57236
 Alpha  occ. eigenvalues --   -0.56309  -0.56205  -0.55974  -0.55890  -0.55520
 Alpha  occ. eigenvalues --   -0.55453  -0.55339  -0.55248  -0.54522  -0.54489
 Alpha  occ. eigenvalues --   -0.53914  -0.53891  -0.53298  -0.53228  -0.53220
 Alpha  occ. eigenvalues --   -0.53143  -0.52913  -0.52904  -0.52755  -0.52668
 Alpha  occ. eigenvalues --   -0.52440  -0.52400  -0.51914  -0.51887  -0.51660
 Alpha  occ. eigenvalues --   -0.51614  -0.51203  -0.51195  -0.50573  -0.50474
 Alpha  occ. eigenvalues --   -0.50033  -0.49980  -0.49918  -0.49866  -0.49513
 Alpha  occ. eigenvalues --   -0.49488  -0.49213  -0.49204  -0.49106  -0.49093
 Alpha  occ. eigenvalues --   -0.48591  -0.48560  -0.48462  -0.48445  -0.48375
 Alpha  occ. eigenvalues --   -0.48338  -0.47693  -0.47595  -0.47296  -0.47118
 Alpha  occ. eigenvalues --   -0.46796  -0.46710  -0.46555  -0.46552  -0.46358
 Alpha  occ. eigenvalues --   -0.46271  -0.46162  -0.46086  -0.45825  -0.45819
 Alpha  occ. eigenvalues --   -0.45207  -0.45202  -0.44576  -0.44516  -0.44506
 Alpha  occ. eigenvalues --   -0.44477  -0.44145  -0.44129  -0.44086  -0.44078
 Alpha  occ. eigenvalues --   -0.44018  -0.43940  -0.43556  -0.43492  -0.43387
 Alpha  occ. eigenvalues --   -0.43384  -0.43026  -0.42933  -0.42903  -0.42697
 Alpha  occ. eigenvalues --   -0.42654  -0.42553  -0.42009  -0.41965  -0.41703
 Alpha  occ. eigenvalues --   -0.41670  -0.41531  -0.41460  -0.41140  -0.40990
 Alpha  occ. eigenvalues --   -0.40867  -0.40823  -0.40723  -0.40699  -0.40572
 Alpha  occ. eigenvalues --   -0.40493  -0.40229  -0.40229  -0.39443  -0.39424
 Alpha  occ. eigenvalues --   -0.38469  -0.38349  -0.37744  -0.37656  -0.37321
 Alpha  occ. eigenvalues --   -0.37266  -0.37261  -0.37201  -0.36775  -0.36710
 Alpha  occ. eigenvalues --   -0.36218  -0.36191  -0.34285  -0.34254  -0.33866
 Alpha  occ. eigenvalues --   -0.33766  -0.33185  -0.33176  -0.31346  -0.31272
 Alpha  occ. eigenvalues --   -0.31035  -0.30973  -0.30027  -0.29958  -0.29449
 Alpha  occ. eigenvalues --   -0.29328  -0.29321  -0.29213  -0.24080  -0.24037
 Alpha  occ. eigenvalues --   -0.21127  -0.21117
 Alpha virt. eigenvalues --   -0.08792  -0.08774  -0.01749  -0.01684  -0.00058
 Alpha virt. eigenvalues --   -0.00029   0.02201   0.02206   0.03121   0.03226
 Alpha virt. eigenvalues --    0.04720   0.04728   0.05102   0.05161   0.06179

 Mulliken charges:
               1
     1  Mg   0.838696
     2  C   -0.002951
     3  C   -0.094095
     4  C   -0.045872
     5  C   -0.063969
     6  N   -0.256757
     7  C   -0.052467
     8  C   -0.013989
     9  C   -0.087005
    10  C    0.046317
    11  C    0.104807
    12  C    0.053451
    13  C   -0.071840
    14  H    0.036205
    15  N   -0.433133
    16  C    0.168419
    17  C   -0.177151
    18  C   -0.004017
    19  C    0.148702
    20  C    0.110183
    21  C    0.012266
    22  O   -0.249667
    23  C    0.062479
    24  N   -0.341117
    25  C    0.041245
    26  C   -0.028170
    27  C   -0.023982
    28  C    0.074837
    29  C    0.076178
    30  C    0.035151
    31  C   -0.004503
    32  N   -0.310481
    33  C    0.080411
    34  C   -0.169721
    35  C    0.008357
    36  C    0.082982
    37  C    0.127312
    38  C    0.046124
    39  O   -0.188419
    40  C   -0.005316
    41  C    0.212862
    42  O   -0.257095
    43  O   -0.304798
    44  C    0.157683
    45  H   -0.017581
    46  H   -0.016871
    47  H   -0.041512
    48  H    0.000954
    49  H   -0.004001
    50  H    0.025479
    51  H    0.016430
    52  H    0.016684
    53  H    0.011213
    54  H    0.044128
    55  H    0.017876
    56  H    0.017974
    57  H    0.005905
    58  H    0.026817
    59  H    0.039559
    60  H    0.037362
    61  H    0.035605
    62  H    0.031511
    63  H    0.016518
    64  H    0.009455
    65  H    0.023177
    66  H    0.012559
    67  H    0.004747
    68  H    0.006328
    69  H    0.004725
    70  H    0.008748
    71  H    0.018114
    72  H    0.029014
    73  H    0.047574
    74  H    0.009090
    75  H    0.046012
    76  H    0.035162
    77  H    0.042962
    78  H    0.046427
    79  H    0.053704
    80  Mg   0.837861
    81  C   -0.016844
    82  C   -0.087784
    83  C   -0.045474
    84  C   -0.064834
    85  N   -0.254552
    86  C   -0.049857
    87  C   -0.015101
    88  C   -0.090501
    89  C    0.045755
    90  C    0.114367
    91  C    0.062528
    92  C   -0.077892
    93  H    0.034872
    94  N   -0.423511
    95  C    0.162930
    96  C   -0.174596
    97  C   -0.007769
    98  C    0.152114
    99  C    0.099347
   100  C    0.015586
   101  O   -0.253137
   102  C    0.061192
   103  N   -0.350044
   104  C    0.037537
   105  C   -0.019855
   106  C   -0.034800
   107  C    0.088873
   108  C    0.073619
   109  C    0.034719
   110  C   -0.007677
   111  N   -0.324103
   112  C    0.078434
   113  C   -0.163129
   114  C    0.002224
   115  C    0.096185
   116  C    0.131492
   117  C    0.042377
   118  O   -0.187927
   119  C    0.000948
   120  C    0.211235
   121  O   -0.251019
   122  O   -0.305634
   123  C    0.152030
   124  H   -0.019637
   125  H   -0.015524
   126  H   -0.040435
   127  H   -0.000670
   128  H   -0.004325
   129  H    0.022456
   130  H    0.014471
   131  H    0.016292
   132  H    0.013929
   133  H    0.037668
   134  H    0.020773
   135  H    0.019605
   136  H    0.008769
   137  H    0.026201
   138  H    0.039808
   139  H    0.038278
   140  H    0.036434
   141  H    0.033884
   142  H    0.014412
   143  H    0.012469
   144  H    0.025194
   145  H    0.011676
   146  H    0.005744
   147  H    0.006310
   148  H    0.003655
   149  H    0.010946
   150  H    0.017928
   151  H    0.030074
   152  H    0.045980
   153  H    0.008532
   154  H    0.046953
   155  H    0.035012
   156  H    0.043881
   157  H    0.049494
   158  H    0.053579
 Sum of Mulliken charges =  -0.00000

 Dipole moment (field-independent basis, Debye):
    X=              3.7944    Y=              5.7775    Z=              1.3117  Tot=              7.0355
 Quadrupole moment (field-independent basis, Debye-Ang):
   XX=           -517.7263   YY=           -500.2175   ZZ=           -498.5948
   XY=             22.4917   XZ=            -92.6012   YZ=              0.8348

 Normal termination of Gaussian 16 at Sun Sep 12 16:23:39 2021.
