 Gaussian 16, Revision A.03,
 Gaussian 16:  ES64L-G16RevA.03 25-Dec-2016

 -----------------------------------
 #p cam-b3lyp/Def2SVP td=(nstates=5)
 -----------------------------------

 --------------------------------
 TDDFT excited states in gaussian
 --------------------------------
 Symbolic Z-matrix:
 Charge =  0 Multiplicity = 1

                         Standard orientation:
 ---------------------------------------------------------------------
 Center     Atomic      Atomic             Coordinates (Angstroms)
 Number     Number       Type             X           Y           Z
 ---------------------------------------------------------------------
      1         12           0        3.868817   -0.546894    1.205242
      2          6           0        4.656831    2.318256   -0.790294
      3          6           0        3.857200    1.528146    3.913957
      4          6           0        3.623890   -3.121673    3.040220
      5          6           0        5.045497   -2.514806   -1.419336
      6          7           0        4.224316    1.628683    1.408052
      7          6           0        4.457849    2.623657    0.557957
      8          6           0        4.396358    4.031423    1.222628
      9          6           0        4.709871    3.612613    2.728718
     10          6           0        4.201734    2.182053    2.693820
     11          6           0        6.198793    3.597061    3.059431
     12          6           0        2.980995    4.688545    1.093515
     13          6           0        2.922033    6.183097    1.422437
     14          1           0        2.015415    7.031804    0.664091
     15          7           0        3.284638   -0.730710    3.083484
     16          6           0        3.336786    0.222420    4.044790
     17          6           0        2.787756   -0.401716    5.267780
     18          6           0        2.588620   -1.851081    4.988892
     19          6           0        3.190021   -1.965673    3.684835
     20          6           0        2.464051    0.369066    6.510704
     21          6           0        1.965984   -2.959389    5.777632
     22          8           0        2.103931   -4.187664    5.450703
     23          6           0        1.254986   -2.570403    7.008978
     24          7           0        4.475666   -2.529011    0.959109
     25          6           0        4.194283   -3.456369    1.880963
     26          6           0        4.471283   -4.838269    1.367579
     27          6           0        4.773661   -4.678057   -0.192117
     28          6           0        4.692922   -3.134682   -0.290835
     29          6           0        5.634506   -5.581075    2.039264
     30          6           0        3.916032   -5.525260   -1.165328
     31          6           0        2.481154   -5.048645   -1.132758
     32          7           0        4.541648   -0.204707   -0.829765
     33          6           0        5.008364   -1.167272   -1.736583
     34          6           0        5.449536   -0.445181   -2.944068
     35          6           0        5.222743    0.897363   -2.647444
     36          6           0        4.699133    1.008937   -1.327718
     37          6           0        6.034582   -1.033659   -4.099858
     38          6           0        5.323979    2.265416   -3.129148
     39          8           0        5.609281    2.785782   -4.208646
     40          6           0        5.075928    3.248617   -1.901299
     41          6           0        4.093591    4.296316   -2.349236
     42          8           0        2.912221    3.993918   -2.614353
     43          8           0        4.628237    5.513579   -2.167671
     44          6           0        3.693297    6.599950   -2.564964
     45          1           0        4.057647    2.035581    4.859617
     46          1           0        3.453747   -4.045233    3.597468
     47          1           0        5.345069   -3.068753   -2.310881
     48          1           0        5.149471    4.735032    0.867413
     49          1           0        4.134924    4.201647    3.442999
     50          1           0        6.806544    3.751509    2.167968
     51          1           0        6.391933    2.612558    3.485980
     52          1           0        6.428140    4.315149    3.847166
     53          1           0        2.331499    4.300169    1.877977
     54          1           0        2.567595    4.521857    0.098205
     55          1           0        3.918978    6.623400    1.456247
     56          1           0        2.542081    6.294571    2.438021
     57          1           0        2.871958    1.378414    6.473660
     58          1           0        2.998605   -0.110008    7.330734
     59          1           0        1.394808    0.375420    6.722861
     60          1           0        1.946773   -2.056928    7.677052
     61          1           0        0.798992   -3.481972    7.393636
     62          1           0        0.479666   -1.846843    6.755425
     63          1           0        3.604853   -5.485179    1.498852
     64          1           0        5.800761   -4.947477   -0.439408
     65          1           0        5.349624   -6.540086    2.472677
     66          1           0        6.063666   -4.922819    2.794123
     67          1           0        6.494512   -5.761534    1.394871
     68          1           0        3.913952   -6.570302   -0.857384
     69          1           0        4.267701   -5.484003   -2.196287
     70          1           0        2.070428   -5.571717   -0.269895
     71          1           0        1.963286   -5.338218   -2.047728
     72          1           0        2.421216   -3.980136   -0.924954
     73          1           0        5.566304   -0.551507   -4.957887
     74          1           0        5.878316   -2.112027   -4.117357
     75          1           0        7.081054   -0.765669   -3.955177
     76          1           0        6.043407    3.678200   -1.643298
     77          1           0        4.211010    7.216047   -3.300240
     78          1           0        3.366456    7.080249   -1.642525
     79          1           0        2.814294    6.295291   -3.134064
     80         12           0       -3.671225   -0.731526   -1.242621
     81          6           0       -5.501097    1.542127    0.845709
     82          6           0       -3.091833    1.895633   -3.339512
     83          6           0       -2.443075   -2.790062   -3.321438
     84          6           0       -5.328598   -3.334563    0.376962
     85          7           0       -4.270541    1.395568   -1.150107
     86          6           0       -4.912385    2.158465   -0.278121
     87          6           0       -4.855291    3.678265   -0.588781
     88          6           0       -4.591073    3.590650   -2.170362
     89          6           0       -3.909292    2.225217   -2.229004
     90          6           0       -5.868251    3.522427   -2.991015
     91          6           0       -3.672912    4.395812    0.152237
     92          6           0       -3.740923    5.924549    0.142152
     93          1           0       -3.267138    6.650104    1.317554
     94          7           0       -2.476540   -0.427626   -2.797911
     95          6           0       -2.350391    0.706983   -3.517649
     96          6           0       -1.360623    0.411093   -4.565010
     97          6           0       -1.035149   -1.039886   -4.506371
     98          6           0       -2.009080   -1.489336   -3.531931
     99          6           0       -0.762705    1.472080   -5.442633
    100          6           0       -0.024251   -1.885553   -5.219901
    101          8           0       -0.076114   -3.165887   -5.190260
    102          6           0        0.972793   -1.171431   -6.030728
    103          7           0       -4.009957   -2.752534   -1.593498
    104          6           0       -3.303830   -3.420799   -2.522335
    105          6           0       -3.522745   -4.910456   -2.406646
    106          6           0       -4.337705   -5.120613   -1.046768
    107          6           0       -4.534979   -3.644005   -0.639207
    108          6           0       -4.282924   -5.562773   -3.561205
    109          6           0       -3.729211   -6.099766   -0.005766
    110          6           0       -2.447152   -5.526682    0.553958
    111          7           0       -5.006680   -0.912958    0.446082
    112          6           0       -5.603695   -2.094183    0.938366
    113          6           0       -6.520862   -1.697623    2.026464
    114          6           0       -6.410231   -0.299872    2.076762
    115          6           0       -5.504415    0.145143    1.076280
    116          6           0       -7.348099   -2.577881    2.779432
    117          6           0       -6.861814    0.901236    2.741682
    118          8           0       -7.565144    1.138916    3.722786
    119          6           0       -6.389464    2.157924    1.890800
    120          6           0       -5.773879    3.153584    2.835371
    121          8           0       -4.722391    2.883007    3.441818
    122          8           0       -6.403839    4.335030    2.702262
    123          6           0       -5.821537    5.358263    3.610958
    124          1           0       -3.045195    2.594654   -4.175025
    125          1           0       -1.964903   -3.552665   -3.940530
    126          1           0       -5.807742   -4.095825    0.996288
    127          1           0       -5.775339    4.216449   -0.394765
    128          1           0       -3.910653    4.371092   -2.500977
    129          1           0       -6.743742    3.424689   -2.366427
    130          1           0       -5.761086    2.656045   -3.630500
    131          1           0       -5.932709    4.385007   -3.660448
    132          1           0       -2.748069    4.245116   -0.419345
    133          1           0       -3.587056    4.044568    1.162133
    134          1           0       -4.728345    6.291212   -0.163621
    135          1           0       -3.065309    6.296866   -0.631761
    136          1           0       -1.316404    2.416045   -5.366709
    137          1           0       -0.912963    1.151682   -6.479274
    138          1           0        0.306200    1.610903   -5.267031
    139          1           0        0.464858   -0.575556   -6.785310
    140          1           0        1.661416   -1.938788   -6.389656
    141          1           0        1.510901   -0.468868   -5.384616
    142          1           0       -2.578246   -5.435729   -2.335061
    143          1           0       -5.340748   -5.532096   -1.232285
    144          1           0       -3.720687   -6.383338   -4.045613
    145          1           0       -4.532672   -4.795637   -4.282075
    146          1           0       -5.261374   -5.963523   -3.301953
    147          1           0       -3.463324   -7.045050   -0.485234
    148          1           0       -4.401661   -6.332061    0.813280
    149          1           0       -1.703088   -5.805806   -0.198072
    150          1           0       -2.218169   -5.971994    1.520027
    151          1           0       -2.487185   -4.431738    0.587534
    152          1           0       -7.268981   -2.270869    3.813826
    153          1           0       -7.048049   -3.615380    2.647773
    154          1           0       -8.319716   -2.370505    2.323100
    155          1           0       -7.268475    2.561269    1.386585
    156          1           0       -6.643101    5.751207    4.217851
    157          1           0       -5.292885    6.074676    2.954428
    158          1           0       -5.136901    5.015862    4.378086
 ---------------------------------------------------------------------

 SCF Done:  E(RCAM-B3LYP) =  -4069.81380518     A.U. after   18 cycles

 Excitation energies and oscillator strengths:

 Excited State   1:      Singlet-A      1.6362 eV  757.77 nm  f=0.0326  <S**2>=0.000
     309 -> 315        0.11443
     310 -> 316       -0.11768
     311 -> 313       -0.47824
     312 -> 314        0.49512
 This state for optimization and/or second-order correction.
 Total Energy, E(TD-HF/TD-DFT) =  -4069.75367662
 Copying the excited state density for this state as the 1-particle RhoCI density.

 Excited State   2:      Singlet-A      1.7120 eV  724.23 nm  f=0.6579  <S**2>=0.000
     309 -> 315       -0.13243
     310 -> 316       -0.12689
     311 -> 313        0.49170
     312 -> 314        0.47515

 Excited State   3:      Singlet-A      2.1840 eV  567.68 nm  f=0.0037  <S**2>=0.000
     309 -> 313        0.41352
     310 -> 314        0.49489
     311 -> 315        0.17233
     312 -> 316        0.20671

 Excited State   4:      Singlet-A      2.1989 eV  563.86 nm  f=0.1667  <S**2>=0.000
     309 -> 313        0.49022
     310 -> 314       -0.40865
     311 -> 315        0.21740
     312 -> 316       -0.18099

 Excited State   5:      Singlet-A      2.3287 eV  532.41 nm  f=0.0000  <S**2>=0.000
     312 -> 313        0.70700

 The electronic state is 1-A.
 Alpha  occ. eigenvalues --  -46.87732 -46.87385 -19.26531 -19.26294 -19.19293
 Alpha  occ. eigenvalues --  -19.19092 -19.18686 -19.18380 -19.18259 -19.17832
 Alpha  occ. eigenvalues --  -14.42392 -14.42220 -14.41367 -14.41086 -14.39331
 Alpha  occ. eigenvalues --  -14.39057 -14.38547 -14.38329 -10.39323 -10.39008
 Alpha  occ. eigenvalues --  -10.35311 -10.35042 -10.34484 -10.34019 -10.31965
 Alpha  occ. eigenvalues --  -10.31759 -10.31382 -10.31048 -10.30854 -10.30719
 Alpha  occ. eigenvalues --  -10.30535 -10.30458 -10.30141 -10.30075 -10.30073
 Alpha  occ. eigenvalues --  -10.29863 -10.29829 -10.29672 -10.29576 -10.29163
 Alpha  occ. eigenvalues --  -10.29103 -10.29088 -10.28747 -10.28609 -10.28543
 Alpha  occ. eigenvalues --  -10.28490 -10.28326 -10.28105 -10.28093 -10.27889
 Alpha  occ. eigenvalues --  -10.27763 -10.27694 -10.27660 -10.27508 -10.27374
 Alpha  occ. eigenvalues --  -10.27359 -10.27320 -10.27316 -10.27288 -10.27283
 Alpha  occ. eigenvalues --  -10.27254 -10.27219 -10.27176 -10.27122 -10.26867
 Alpha  occ. eigenvalues --  -10.26734 -10.26731 -10.26492 -10.26214 -10.26180
 Alpha  occ. eigenvalues --  -10.25914 -10.25910 -10.25890 -10.25887 -10.25873
 Alpha  occ. eigenvalues --  -10.25804 -10.25649 -10.25636 -10.25328 -10.25231
 Alpha  occ. eigenvalues --  -10.24832 -10.24722 -10.24589 -10.24474 -10.24433
 Alpha  occ. eigenvalues --  -10.24271  -3.16474  -3.16136  -1.91356  -1.91018
 Alpha  occ. eigenvalues --   -1.90942  -1.90785  -1.90606  -1.90443  -1.16880
 Alpha  occ. eigenvalues --   -1.16582  -1.08743  -1.08461  -1.07083  -1.06903
 Alpha  occ. eigenvalues --   -1.06871  -1.06636  -1.04532  -1.04216  -1.03688
 Alpha  occ. eigenvalues --   -1.03385  -1.03174  -1.02760  -1.02352  -1.01832
 Alpha  occ. eigenvalues --   -0.91971  -0.91736  -0.89392  -0.89237  -0.89168
 Alpha  occ. eigenvalues --   -0.88914  -0.88156  -0.87981  -0.87861  -0.87615
 Alpha  occ. eigenvalues --   -0.87534  -0.87403  -0.87152  -0.86675  -0.84958
 Alpha  occ. eigenvalues --   -0.84757  -0.83803  -0.83650  -0.82807  -0.82603
 Alpha  occ. eigenvalues --   -0.82580  -0.82323  -0.81655  -0.81420  -0.80579
 Alpha  occ. eigenvalues --   -0.80199  -0.78710  -0.78261  -0.77147  -0.76930
 Alpha  occ. eigenvalues --   -0.76861  -0.76698  -0.75926  -0.75592  -0.74807
 Alpha  occ. eigenvalues --   -0.74568  -0.72719  -0.72417  -0.71630  -0.71336
 Alpha  occ. eigenvalues --   -0.69701  -0.69513  -0.68839  -0.68572  -0.67605
 Alpha  occ. eigenvalues --   -0.67341  -0.67181  -0.66921  -0.65280  -0.65039
 Alpha  occ. eigenvalues --   -0.64850  -0.64579  -0.64533  -0.64423  -0.64148
 Alpha  occ. eigenvalues --   -0.63961  -0.62379  -0.62114  -0.60331  -0.59981
 Alpha  occ. eigenvalues --   -0.59778  -0.59539  -0.58948  -0.58741  -0.58474
 Alpha  occ. eigenvalues --   -0.58175  -0.57684  -0.57376  -0.57236  -0.56959
 Alpha  occ. eigenvalues --   -0.56304  -0.56070  -0.55933  -0.55695  -0.55461
 Alpha  occ. eigenvalues --   -0.55304  -0.55167  -0.55030  -0.54508  -0.54305
 Alpha  occ. eigenvalues --   -0.53885  -0.53678  -0.53239  -0.53180  -0.52966
 Alpha  occ. eigenvalues --   -0.52934  -0.52869  -0.52671  -0.52642  -0.52236
 Alpha  occ. eigenvalues --   -0.52205  -0.52156  -0.51934  -0.51657  -0.51587
 Alpha  occ. eigenvalues --   -0.51369  -0.51173  -0.50969  -0.50386  -0.50016
 Alpha  occ. eigenvalues --   -0.49893  -0.49802  -0.49628  -0.49562  -0.49473
 Alpha  occ. eigenvalues --   -0.49198  -0.49183  -0.49097  -0.48900  -0.48874
 Alpha  occ. eigenvalues --   -0.48632  -0.48429  -0.48336  -0.48335  -0.48168
 Alpha  occ. eigenvalues --   -0.47986  -0.47630  -0.47296  -0.47222  -0.46783
 Alpha  occ. eigenvalues --   -0.46727  -0.46545  -0.46458  -0.46316  -0.46300
 Alpha  occ. eigenvalues --   -0.46121  -0.45979  -0.45879  -0.45847  -0.45635
 Alpha  occ. eigenvalues --   -0.45089  -0.44973  -0.44614  -0.44412  -0.44298
 Alpha  occ. eigenvalues --   -0.44224  -0.44135  -0.43997  -0.43949  -0.43892
 Alpha  occ. eigenvalues --   -0.43815  -0.43579  -0.43551  -0.43388  -0.43328
 Alpha  occ. eigenvalues --   -0.43150  -0.42995  -0.42859  -0.42781  -0.42655
 Alpha  occ. eigenvalues --   -0.42496  -0.42270  -0.41902  -0.41730  -0.41675
 Alpha  occ. eigenvalues --   -0.41493  -0.41431  -0.41224  -0.41101  -0.40811
 Alpha  occ. eigenvalues --   -0.40744  -0.40707  -0.40476  -0.40435  -0.40389
 Alpha  occ. eigenvalues --   -0.40265  -0.40218  -0.39976  -0.39240  -0.39153
 Alpha  occ. eigenvalues --   -0.38352  -0.38125  -0.37755  -0.37456  -0.37252
 Alpha  occ. eigenvalues --   -0.37212  -0.37017  -0.36938  -0.36867  -0.36665
 Alpha  occ. eigenvalues --   -0.36166  -0.36003  -0.34244  -0.33995  -0.33988
 Alpha  occ. eigenvalues --   -0.33753  -0.33139  -0.32898  -0.31222  -0.30984
 Alpha  occ. eigenvalues --   -0.30948  -0.30704  -0.30126  -0.29749  -0.29403
 Alpha  occ. eigenvalues --   -0.29284  -0.29011  -0.28907  -0.24026  -0.23764
 Alpha  occ. eigenvalues --   -0.21065  -0.20822
 Alpha virt. eigenvalues --   -0.08715  -0.08485  -0.01672  -0.01407   0.00016
 Alpha virt. eigenvalues --    0.00305   0.02176   0.02328   0.02480   0.04352
 Alpha virt. eigenvalues --    0.04747   0.04885   0.04970   0.05268   0.06076

 Mulliken charges:
               1
     1  Mg   0.839161
     2  C   -0.003724
     3  C   -0.092845
     4  C   -0.045583
     5  C   -0.061966
     6  N   -0.256998
     7  C   -0.052763
     8  C   -0.014270
     9  C   -0.087287
    10  C    0.046830
    11  C    0.104759
    12  C    0.053021
    13  C   -0.071173
    14  H    0.033170
    15  N   -0.433539
    16  C    0.169626
    17  C   -0.175373
    18  C   -0.003023
    19  C    0.149091
    20  C    0.109809
    21  C    0.013192
    22  O   -0.249866
    23  C    0.061521
    24  N   -0.341351
    25  C    0.042005
    26  C   -0.028233
    27  C   -0.023989
    28  C    0.074762
    29  C    0.076312
    30  C    0.034789
    31  C   -0.007481
    32  N   -0.309751
    33  C    0.079693
    34  C   -0.172918
    35  C    0.005540
    36  C    0.082103
    37  C    0.127783
    38  C    0.042579
    39  O   -0.191269
    40  C   -0.004381
    41  C    0.212933
    42  O   -0.261032
    43  O   -0.303678
    44  C    0.158537
    45  H   -0.017257
    46  H   -0.016563
    47  H   -0.040635
    48  H    0.000214
    49  H   -0.003311
    50  H    0.025167
    51  H    0.016756
    52  H    0.016788
    53  H    0.013766
    54  H    0.042054
    55  H    0.017837
    56  H    0.019295
    57  H    0.006010
    58  H    0.026591
    59  H    0.043839
    60  H    0.037008
    61  H    0.035691
    62  H    0.035259
    63  H    0.016913
    64  H    0.008928
    65  H    0.023019
    66  H    0.012167
    67  H    0.004738
    68  H    0.004987
    69  H    0.006411
    70  H    0.006828
    71  H    0.027375
    72  H    0.028679
    73  H    0.043748
    74  H    0.011138
    75  H    0.046026
    76  H    0.035401
    77  H    0.043016
    78  H    0.047218
    79  H    0.050460
    80  Mg   0.836405
    81  C   -0.017249
    82  C   -0.082967
    83  C   -0.046286
    84  C   -0.064898
    85  N   -0.254549
    86  C   -0.050863
    87  C   -0.015143
    88  C   -0.090900
    89  C    0.045507
    90  C    0.114403
    91  C    0.061394
    92  C   -0.076845
    93  H    0.031152
    94  N   -0.424269
    95  C    0.164318
    96  C   -0.170139
    97  C   -0.007534
    98  C    0.151898
    99  C    0.098129
   100  C    0.016184
   101  O   -0.256901
   102  C    0.058394
   103  N   -0.350162
   104  C    0.038324
   105  C   -0.019756
   106  C   -0.034351
   107  C    0.088277
   108  C    0.074032
   109  C    0.034831
   110  C   -0.008420
   111  N   -0.323680
   112  C    0.077259
   113  C   -0.164395
   114  C    0.001452
   115  C    0.095108
   116  C    0.131817
   117  C    0.041060
   118  O   -0.190153
   119  C    0.001224
   120  C    0.211283
   121  O   -0.252762
   122  O   -0.305210
   123  C    0.152664
   124  H   -0.018958
   125  H   -0.016684
   126  H   -0.041347
   127  H   -0.001674
   128  H   -0.002969
   129  H    0.021870
   130  H    0.014559
   131  H    0.015982
   132  H    0.017708
   133  H    0.035960
   134  H    0.020418
   135  H    0.020325
   136  H    0.008920
   137  H    0.023586
   138  H    0.055922
   139  H    0.038788
   140  H    0.032588
   141  H    0.044101
   142  H    0.013321
   143  H    0.011678
   144  H    0.024050
   145  H    0.011729
   146  H    0.005363
   147  H    0.004916
   148  H    0.003433
   149  H    0.010458
   150  H    0.019985
   151  H    0.030191
   152  H    0.044460
   153  H    0.008119
   154  H    0.046098
   155  H    0.034540
   156  H    0.043386
   157  H    0.049431
   158  H    0.051781
 Sum of Mulliken charges =  -0.00000

 Dipole moment (field-independent basis, Debye):
    X=              1.6549    Y=              3.1258    Z=              0.4907  Tot=              3.5707
 Quadrupole moment (field-independent basis, Debye-Ang):
   XX=           -524.7675   YY=           -462.9491   ZZ=           -518.5945
   XY=              0.6026   XZ=             42.8798   YZ=             12.2109

 Normal termination of Gaussian 16 at Wed Sep  8 17:22:33 2021.
