 Gaussian 16, Revision A.03,
 Gaussian 16:  ES64L-G16RevA.03 25-Dec-2016

 -----------------------------------
 #p cam-b3lyp/Def2SVP td=(nstates=5)
 -----------------------------------

 --------------------------------
 TDDFT excited states in gaussian
 --------------------------------
 Symbolic Z-matrix:
 Charge =  0 Multiplicity = 1

                         Standard orientation:
 ---------------------------------------------------------------------
 Center     Atomic      Atomic             Coordinates (Angstroms)
 Number     Number       Type             X           Y           Z
 ---------------------------------------------------------------------
      1         12           0        5.034017   -1.343455   -0.046646
      2          6           0        6.129072    2.029639   -0.531724
      3          6           0        6.087261   -1.063026    3.186789
      4          6           0        4.496389   -4.451256    0.283740
      5          6           0        5.127236   -1.715817   -3.510505
      6          7           0        5.971221    0.323652    1.068274
      7          6           0        6.282856    1.584075    0.782988
      8          6           0        6.717621    2.410470    2.030154
      9          6           0        7.200338    1.215174    2.968369
     10          6           0        6.343684    0.098175    2.398823
     11          6           0        8.669746    0.850469    2.783076
     12          6           0        5.522687    3.194317    2.670033
     13          6           0        5.916669    4.273213    3.683007
     14          1           0        5.129662    5.495508    3.745984
     15          7           0        4.800616   -2.437283    1.581825
     16          6           0        5.283555   -2.163289    2.817536
     17          6           0        4.841872   -3.277235    3.683979
     18          6           0        4.225101   -4.315063    2.811855
     19          6           0        4.509942   -3.780881    1.504608
     20          6           0        4.977126   -3.262852    5.175706
     21          6           0        3.504072   -5.591719    3.109172
     22          8           0        3.253907   -6.458461    2.203220
     23          6           0        3.172113   -5.844798    4.522960
     24          7           0        5.048846   -2.938217   -1.393550
     25          6           0        4.723388   -4.175088   -1.002125
     26          6           0        4.528756   -5.086315   -2.177592
     27          6           0        4.551627   -4.150305   -3.471081
     28          6           0        4.854090   -2.798441   -2.778804
     29          6           0        5.568961   -6.203610   -2.337709
     30          6           0        3.331532   -4.235211   -4.422175
     31          6           0        2.103140   -3.686707   -3.731310
     32          7           0        5.361541   -0.043507   -1.753663
     33          6           0        5.377766   -0.415321   -3.105759
     34          6           0        5.745689    0.784750   -3.879407
     35          6           0        5.935347    1.773620   -2.916074
     36          6           0        5.726394    1.219406   -1.620900
     37          6           0        5.921763    0.845320   -5.289996
     38          6           0        6.289981    3.163386   -2.678080
     39          8           0        6.483374    4.144428   -3.397558
     40          6           0        6.548674    3.354482   -1.118468
     41          6           0        5.801970    4.585198   -0.681340
     42          8           0        4.554362    4.613079   -0.689279
     43          8           0        6.657326    5.442139   -0.102928
     44          6           0        5.975336    6.672424    0.380232
     45          1           0        6.592492   -1.170330    4.148646
     46          1           0        4.205970   -5.502177    0.344225
     47          1           0        5.093699   -1.734906   -4.601359
     48          1           0        7.542369    3.100970    1.852879
     49          1           0        6.947748    1.390967    4.013844
     50          1           0        9.110569    1.387124    1.943077
     51          1           0        8.681826   -0.223669    2.597135
     52          1           0        9.225825    1.000578    3.708830
     53          1           0        4.961125    2.524566    3.321296
     54          1           0        4.894162    3.637864    1.897021
     55          1           0        6.980177    4.506319    3.623672
     56          1           0        5.784229    3.865432    4.685192
     57          1           0        5.616236   -2.447403    5.512050
     58          1           0        5.519478   -4.165947    5.454959
     59          1           0        4.008461   -3.246422    5.675457
     60          1           0        4.089610   -5.855459    5.111717
     61          1           0        2.580608   -6.759595    4.533852
     62          1           0        2.575635   -5.013476    4.899875
     63          1           0        3.567682   -5.595941   -2.122406
     64          1           0        5.405693   -4.362719   -4.114608
     65          1           0        5.136646   -7.204232   -2.361444
     66          1           0        6.292251   -6.109201   -1.528248
     67          1           0        6.210323   -6.108924   -3.213555
     68          1           0        3.120115   -5.273407   -4.675940
     69          1           0        3.473606   -3.688266   -5.354333
     70          1           0        1.748069   -4.539013   -3.153098
     71          1           0        1.359754   -3.376748   -4.466506
     72          1           0        2.362643   -2.898597   -3.024184
     73          1           0        5.435496    1.763641   -5.618934
     74          1           0        5.492303   -0.027932   -5.780506
     75          1           0        7.009334    0.869140   -5.356899
     76          1           0        7.625315    3.461693   -0.990126
     77          1           0        6.480552    7.521425   -0.080406
     78          1           0        5.970105    6.616584    1.468928
     79          1           0        4.953888    6.826289    0.030507
     80         12           0       -5.199782    1.373890    0.176750
     81          6           0       -5.922358   -2.140180    0.085723
     82          6           0       -4.426580    1.148790   -3.137776
     83          6           0       -4.127354    4.356335    0.326189
     84          6           0       -4.921674    1.085711    3.638731
     85          7           0       -5.212708   -0.330249   -1.233219
     86          6           0       -5.564564   -1.605590   -1.169514
     87          6           0       -5.608408   -2.330010   -2.541683
     88          6           0       -4.588996   -1.384635   -3.345392
     89          6           0       -4.774113   -0.093845   -2.550246
     90          6           0       -3.138342   -1.819421   -3.219316
     91          6           0       -7.039943   -2.307964   -3.183764
     92          6           0       -7.227703   -3.257183   -4.369283
     93          1           0       -8.523798   -3.907461   -4.541777
     94          7           0       -4.865302    2.692297   -1.268404
     95          6           0       -4.589164    2.428348   -2.562759
     96          6           0       -4.405783    3.736666   -3.209917
     97          6           0       -4.433486    4.788545   -2.157539
     98          6           0       -4.456140    3.966847   -0.964070
     99          6           0       -4.306869    3.901315   -4.698723
    100          6           0       -4.426198    6.286145   -2.215376
    101          8           0       -4.214076    6.999263   -1.171674
    102          6           0       -4.581780    6.891602   -3.546051
    103          7           0       -4.402200    2.509538    1.724805
    104          6           0       -4.064583    3.797099    1.534756
    105          6           0       -3.775275    4.484690    2.847730
    106          6           0       -4.225512    3.451343    3.982218
    107          6           0       -4.632061    2.257713    3.090379
    108          6           0       -2.320248    4.891861    3.079011
    109          6           0       -5.242031    3.964732    5.038523
    110          6           0       -6.580695    4.221125    4.384590
    111          7           0       -5.561370   -0.171317    1.642925
    112          6           0       -5.355220   -0.088993    3.037485
    113          6           0       -5.631823   -1.427451    3.598240
    114          6           0       -5.959991   -2.207639    2.479261
    115          6           0       -5.873033   -1.416705    1.301819
    116          6           0       -5.517378   -1.795177    4.968569
    117          6           0       -6.349856   -3.523143    2.025232
    118          8           0       -6.660760   -4.576650    2.579485
    119          6           0       -6.219972   -3.570312    0.441783
    120          6           0       -7.478614   -4.182221   -0.109478
    121          8           0       -8.570244   -3.598654    0.010557
    122          8           0       -7.155606   -5.242214   -0.872678
    123          6           0       -8.370254   -5.876324   -1.450912
    124          1           0       -3.944440    1.143511   -4.115726
    125          1           0       -3.857528    5.408047    0.446911
    126          1           0       -4.952389    0.938988    4.720490
    127          1           0       -5.239824   -3.348721   -2.529531
    128          1           0       -4.906852   -1.246759   -4.375598
    129          1           0       -3.019584   -2.626011   -2.511184
    130          1           0       -2.596233   -0.943047   -2.888958
    131          1           0       -2.733318   -2.071039   -4.203676
    132          1           0       -7.191275   -1.345001   -3.688287
    133          1           0       -7.792353   -2.500608   -2.443904
    134          1           0       -6.416507   -3.991807   -4.441625
    135          1           0       -7.148561   -2.678699   -5.292928
    136          1           0       -4.151773    2.938221   -5.200510
    137          1           0       -3.387541    4.462563   -4.897979
    138          1           0       -5.153224    4.448674   -5.119127
    139          1           0       -3.783705    6.542758   -4.197079
    140          1           0       -4.641487    7.967758   -3.372288
    141          1           0       -5.522058    6.537951   -3.983556
    142          1           0       -4.359448    5.391399    2.946405
    143          1           0       -3.371815    3.114280    4.588380
    144          1           0       -2.196168    5.972694    3.280214
    145          1           0       -1.741685    4.597311    2.213530
    146          1           0       -1.815251    4.362846    3.885436
    147          1           0       -4.909719    4.920740    5.450563
    148          1           0       -5.378745    3.284642    5.872648
    149          1           0       -6.460259    5.222317    3.960096
    150          1           0       -7.378695    4.199296    5.124027
    151          1           0       -6.751188    3.528485    3.552219
    152          1           0       -6.386766   -2.394660    5.203703
    153          1           0       -5.451695   -0.919558    5.611031
    154          1           0       -4.579447   -2.356286    4.942262
    155          1           0       -5.337195   -4.164700    0.203056
    156          1           0       -8.350180   -6.930734   -1.158514
    157          1           0       -8.336973   -5.653190   -2.533893
    158          1           0       -9.332084   -5.566528   -1.059284
 ---------------------------------------------------------------------

 SCF Done:  E(RCAM-B3LYP) =  -4069.81167310     A.U. after   19 cycles

 Excitation energies and oscillator strengths:

 Excited State   1:      Singlet-A      1.6575 eV  748.01 nm  f=0.0098  <S**2>=0.000
     309 -> 315        0.11289
     310 -> 316        0.12638
     311 -> 313        0.45667
     312 -> 314        0.51341
 This state for optimization and/or second-order correction.
 Total Energy, E(TD-HF/TD-DFT) =  -4069.75076005
 Copying the excited state density for this state as the 1-particle RhoCI density.

 Excited State   2:      Singlet-A      1.6974 eV  730.43 nm  f=0.7098  <S**2>=0.000
     309 -> 315        0.13452
     310 -> 316       -0.11925
     311 -> 313        0.51153
     312 -> 314       -0.45507

 Excited State   3:      Singlet-A      2.1844 eV  567.58 nm  f=0.0202  <S**2>=0.000
     309 -> 313        0.29081
     310 -> 314        0.57461
     311 -> 315       -0.12165
     312 -> 316       -0.24177

 Excited State   4:      Singlet-A      2.1954 eV  564.75 nm  f=0.1612  <S**2>=0.000
     309 -> 313        0.57103
     310 -> 314       -0.28778
     311 -> 315       -0.25033
     312 -> 316        0.12702

 Excited State   5:      Singlet-A      2.4865 eV  498.64 nm  f=0.0000  <S**2>=0.000
     312 -> 313        0.70710

 The electronic state is 1-A.
 Alpha  occ. eigenvalues --  -46.87878 -46.87493 -19.26320 -19.26228 -19.19062
 Alpha  occ. eigenvalues --  -19.19035 -19.18843 -19.18510 -19.18243 -19.17899
 Alpha  occ. eigenvalues --  -14.42528 -14.42332 -14.41537 -14.41195 -14.39478
 Alpha  occ. eigenvalues --  -14.39177 -14.38671 -14.38438 -10.39124 -10.38962
 Alpha  occ. eigenvalues --  -10.35473 -10.35184 -10.34463 -10.34079 -10.31697
 Alpha  occ. eigenvalues --  -10.31652 -10.31488 -10.31156 -10.30973 -10.30847
 Alpha  occ. eigenvalues --  -10.30655 -10.30590 -10.30295 -10.30234 -10.30205
 Alpha  occ. eigenvalues --  -10.30016 -10.29971 -10.29739 -10.29708 -10.29330
 Alpha  occ. eigenvalues --  -10.29258 -10.29236 -10.28810 -10.28589 -10.28571
 Alpha  occ. eigenvalues --  -10.28548 -10.28436 -10.28230 -10.28182 -10.27991
 Alpha  occ. eigenvalues --  -10.27871 -10.27834 -10.27805 -10.27653 -10.27630
 Alpha  occ. eigenvalues --  -10.27560 -10.27527 -10.27500 -10.27478 -10.27389
 Alpha  occ. eigenvalues --  -10.27318 -10.27289 -10.27246 -10.27225 -10.27221
 Alpha  occ. eigenvalues --  -10.26899 -10.26762 -10.26564 -10.26394 -10.26373
 Alpha  occ. eigenvalues --  -10.26294 -10.26187 -10.26117 -10.26045 -10.25966
 Alpha  occ. eigenvalues --  -10.25866 -10.25784 -10.25760 -10.25527 -10.25213
 Alpha  occ. eigenvalues --  -10.24929 -10.24911 -10.24868 -10.24710 -10.24638
 Alpha  occ. eigenvalues --  -10.24516  -3.16621  -3.16243  -1.91503  -1.91125
 Alpha  occ. eigenvalues --   -1.91089  -1.90931  -1.90714  -1.90551  -1.16670
 Alpha  occ. eigenvalues --   -1.16521  -1.08700  -1.08511  -1.07241  -1.06820
 Alpha  occ. eigenvalues --   -1.06757  -1.06685  -1.04657  -1.04330  -1.03844
 Alpha  occ. eigenvalues --   -1.03496  -1.03315  -1.02874  -1.02494  -1.01946
 Alpha  occ. eigenvalues --   -0.92047  -0.91827  -0.89636  -0.89349  -0.89255
 Alpha  occ. eigenvalues --   -0.89003  -0.88397  -0.88073  -0.87963  -0.87751
 Alpha  occ. eigenvalues --   -0.87654  -0.87525  -0.87327  -0.86925  -0.85049
 Alpha  occ. eigenvalues --   -0.84848  -0.84060  -0.83735  -0.83019  -0.82743
 Alpha  occ. eigenvalues --   -0.82707  -0.82489  -0.81649  -0.81458  -0.80662
 Alpha  occ. eigenvalues --   -0.80288  -0.78865  -0.78461  -0.77310  -0.77009
 Alpha  occ. eigenvalues --   -0.76994  -0.76757  -0.75990  -0.75688  -0.74994
 Alpha  occ. eigenvalues --   -0.74646  -0.72862  -0.72544  -0.71750  -0.71420
 Alpha  occ. eigenvalues --   -0.70053  -0.69630  -0.68940  -0.68674  -0.67712
 Alpha  occ. eigenvalues --   -0.67441  -0.67275  -0.67042  -0.65359  -0.65124
 Alpha  occ. eigenvalues --   -0.64933  -0.64700  -0.64618  -0.64505  -0.64375
 Alpha  occ. eigenvalues --   -0.64059  -0.62360  -0.62141  -0.60510  -0.60159
 Alpha  occ. eigenvalues --   -0.59874  -0.59643  -0.59070  -0.58835  -0.58583
 Alpha  occ. eigenvalues --   -0.58269  -0.57651  -0.57411  -0.57390  -0.57077
 Alpha  occ. eigenvalues --   -0.56384  -0.56049  -0.56029  -0.55746  -0.55580
 Alpha  occ. eigenvalues --   -0.55438  -0.55286  -0.55108  -0.54611  -0.54353
 Alpha  occ. eigenvalues --   -0.53960  -0.53765  -0.53376  -0.53274  -0.53072
 Alpha  occ. eigenvalues --   -0.52988  -0.52980  -0.52804  -0.52755  -0.52587
 Alpha  occ. eigenvalues --   -0.52473  -0.52284  -0.52017  -0.51768  -0.51672
 Alpha  occ. eigenvalues --   -0.51499  -0.51284  -0.51058  -0.50613  -0.50277
 Alpha  occ. eigenvalues --   -0.50146  -0.49971  -0.49813  -0.49706  -0.49569
 Alpha  occ. eigenvalues --   -0.49316  -0.49282  -0.49163  -0.49041  -0.48957
 Alpha  occ. eigenvalues --   -0.48665  -0.48548  -0.48490  -0.48412  -0.48227
 Alpha  occ. eigenvalues --   -0.48151  -0.47766  -0.47433  -0.47364  -0.46945
 Alpha  occ. eigenvalues --   -0.46891  -0.46617  -0.46562  -0.46444  -0.46403
 Alpha  occ. eigenvalues --   -0.46248  -0.46111  -0.45940  -0.45901  -0.45691
 Alpha  occ. eigenvalues --   -0.45301  -0.45042  -0.44658  -0.44573  -0.44372
 Alpha  occ. eigenvalues --   -0.44326  -0.44242  -0.44154  -0.44075  -0.43975
 Alpha  occ. eigenvalues --   -0.43924  -0.43765  -0.43565  -0.43465  -0.43420
 Alpha  occ. eigenvalues --   -0.43233  -0.43110  -0.42806  -0.42792  -0.42755
 Alpha  occ. eigenvalues --   -0.42726  -0.42403  -0.42120  -0.41829  -0.41783
 Alpha  occ. eigenvalues --   -0.41605  -0.41516  -0.41314  -0.41216  -0.40960
 Alpha  occ. eigenvalues --   -0.40859  -0.40831  -0.40676  -0.40572  -0.40521
 Alpha  occ. eigenvalues --   -0.40351  -0.40290  -0.40076  -0.39600  -0.39301
 Alpha  occ. eigenvalues --   -0.38575  -0.38204  -0.37814  -0.37515  -0.37421
 Alpha  occ. eigenvalues --   -0.37331  -0.37118  -0.37044  -0.36778  -0.36642
 Alpha  occ. eigenvalues --   -0.36270  -0.36071  -0.34368  -0.34094  -0.33819
 Alpha  occ. eigenvalues --   -0.33728  -0.33265  -0.33012  -0.31376  -0.31111
 Alpha  occ. eigenvalues --   -0.31071  -0.30805  -0.30103  -0.29807  -0.29518
 Alpha  occ. eigenvalues --   -0.29401  -0.29147  -0.29048  -0.24161  -0.23870
 Alpha  occ. eigenvalues --   -0.21210  -0.20951
 Alpha virt. eigenvalues --   -0.08850  -0.08620  -0.01829  -0.01514  -0.00112
 Alpha virt. eigenvalues --    0.00157   0.02121   0.02361   0.03013   0.03381
 Alpha virt. eigenvalues --    0.04643   0.04882   0.05050   0.05297   0.06120

 Mulliken charges:
               1
     1  Mg   0.838571
     2  C   -0.002755
     3  C   -0.094046
     4  C   -0.045870
     5  C   -0.064431
     6  N   -0.256773
     7  C   -0.052523
     8  C   -0.013975
     9  C   -0.087031
    10  C    0.046407
    11  C    0.104765
    12  C    0.053463
    13  C   -0.071949
    14  H    0.036426
    15  N   -0.433253
    16  C    0.168588
    17  C   -0.176908
    18  C   -0.003628
    19  C    0.148855
    20  C    0.110151
    21  C    0.012754
    22  O   -0.249138
    23  C    0.062277
    24  N   -0.341009
    25  C    0.041173
    26  C   -0.028346
    27  C   -0.023702
    28  C    0.074436
    29  C    0.076062
    30  C    0.035299
    31  C   -0.004544
    32  N   -0.310319
    33  C    0.080009
    34  C   -0.170536
    35  C    0.008323
    36  C    0.082751
    37  C    0.127497
    38  C    0.045921
    39  O   -0.188597
    40  C   -0.005222
    41  C    0.212779
    42  O   -0.256880
    43  O   -0.304885
    44  C    0.157443
    45  H   -0.017293
    46  H   -0.016540
    47  H   -0.042220
    48  H    0.001088
    49  H   -0.003936
    50  H    0.025560
    51  H    0.016473
    52  H    0.016879
    53  H    0.010917
    54  H    0.044324
    55  H    0.018025
    56  H    0.017806
    57  H    0.005870
    58  H    0.027236
    59  H    0.039952
    60  H    0.037227
    61  H    0.036883
    62  H    0.031822
    63  H    0.016515
    64  H    0.009572
    65  H    0.023498
    66  H    0.012918
    67  H    0.004746
    68  H    0.006429
    69  H    0.004111
    70  H    0.009251
    71  H    0.015301
    72  H    0.029491
    73  H    0.046822
    74  H    0.008317
    75  H    0.046240
    76  H    0.035253
    77  H    0.043057
    78  H    0.046417
    79  H    0.054343
    80  Mg   0.838027
    81  C   -0.016792
    82  C   -0.087270
    83  C   -0.044125
    84  C   -0.065300
    85  N   -0.254534
    86  C   -0.050039
    87  C   -0.015081
    88  C   -0.090644
    89  C    0.045801
    90  C    0.114061
    91  C    0.062616
    92  C   -0.077651
    93  H    0.034433
    94  N   -0.423895
    95  C    0.163218
    96  C   -0.173052
    97  C   -0.006796
    98  C    0.152449
    99  C    0.098687
   100  C    0.016517
   101  O   -0.252941
   102  C    0.061004
   103  N   -0.349937
   104  C    0.037909
   105  C   -0.020057
   106  C   -0.034356
   107  C    0.088724
   108  C    0.073180
   109  C    0.034918
   110  C   -0.007560
   111  N   -0.323903
   112  C    0.078153
   113  C   -0.163856
   114  C    0.002123
   115  C    0.095872
   116  C    0.131563
   117  C    0.042114
   118  O   -0.188580
   119  C    0.000914
   120  C    0.211122
   121  O   -0.251282
   122  O   -0.305502
   123  C    0.152177
   124  H   -0.019083
   125  H   -0.015028
   126  H   -0.041577
   127  H   -0.000782
   128  H   -0.004690
   129  H    0.022953
   130  H    0.015782
   131  H    0.015263
   132  H    0.013847
   133  H    0.037546
   134  H    0.020546
   135  H    0.019417
   136  H    0.008605
   137  H    0.028495
   138  H    0.039402
   139  H    0.039733
   140  H    0.036229
   141  H    0.033172
   142  H    0.014044
   143  H    0.011324
   144  H    0.024551
   145  H    0.015171
   146  H    0.004323
   147  H    0.005660
   148  H    0.002863
   149  H    0.010935
   150  H    0.017389
   151  H    0.030427
   152  H    0.045586
   153  H    0.007780
   154  H    0.045900
   155  H    0.035418
   156  H    0.043729
   157  H    0.049332
   158  H    0.053326
 Sum of Mulliken charges =  -0.00000

 Dipole moment (field-independent basis, Debye):
    X=              4.1521    Y=             -0.4174    Z=              0.1864  Tot=              4.1772
 Quadrupole moment (field-independent basis, Debye-Ang):
   XX=           -525.1996   YY=           -545.8865   ZZ=           -448.7380
   XY=            -21.1416   XZ=             56.2452   YZ=             39.9901

 Normal termination of Gaussian 16 at Sat Sep  4 02:21:21 2021.
