 Gaussian 16, Revision A.03,
 Gaussian 16:  ES64L-G16RevA.03 25-Dec-2016

 -----------------------------------
 #p cam-b3lyp/Def2SVP td=(nstates=5)
 -----------------------------------

 --------------------------------
 TDDFT excited states in gaussian
 --------------------------------
 Symbolic Z-matrix:
 Charge =  0 Multiplicity = 1

                         Standard orientation:
 ---------------------------------------------------------------------
 Center     Atomic      Atomic             Coordinates (Angstroms)
 Number     Number       Type             X           Y           Z
 ---------------------------------------------------------------------
      1         12           0       -3.853424   -0.800922    0.266530
      2          6           0       -4.067045    2.765482    0.484122
      3          6           0       -4.889841   -0.516579   -2.971996
      4          6           0       -4.110011   -3.960698    0.185308
      5          6           0       -3.944079   -0.871290    3.749703
      6          7           0       -4.378419    0.956156   -0.973511
      7          6           0       -4.361000    2.272546   -0.789161
      8          6           0       -4.610757    3.082799   -2.096252
      9          6           0       -5.398751    1.976653   -2.931421
     10          6           0       -4.830172    0.728881   -2.278959
     11          6           0       -6.907270    2.004081   -2.707549
     12          6           0       -3.276468    3.493409   -2.805337
     13          6           0       -3.418077    4.555307   -3.899720
     14          1           0       -2.355191    5.534983   -4.066622
     15          7           0       -3.940988   -2.040147   -1.269538
     16          6           0       -4.373712   -1.750409   -2.520172
     17          6           0       -4.244335   -3.002328   -3.296472
     18          6           0       -3.880510   -4.090780   -2.347263
     19          6           0       -3.989680   -3.403798   -1.085710
     20          6           0       -4.411282   -3.069362   -4.783544
     21          6           0       -3.505734   -5.525556   -2.544981
     22          8           0       -3.453789   -6.355070   -1.573497
     23          6           0       -3.284231   -5.961016   -3.935792
     24          7           0       -4.226512   -2.233629    1.738193
     25          6           0       -4.227530   -3.538864    1.446059
     26          6           0       -4.233237   -4.376828    2.690134
     27          6           0       -3.989659   -3.368051    3.903721
     28          6           0       -3.966628   -2.040716    3.106273
     29          6           0       -5.512826   -5.184709    2.947021
     30          6           0       -2.803718   -3.680350    4.850521
     31          6           0       -1.496573   -3.509209    4.109452
     32          7           0       -3.803973    0.666757    1.864816
     33          6           0       -3.875836    0.415612    3.242654
     34          6           0       -3.914929    1.725225    3.919007
     35          6           0       -3.879585    2.653210    2.880046
     36          6           0       -3.848553    1.966680    1.632646
     37          6           0       -4.033138    1.935805    5.321190
     38          6           0       -3.885683    4.064996    2.532655
     39          8           0       -3.811331    5.115572    3.171603
     40          6           0       -4.130286    4.194065    0.964427
     41          6           0       -3.114260    5.163162    0.424193
     42          8           0       -1.898752    4.880499    0.421643
     43          8           0       -3.746129    6.158833   -0.216060
     44          6           0       -2.794110    7.140069   -0.801713
     45          1           0       -5.431202   -0.568431   -3.918664
     46          1           0       -4.090216   -5.052267    0.208196
     47          1           0       -3.887430   -0.814294    4.838278
     48          1           0       -5.234130    3.968180   -1.970042
     49          1           0       -5.138307    2.003308   -3.989334
     50          1           0       -7.179280    2.696354   -1.910874
     51          1           0       -7.179685    0.984229   -2.435180
     52          1           0       -7.433266    2.216189   -3.638739
     53          1           0       -2.915429    2.657099   -3.403918
     54          1           0       -2.537533    3.824764   -2.074922
     55          1           0       -4.388947    5.049359   -3.852458
     56          1           0       -3.417183    4.051688   -4.866450
     57          1           0       -4.837552   -2.148931   -5.180592
     58          1           0       -5.167325   -3.827944   -4.985193
     59          1           0       -3.482227   -3.332713   -5.289345
     60          1           0       -4.191123   -5.788402   -4.515706
     61          1           0       -2.937834   -6.992200   -3.876477
     62          1           0       -2.510888   -5.335579   -4.382689
     63          1           0       -3.429858   -5.112086    2.670069
     64          1           0       -4.852377   -3.311384    4.567935
     65          1           0       -5.340926   -6.256524    3.048845
     66          1           0       -6.211475   -4.975879    2.137348
     67          1           0       -6.087426   -4.866567    3.816525
     68          1           0       -2.848974   -4.715859    5.186109
     69          1           0       -2.781382   -3.045344    5.736252
     70          1           0       -1.378749   -4.464835    3.599818
     71          1           0       -0.680425   -3.338301    4.812235
     72          1           0       -1.571744   -2.738029    3.342564
     73          1           0       -3.326338    2.726848    5.571495
     74          1           0       -3.820144    1.023527    5.877953
     75          1           0       -5.078872    2.234345    5.393097
     76          1           0       -5.149980    4.555413    0.834911
     77          1           0       -3.061292    8.120806   -0.408009
     78          1           0       -2.831682    7.001251   -1.882325
     79          1           0       -1.757448    7.061525   -0.472319
     80         12           0        4.081003   -0.749883   -0.129143
     81          6           0        3.701681    2.810902    0.107462
     82          6           0        2.897045   -0.514052   -3.319321
     83          6           0        3.976484   -3.919807   -0.218907
     84          6           0        4.132683   -0.836391    3.354470
     85          7           0        3.419102    0.980353   -1.337624
     86          6           0        3.377511    2.292746   -1.163705
     87          6           0        3.042860    3.101189   -2.445886
     88          6           0        2.267604    1.953305   -3.258423
     89          6           0        2.921890    0.724620   -2.629996
     90          6           0        0.778206    1.906321   -2.960415
     91          6           0        4.330643    3.574113   -3.207442
     92          6           0        4.086549    4.625377   -4.292349
     93          1           0        5.099063    5.656395   -4.502871
     94          7           0        3.991766   -1.988578   -1.677125
     95          6           0        3.501100   -1.721661   -2.905651
     96          6           0        3.644462   -2.967070   -3.675437
     97          6           0        4.107913   -4.038395   -2.752300
     98          6           0        4.021511   -3.347035   -1.481619
     99          6           0        3.427505   -3.036092   -5.159207
    100          6           0        4.543077   -5.455216   -2.974715
    101          8           0        4.676908   -6.279083   -2.002010
    102          6           0        4.717554   -5.875657   -4.372667
    103          7           0        3.845509   -2.195208    1.346636
    104          6           0        3.889585   -3.504789    1.045026
    105          6           0        3.973898   -4.349629    2.293843
    106          6           0        4.222141   -3.320684    3.492686
    107          6           0        4.146053   -1.993309    2.706768
    108          6           0        2.744849   -5.204107    2.603169
    109          6           0        5.461080   -3.575991    4.394093
    110          6           0        6.729767   -3.352918    3.602855
    111          7           0        4.130372    0.710448    1.462411
    112          6           0        4.121515    0.458459    2.851841
    113          6           0        4.047395    1.768097    3.531370
    114          6           0        3.994619    2.697383    2.481540
    115          6           0        4.012772    2.013993    1.235693
    116          6           0        3.987711    1.972870    4.938720
    117          6           0        3.916971    4.100508    2.144026
    118          8           0        3.959954    5.151253    2.782631
    119          6           0        3.596252    4.230090    0.592659
    120          6           0        4.540871    5.243081    0.006095
    121          8           0        5.763407    5.018493   -0.033750
    122          8           0        3.828866    6.207836   -0.604360
    123          6           0        4.722043    7.230378   -1.211375
    124          1           0        2.325493   -0.581029   -4.245452
    125          1           0        4.050118   -5.009475   -0.192546
    126          1           0        4.243224   -0.773314    4.439131
    127          1           0        2.389966    3.951470   -2.289302
    128          1           0        2.490480    2.002425   -4.321098
    129          1           0        0.506148    2.577943   -2.159769
    130          1           0        0.565765    0.881964   -2.683615
    131          1           0        0.205119    2.097149   -3.872278
    132          1           0        4.704021    2.748320   -3.826621
    133          1           0        5.071222    3.931119   -2.518434
    134          1           0        3.089840    5.076136   -4.212724
    135          1           0        4.077869    4.125675   -5.264066
    136          1           0        2.933845   -2.131827   -5.536050
    137          1           0        2.701998   -3.836750   -5.339380
    138          1           0        4.344262   -3.259584   -5.709006
    139          1           0        3.781772   -5.740689   -4.909842
    140          1           0        5.116720   -6.890676   -4.324909
    141          1           0        5.451280   -5.214929   -4.847742
    142          1           0        4.810235   -5.035797    2.240805
    143          1           0        3.382995   -3.313425    4.203754
    144          1           0        2.974552   -6.282613    2.693428
    145          1           0        2.008353   -5.035695    1.828735
    146          1           0        2.201605   -4.922836    3.503717
    147          1           0        5.480639   -4.617317    4.724869
    148          1           0        5.483465   -2.955106    5.283469
    149          1           0        6.866524   -4.305397    3.082110
    150          1           0        7.564648   -3.143653    4.268611
    151          1           0        6.587159   -2.578053    2.840698
    152          1           0        4.658619    2.791470    5.162961
    153          1           0        4.262386    1.072050    5.483556
    154          1           0        2.928317    2.216337    5.055637
    155          1           0        2.554488    4.538941    0.498189
    156          1           0        4.420970    8.200229   -0.803416
    157          1           0        4.631817    7.094191   -2.305479
    158          1           0        5.771112    7.203586   -0.940826
 ---------------------------------------------------------------------

 SCF Done:  E(RCAM-B3LYP) =  -4069.81154636     A.U. after   19 cycles

 Excitation energies and oscillator strengths:

 Excited State   1:      Singlet-A      1.6377 eV  757.06 nm  f=0.0007  <S**2>=0.000
     309 -> 315       -0.11405
     310 -> 316        0.11811
     311 -> 313       -0.47523
     312 -> 314        0.49790
 This state for optimization and/or second-order correction.
 Total Energy, E(TD-HF/TD-DFT) =  -4069.75136208
 Copying the excited state density for this state as the 1-particle RhoCI density.

 Excited State   2:      Singlet-A      1.7118 eV  724.30 nm  f=0.6777  <S**2>=0.000
     309 -> 315        0.13336
     310 -> 316        0.12586
     311 -> 313        0.49448
     312 -> 314        0.47201

 Excited State   3:      Singlet-A      2.1771 eV  569.48 nm  f=0.0106  <S**2>=0.000
     309 -> 313       -0.33830
     310 -> 314        0.55087
     311 -> 315        0.13796
     312 -> 316       -0.22648

 Excited State   4:      Singlet-A      2.1979 eV  564.10 nm  f=0.1571  <S**2>=0.000
     309 -> 313        0.54437
     310 -> 314        0.33199
     311 -> 315       -0.24195
     312 -> 316       -0.14926

 Excited State   5:      Singlet-A      2.2254 eV  557.14 nm  f=0.0000  <S**2>=0.000
     312 -> 313        0.70704

 The electronic state is 1-A.
 Alpha  occ. eigenvalues --  -46.87933 -46.87374 -19.26424 -19.25999 -19.19186
 Alpha  occ. eigenvalues --  -19.18910 -19.18808 -19.18475 -19.18252 -19.17637
 Alpha  occ. eigenvalues --  -14.42603 -14.42212 -14.41585 -14.41075 -14.39536
 Alpha  occ. eigenvalues --  -14.39069 -14.38714 -14.38292 -10.39240 -10.38720
 Alpha  occ. eigenvalues --  -10.35545 -10.35159 -10.34479 -10.33801 -10.31794
 Alpha  occ. eigenvalues --  -10.31561 -10.31491 -10.31077 -10.30998 -10.30729
 Alpha  occ. eigenvalues --  -10.30708 -10.30626 -10.30344 -10.30093 -10.30049
 Alpha  occ. eigenvalues --  -10.30039 -10.29906 -10.29755 -10.29595 -10.29387
 Alpha  occ. eigenvalues --  -10.29179 -10.29107 -10.28982 -10.28898 -10.28500
 Alpha  occ. eigenvalues --  -10.28495 -10.28400 -10.28322 -10.28088 -10.27913
 Alpha  occ. eigenvalues --  -10.27881 -10.27851 -10.27713 -10.27695 -10.27672
 Alpha  occ. eigenvalues --  -10.27633 -10.27562 -10.27547 -10.27406 -10.27333
 Alpha  occ. eigenvalues --  -10.27317 -10.27283 -10.27185 -10.27164 -10.27144
 Alpha  occ. eigenvalues --  -10.27055 -10.26542 -10.26529 -10.26460 -10.26405
 Alpha  occ. eigenvalues --  -10.26342 -10.26255 -10.26155 -10.25971 -10.25918
 Alpha  occ. eigenvalues --  -10.25670 -10.25669 -10.25530 -10.25527 -10.25163
 Alpha  occ. eigenvalues --  -10.24949 -10.24912 -10.24881 -10.24562 -10.24546
 Alpha  occ. eigenvalues --  -10.24392  -3.16675  -3.16125  -1.91557  -1.91144
 Alpha  occ. eigenvalues --   -1.91007  -1.90985  -1.90596  -1.90432  -1.16775
 Alpha  occ. eigenvalues --   -1.16292  -1.08708  -1.08228  -1.07306  -1.06796
 Alpha  occ. eigenvalues --   -1.06730  -1.06591  -1.04735  -1.04198  -1.03898
 Alpha  occ. eigenvalues --   -1.03373  -1.03363  -1.02752  -1.02543  -1.01815
 Alpha  occ. eigenvalues --   -0.92107  -0.91634  -0.89657  -0.89404  -0.89234
 Alpha  occ. eigenvalues --   -0.88861  -0.88421  -0.87984  -0.87973  -0.87839
 Alpha  occ. eigenvalues --   -0.87482  -0.87412  -0.87411  -0.86890  -0.85184
 Alpha  occ. eigenvalues --   -0.84727  -0.84071  -0.83631  -0.83098  -0.82822
 Alpha  occ. eigenvalues --   -0.82723  -0.82383  -0.81723  -0.81288  -0.80738
 Alpha  occ. eigenvalues --   -0.80152  -0.78934  -0.78376  -0.77385  -0.77109
 Alpha  occ. eigenvalues --   -0.76886  -0.76620  -0.76079  -0.75534  -0.75027
 Alpha  occ. eigenvalues --   -0.74538  -0.72908  -0.72410  -0.71813  -0.71285
 Alpha  occ. eigenvalues --   -0.70054  -0.69540  -0.69057  -0.68557  -0.67777
 Alpha  occ. eigenvalues --   -0.67436  -0.67315  -0.66961  -0.65479  -0.64994
 Alpha  occ. eigenvalues --   -0.64975  -0.64775  -0.64485  -0.64406  -0.64365
 Alpha  occ. eigenvalues --   -0.63948  -0.62430  -0.61967  -0.60574  -0.60091
 Alpha  occ. eigenvalues --   -0.59987  -0.59501  -0.59125  -0.58699  -0.58639
 Alpha  occ. eigenvalues --   -0.58121  -0.57713  -0.57439  -0.57168  -0.56940
 Alpha  occ. eigenvalues --   -0.56443  -0.56133  -0.55925  -0.55655  -0.55585
 Alpha  occ. eigenvalues --   -0.55471  -0.55184  -0.54971  -0.54663  -0.54208
 Alpha  occ. eigenvalues --   -0.54110  -0.53639  -0.53433  -0.53390  -0.53070
 Alpha  occ. eigenvalues --   -0.52967  -0.52920  -0.52865  -0.52621  -0.52589
 Alpha  occ. eigenvalues --   -0.52445  -0.52186  -0.52015  -0.51813  -0.51559
 Alpha  occ. eigenvalues --   -0.51399  -0.51332  -0.50896  -0.50725  -0.50287
 Alpha  occ. eigenvalues --   -0.50185  -0.50068  -0.49731  -0.49680  -0.49624
 Alpha  occ. eigenvalues --   -0.49357  -0.49264  -0.49225  -0.48896  -0.48783
 Alpha  occ. eigenvalues --   -0.48733  -0.48581  -0.48560  -0.48259  -0.48127
 Alpha  occ. eigenvalues --   -0.48062  -0.47850  -0.47436  -0.47335  -0.46951
 Alpha  occ. eigenvalues --   -0.46879  -0.46757  -0.46494  -0.46446  -0.46295
 Alpha  occ. eigenvalues --   -0.46288  -0.46013  -0.45948  -0.45790  -0.45503
 Alpha  occ. eigenvalues --   -0.45330  -0.44942  -0.44708  -0.44674  -0.44288
 Alpha  occ. eigenvalues --   -0.44269  -0.44227  -0.44201  -0.44146  -0.43842
 Alpha  occ. eigenvalues --   -0.43831  -0.43645  -0.43627  -0.43551  -0.43261
 Alpha  occ. eigenvalues --   -0.43164  -0.43101  -0.42833  -0.42797  -0.42631
 Alpha  occ. eigenvalues --   -0.42571  -0.42316  -0.42173  -0.41841  -0.41730
 Alpha  occ. eigenvalues --   -0.41713  -0.41331  -0.41287  -0.41197  -0.41063
 Alpha  occ. eigenvalues --   -0.40974  -0.40720  -0.40702  -0.40499  -0.40476
 Alpha  occ. eigenvalues --   -0.40450  -0.40226  -0.39986  -0.39596  -0.39217
 Alpha  occ. eigenvalues --   -0.38623  -0.38109  -0.37998  -0.37464  -0.37452
 Alpha  occ. eigenvalues --   -0.37412  -0.37007  -0.36920  -0.36857  -0.36458
 Alpha  occ. eigenvalues --   -0.36344  -0.35938  -0.34423  -0.33959  -0.33926
 Alpha  occ. eigenvalues --   -0.33515  -0.33323  -0.32884  -0.31441  -0.31174
 Alpha  occ. eigenvalues --   -0.31032  -0.30670  -0.30114  -0.29573  -0.29532
 Alpha  occ. eigenvalues --   -0.29436  -0.29053  -0.28880  -0.24220  -0.23730
 Alpha  occ. eigenvalues --   -0.21266  -0.20829
 Alpha virt. eigenvalues --   -0.08905  -0.08495  -0.01884  -0.01404  -0.00186
 Alpha virt. eigenvalues --    0.00245   0.02085   0.02383   0.02642   0.03606
 Alpha virt. eigenvalues --    0.04520   0.04879   0.05027   0.05535   0.05862

 Mulliken charges:
               1
     1  Mg   0.838098
     2  C   -0.003819
     3  C   -0.095570
     4  C   -0.044980
     5  C   -0.063687
     6  N   -0.256640
     7  C   -0.053534
     8  C   -0.013010
     9  C   -0.086989
    10  C    0.046063
    11  C    0.104815
    12  C    0.048239
    13  C   -0.071230
    14  H    0.034281
    15  N   -0.433355
    16  C    0.168270
    17  C   -0.178147
    18  C   -0.003652
    19  C    0.149204
    20  C    0.110411
    21  C    0.013415
    22  O   -0.248336
    23  C    0.062571
    24  N   -0.340925
    25  C    0.040999
    26  C   -0.028503
    27  C   -0.024083
    28  C    0.074857
    29  C    0.076006
    30  C    0.035391
    31  C   -0.007743
    32  N   -0.310783
    33  C    0.080866
    34  C   -0.169252
    35  C    0.009069
    36  C    0.083325
    37  C    0.127047
    38  C    0.046970
    39  O   -0.186441
    40  C   -0.005969
    41  C    0.214004
    42  O   -0.258687
    43  O   -0.304725
    44  C    0.156513
    45  H   -0.017957
    46  H   -0.016226
    47  H   -0.041280
    48  H    0.001558
    49  H   -0.005116
    50  H    0.025900
    51  H    0.016966
    52  H    0.016671
    53  H    0.011225
    54  H    0.045709
    55  H    0.019538
    56  H    0.016779
    57  H    0.005234
    58  H    0.027365
    59  H    0.037510
    60  H    0.037060
    61  H    0.036811
    62  H    0.029805
    63  H    0.017132
    64  H    0.009872
    65  H    0.023665
    66  H    0.012670
    67  H    0.004911
    68  H    0.006515
    69  H    0.004627
    70  H    0.010725
    71  H    0.017005
    72  H    0.030839
    73  H    0.048851
    74  H    0.008942
    75  H    0.046348
    76  H    0.035457
    77  H    0.044398
    78  H    0.045049
    79  H    0.055393
    80  Mg   0.836710
    81  C   -0.014981
    82  C   -0.088194
    83  C   -0.045196
    84  C   -0.065721
    85  N   -0.254627
    86  C   -0.047497
    87  C   -0.015026
    88  C   -0.092544
    89  C    0.045510
    90  C    0.108168
    91  C    0.062817
    92  C   -0.076833
    93  H    0.033800
    94  N   -0.423396
    95  C    0.162672
    96  C   -0.176084
    97  C   -0.008033
    98  C    0.151562
    99  C    0.100270
   100  C    0.015229
   101  O   -0.253301
   102  C    0.061565
   103  N   -0.350240
   104  C    0.037056
   105  C   -0.019965
   106  C   -0.034659
   107  C    0.089578
   108  C    0.073140
   109  C    0.034870
   110  C   -0.007508
   111  N   -0.324807
   112  C    0.079582
   113  C   -0.162667
   114  C    0.004815
   115  C    0.095533
   116  C    0.130785
   117  C    0.045716
   118  O   -0.186189
   119  C   -0.001790
   120  C    0.210034
   121  O   -0.252520
   122  O   -0.304129
   123  C    0.152424
   124  H   -0.022185
   125  H   -0.015802
   126  H   -0.041340
   127  H    0.002842
   128  H   -0.006780
   129  H    0.037104
   130  H    0.013520
   131  H    0.012199
   132  H    0.013116
   133  H    0.037662
   134  H    0.019877
   135  H    0.018317
   136  H    0.007054
   137  H    0.023214
   138  H    0.038991
   139  H    0.036925
   140  H    0.035871
   141  H    0.033390
   142  H    0.013863
   143  H    0.011010
   144  H    0.024488
   145  H    0.013902
   146  H    0.004423
   147  H    0.005533
   148  H    0.003106
   149  H    0.010790
   150  H    0.017431
   151  H    0.030580
   152  H    0.045747
   153  H    0.006975
   154  H    0.049742
   155  H    0.047960
   156  H    0.043255
   157  H    0.048082
   158  H    0.052898
 Sum of Mulliken charges =  -0.00000

 Dipole moment (field-independent basis, Debye):
    X=             -4.7013    Y=             -2.0581    Z=             -6.8073  Tot=              8.5251
 Quadrupole moment (field-independent basis, Debye-Ang):
   XX=           -518.2389   YY=           -551.5134   ZZ=           -449.6588
   XY=             -6.7304   XZ=              6.9416   YZ=            -47.0029

 Normal termination of Gaussian 16 at Thu Sep  9 07:25:30 2021.
