 Gaussian 16, Revision A.03,
 Gaussian 16:  ES64L-G16RevA.03 25-Dec-2016

 -----------------------------------
 #p cam-b3lyp/Def2SVP td=(nstates=5)
 -----------------------------------

 --------------------------------
 TDDFT excited states in gaussian
 --------------------------------
 Symbolic Z-matrix:
 Charge =  0 Multiplicity = 1

                         Standard orientation:
 ---------------------------------------------------------------------
 Center     Atomic      Atomic             Coordinates (Angstroms)
 Number     Number       Type             X           Y           Z
 ---------------------------------------------------------------------
      1         12           0        6.362552   -0.887212    0.002256
      2          6           0        6.679251    2.053837   -2.013221
      3          6           0        7.301462    1.020855    2.670738
      4          6           0        6.531010   -3.553408    1.710952
      5          6           0        6.563370   -2.745591   -2.939131
      6          7           0        6.894585    1.254292    0.179874
      7          6           0        6.918648    2.286797   -0.657100
      8          6           0        7.147971    3.653710    0.054472
      9          6           0        7.878524    3.132129    1.372138
     10          6           0        7.297775    1.730369    1.433157
     11          6           0        9.393660    3.030271    1.228991
     12          6           0        5.803113    4.380024    0.394406
     13          6           0        5.938026    5.853413    0.789726
     14          1           0        4.897148    6.785585    0.383552
     15          7           0        6.367135   -1.156515    1.959373
     16          6           0        6.767033   -0.265764    2.898484
     17          6           0        6.578985   -0.936612    4.202816
     18          6           0        6.216664   -2.356381    3.936221
     19          6           0        6.384895   -2.419705    2.506862
     20          6           0        6.696099   -0.227700    5.517152
     21          6           0        5.797126   -3.480835    4.829375
     22          8           0        5.754115   -4.692341    4.423203
     23          6           0        5.519287   -3.134639    6.235076
     24          7           0        6.744021   -2.876258   -0.503521
     25          6           0        6.700402   -3.843479    0.419282
     26          6           0        6.723540   -5.203271   -0.213466
     27          6           0        6.546478   -4.963919   -1.782259
     28          6           0        6.533618   -3.415339   -1.784739
     29          6           0        7.988464   -6.036143    0.036138
     30          6           0        5.383636   -5.712295   -2.480939
     31          6           0        4.058407   -5.174764   -1.989081
     32          7           0        6.404217   -0.454587   -2.124277
     33          6           0        6.513597   -1.381211   -3.171215
     34          6           0        6.609780   -0.608781   -4.423480
     35          6           0        6.566065    0.722459   -4.013925
     36          6           0        6.476369    0.778358   -2.593671
     37          6           0        6.778713   -1.152789   -5.727302
     38          6           0        6.599079    2.110929   -4.443946
     39          8           0        6.573720    2.681528   -5.535398
     40          6           0        6.796459    3.029184   -3.157993
     41          6           0        5.790095    4.144650   -3.237216
     42          8           0        4.567948    3.911769   -3.139801
     43          8           0        6.427667    5.323765   -3.176127
     44          6           0        5.484118    6.472650   -3.220074
     45          1           0        7.810467    1.461453    3.530231
     46          1           0        6.482507   -4.500051    2.253125
     47          1           0        6.543357   -3.258170   -3.902622
     48          1           0        7.798755    4.342875   -0.484004
     49          1           0        7.584970    3.702599    2.253110
     50          1           0        9.709765    3.210322    0.201576
     51          1           0        9.647076    2.014407    1.532787
     52          1           0        9.894936    3.689071    1.938555
     53          1           0        5.400549    3.974952    1.322803
     54          1           0        5.097291    4.291714   -0.432239
     55          1           0        6.922895    6.245873    0.534938
     56          1           0        5.892415    5.920943    1.876721
     57          1           0        7.134053    0.762800    5.400314
     58          1           0        7.424506   -0.778307    6.112100
     59          1           0        5.744471   -0.186198    6.047259
     60          1           0        6.411367   -2.693425    6.680130
     61          1           0        5.147272   -4.046233    6.701392
     62          1           0        4.749119   -2.363275    6.263153
     63          1           0        5.900379   -5.817457    0.149310
     64          1           0        7.431348   -5.263771   -2.344191
     65          1           0        7.791064   -7.005612    0.494252
     66          1           0        8.666065   -5.443985    0.650545
     67          1           0        8.599138   -6.216100   -0.848232
     68          1           0        5.411708   -6.772716   -2.232614
     69          1           0        5.406977   -5.625336   -3.567283
     70          1           0        3.898485   -5.729519   -1.065228
     71          1           0        3.270219   -5.385740   -2.712586
     72          1           0        4.129635   -4.118957   -1.727003
     73          1           0        6.101946   -0.599808   -6.378584
     74          1           0        6.559208   -2.220117   -5.742521
     75          1           0        7.833896   -0.940996   -5.899312
     76          1           0        7.820836    3.398889   -3.191047
     77          1           0        5.790210    7.107768   -4.051438
     78          1           0        5.483119    6.911163   -2.222020
     79          1           0        4.456856    6.242138   -3.504564
     80         12           0       -6.857525   -0.391276   -0.040814
     81          6           0       -4.650548    1.874748    1.654313
     82          6           0       -9.231900    2.053703    0.097131
     83          6           0       -8.958287   -2.508297   -1.123618
     84          6           0       -4.747326   -2.977317    0.961738
     85          7           0       -6.825275    1.657231    0.792755
     86          6           0       -5.911880    2.432156    1.358028
     87          6           0       -6.349681    3.909310    1.547529
     88          6           0       -7.940270    3.688710    1.562126
     89          6           0       -8.016685    2.405737    0.737001
     90          6           0       -8.495074    3.399655    2.947035
     91          6           0       -5.907333    4.822104    0.350380
     92          6           0       -6.027986    6.325506    0.609224
     93          1           0       -5.026651    7.214622    0.026759
     94          7           0       -8.630858   -0.121964   -0.890122
     95          6           0       -9.450863    0.939711   -0.742747
     96          6           0      -10.639749    0.646018   -1.557891
     97          6           0      -10.526789   -0.747820   -2.066988
     98          6           0       -9.351954   -1.196958   -1.347200
     99          6           0      -11.697911    1.669401   -1.851814
    100          6           0      -11.348568   -1.548648   -3.031131
    101          8           0      -11.206100   -2.817287   -3.145517
    102          6           0      -12.389126   -0.818495   -3.769781
    103          7           0       -6.972936   -2.462273    0.100555
    104          6           0       -7.961825   -3.142538   -0.505462
    105          6           0       -7.686493   -4.627306   -0.498346
    106          6           0       -6.184088   -4.783136    0.027089
    107          6           0       -5.867322   -3.302313    0.330742
    108          6           0       -8.618957   -5.472647    0.368998
    109          6           0       -5.201890   -5.579095   -0.875366
    110          6           0       -4.944191   -4.817064   -2.155320
    111          7           0       -4.936826   -0.540911    0.937222
    112          6           0       -4.246130   -1.722673    1.284309
    113          6           0       -3.039321   -1.317436    2.033853
    114          6           0       -3.124246    0.081845    2.091205
    115          6           0       -4.311268    0.516600    1.442005
    116          6           0       -2.074190   -2.199558    2.596450
    117          6           0       -2.485055    1.289310    2.562565
    118          8           0       -1.410710    1.549446    3.102784
    119          6           0       -3.509034    2.495471    2.410803
    120          6           0       -2.782343    3.643235    1.764996
    121          8           0       -2.366844    3.550987    0.596473
    122          8           0       -2.888514    4.730145    2.550953
    123          6           0       -2.192831    5.897917    1.947502
    124          1           0      -10.114823    2.664203    0.288504
    125          1           0       -9.593171   -3.274561   -1.574438
    126          1           0       -3.988707   -3.718065    1.223420
    127          1           0       -6.028595    4.362500    2.477742
    128          1           0       -8.456192    4.499699    1.054696
    129          1           0       -7.709698    3.272981    3.677304
    130          1           0       -9.071027    2.488771    2.848982
    131          1           0       -9.207634    4.176985    3.237464
    132          1           0       -6.630115    4.713853   -0.468527
    133          1           0       -4.907097    4.587687    0.041855
    134          1           0       -6.169245    6.550515    1.673351
    135          1           0       -6.943707    6.686882    0.135008
    136          1           0      -11.594819    2.551133   -1.207345
    137          1           0      -12.657740    1.229979   -1.559409
    138          1           0      -11.740418    1.939652   -2.909084
    139          1           0      -13.079169   -0.361325   -3.064575
    140          1           0      -12.809061   -1.540121   -4.473193
    141          1           0      -11.916038    0.000460   -4.323055
    142          1           0       -7.753388   -5.037816   -1.498402
    143          1           0       -6.141741   -5.316963    0.987851
    144          1           0       -9.133336   -6.273370   -0.195212
    145          1           0       -9.338917   -4.814898    0.837563
    146          1           0       -8.146963   -5.947547    1.227426
    147          1           0       -5.645052   -6.534511   -1.166831
    148          1           0       -4.253946   -5.797039   -0.394860
    149          1           0       -5.798790   -5.090276   -2.781501
    150          1           0       -4.006408   -5.133618   -2.607413
    151          1           0       -4.992334   -3.735140   -1.985707
    152          1           0       -1.101962   -1.781255    2.372186
    153          1           0       -2.176051   -3.206782    2.197819
    154          1           0       -2.352870   -2.145826    3.652253
    155          1           0       -3.868018    2.748041    3.409255
    156          1           0       -1.474735    6.260450    2.689519
    157          1           0       -2.993630    6.595806    1.638592
    158          1           0       -1.544606    5.711689    1.099230
 ---------------------------------------------------------------------

 SCF Done:  E(RCAM-B3LYP) =  -4069.81148963     A.U. after   19 cycles

 Excitation energies and oscillator strengths:

 Excited State   1:      Singlet-A      1.6693 eV  742.72 nm  f=0.2416  <S**2>=0.000
     309 -> 315       -0.13989
     310 -> 316       -0.10013
     311 -> 313        0.55800
     312 -> 314       -0.39977
 This state for optimization and/or second-order correction.
 Total Energy, E(TD-HF/TD-DFT) =  -4069.75014334
 Copying the excited state density for this state as the 1-particle RhoCI density.

 Excited State   2:      Singlet-A      1.6856 eV  735.54 nm  f=0.5348  <S**2>=0.000
     309 -> 315       -0.10249
     310 -> 316        0.14363
     311 -> 313        0.39918
     312 -> 314        0.55712

 Excited State   3:      Singlet-A      2.1841 eV  567.67 nm  f=0.0277  <S**2>=0.000
     309 -> 313        0.59060
     310 -> 314       -0.25541
     311 -> 315        0.24939
     312 -> 316        0.10713

 Excited State   4:      Singlet-A      2.1928 eV  565.42 nm  f=0.1588  <S**2>=0.000
     309 -> 313        0.25354
     310 -> 314        0.58795
     311 -> 315        0.11026
     312 -> 316       -0.25574

 Excited State   5:      Singlet-A      2.5995 eV  476.95 nm  f=0.0000  <S**2>=0.000
     312 -> 313        0.70662

 The electronic state is 1-A.
 Alpha  occ. eigenvalues --  -46.87577 -46.87423 -19.26269 -19.25930 -19.19044
 Alpha  occ. eigenvalues --  -19.18639 -19.18627 -19.18485 -19.17991 -19.17827
 Alpha  occ. eigenvalues --  -14.42418 -14.42083 -14.41279 -14.41102 -14.39270
 Alpha  occ. eigenvalues --  -14.39032 -14.38515 -14.38220 -10.38983 -10.38694
 Alpha  occ. eigenvalues --  -10.35317 -10.35119 -10.34166 -10.34045 -10.31697
 Alpha  occ. eigenvalues --  -10.31360 -10.31231 -10.31044 -10.30946 -10.30536
 Alpha  occ. eigenvalues --  -10.30316 -10.30280 -10.30208 -10.30158 -10.30062
 Alpha  occ. eigenvalues --  -10.29872 -10.29815 -10.29594 -10.29357 -10.29321
 Alpha  occ. eigenvalues --  -10.29281 -10.28897 -10.28648 -10.28581 -10.28376
 Alpha  occ. eigenvalues --  -10.28325 -10.28178 -10.28075 -10.27997 -10.27923
 Alpha  occ. eigenvalues --  -10.27761 -10.27592 -10.27440 -10.27439 -10.27404
 Alpha  occ. eigenvalues --  -10.27394 -10.27386 -10.27368 -10.27302 -10.27230
 Alpha  occ. eigenvalues --  -10.27227 -10.27182 -10.27102 -10.27043 -10.26979
 Alpha  occ. eigenvalues --  -10.26806 -10.26604 -10.26343 -10.26270 -10.26071
 Alpha  occ. eigenvalues --  -10.26053 -10.25978 -10.25950 -10.25923 -10.25852
 Alpha  occ. eigenvalues --  -10.25769 -10.25681 -10.25541 -10.25335 -10.25198
 Alpha  occ. eigenvalues --  -10.24794 -10.24634 -10.24611 -10.24479 -10.24459
 Alpha  occ. eigenvalues --  -10.24448  -3.16326  -3.16164  -1.91208  -1.91045
 Alpha  occ. eigenvalues --   -1.90797  -1.90634  -1.90632  -1.90474  -1.16557
 Alpha  occ. eigenvalues --   -1.16272  -1.08596  -1.08284  -1.06891  -1.06889
 Alpha  occ. eigenvalues --   -1.06837  -1.06257  -1.04416  -1.04214  -1.03583
 Alpha  occ. eigenvalues --   -1.03411  -1.02958  -1.02875  -1.02056  -1.02031
 Alpha  occ. eigenvalues --   -0.91909  -0.91616  -0.89414  -0.89212  -0.89080
 Alpha  occ. eigenvalues --   -0.88824  -0.88142  -0.87987  -0.87714  -0.87606
 Alpha  occ. eigenvalues --   -0.87531  -0.87315  -0.87043  -0.86915  -0.84925
 Alpha  occ. eigenvalues --   -0.84624  -0.83797  -0.83652  -0.82856  -0.82636
 Alpha  occ. eigenvalues --   -0.82579  -0.82302  -0.81522  -0.81244  -0.80367
 Alpha  occ. eigenvalues --   -0.80249  -0.78558  -0.78444  -0.77069  -0.76890
 Alpha  occ. eigenvalues --   -0.76825  -0.76599  -0.75769  -0.75582  -0.74730
 Alpha  occ. eigenvalues --   -0.74599  -0.72620  -0.72434  -0.71508  -0.71340
 Alpha  occ. eigenvalues --   -0.69676  -0.69633  -0.68753  -0.68523  -0.67525
 Alpha  occ. eigenvalues --   -0.67296  -0.67122  -0.66849  -0.65197  -0.64925
 Alpha  occ. eigenvalues --   -0.64692  -0.64577  -0.64511  -0.64285  -0.64125
 Alpha  occ. eigenvalues --   -0.63955  -0.62200  -0.61957  -0.60263  -0.60100
 Alpha  occ. eigenvalues --   -0.59723  -0.59443  -0.58915  -0.58647  -0.58348
 Alpha  occ. eigenvalues --   -0.58162  -0.57474  -0.57232  -0.57159  -0.56980
 Alpha  occ. eigenvalues --   -0.56126  -0.55965  -0.55811  -0.55630  -0.55377
 Alpha  occ. eigenvalues --   -0.55181  -0.55170  -0.55033  -0.54407  -0.54204
 Alpha  occ. eigenvalues --   -0.53839  -0.53530  -0.53151  -0.53065  -0.52964
 Alpha  occ. eigenvalues --   -0.52868  -0.52817  -0.52595  -0.52568  -0.52405
 Alpha  occ. eigenvalues --   -0.52317  -0.52162  -0.51803  -0.51589  -0.51583
 Alpha  occ. eigenvalues --   -0.51251  -0.51127  -0.50863  -0.50401  -0.50220
 Alpha  occ. eigenvalues --   -0.49906  -0.49793  -0.49738  -0.49571  -0.49412
 Alpha  occ. eigenvalues --   -0.49167  -0.49125  -0.49039  -0.48867  -0.48757
 Alpha  occ. eigenvalues --   -0.48482  -0.48304  -0.48266  -0.48260  -0.48151
 Alpha  occ. eigenvalues --   -0.48107  -0.47521  -0.47357  -0.47043  -0.46962
 Alpha  occ. eigenvalues --   -0.46631  -0.46480  -0.46468  -0.46196  -0.46191
 Alpha  occ. eigenvalues --   -0.46020  -0.46006  -0.45835  -0.45747  -0.45492
 Alpha  occ. eigenvalues --   -0.45134  -0.44905  -0.44441  -0.44403  -0.44242
 Alpha  occ. eigenvalues --   -0.44174  -0.44059  -0.43999  -0.43866  -0.43825
 Alpha  occ. eigenvalues --   -0.43750  -0.43676  -0.43478  -0.43311  -0.43159
 Alpha  occ. eigenvalues --   -0.43046  -0.42852  -0.42824  -0.42693  -0.42474
 Alpha  occ. eigenvalues --   -0.42388  -0.42330  -0.41884  -0.41696  -0.41598
 Alpha  occ. eigenvalues --   -0.41383  -0.41365  -0.41185  -0.40919  -0.40808
 Alpha  occ. eigenvalues --   -0.40647  -0.40623  -0.40538  -0.40482  -0.40417
 Alpha  occ. eigenvalues --   -0.40265  -0.40150  -0.39843  -0.39342  -0.39173
 Alpha  occ. eigenvalues --   -0.38274  -0.38166  -0.37576  -0.37381  -0.37186
 Alpha  occ. eigenvalues --   -0.37121  -0.37001  -0.36894  -0.36680  -0.36366
 Alpha  occ. eigenvalues --   -0.36133  -0.35850  -0.34172  -0.33930  -0.33749
 Alpha  occ. eigenvalues --   -0.33380  -0.33093  -0.32829  -0.31198  -0.31017
 Alpha  occ. eigenvalues --   -0.30893  -0.30684  -0.29895  -0.29686  -0.29248
 Alpha  occ. eigenvalues --   -0.29132  -0.29088  -0.28964  -0.23955  -0.23721
 Alpha  occ. eigenvalues --   -0.21038  -0.20773
 Alpha virt. eigenvalues --   -0.08713  -0.08418  -0.01604  -0.01399   0.00047
 Alpha virt. eigenvalues --    0.00297   0.02281   0.02542   0.03347   0.03624
 Alpha virt. eigenvalues --    0.04806   0.05072   0.05263   0.05476   0.06257

 Mulliken charges:
               1
     1  Mg   0.841627
     2  C   -0.001811
     3  C   -0.092863
     4  C   -0.046417
     5  C   -0.064487
     6  N   -0.256677
     7  C   -0.051852
     8  C   -0.014502
     9  C   -0.087322
    10  C    0.047191
    11  C    0.104992
    12  C    0.053165
    13  C   -0.071057
    14  H    0.034744
    15  N   -0.433005
    16  C    0.169685
    17  C   -0.176102
    18  C   -0.003750
    19  C    0.149121
    20  C    0.110230
    21  C    0.012511
    22  O   -0.250846
    23  C    0.061963
    24  N   -0.341157
    25  C    0.041281
    26  C   -0.027965
    27  C   -0.023797
    28  C    0.074823
    29  C    0.076457
    30  C    0.035374
    31  C   -0.004459
    32  N   -0.310427
    33  C    0.080614
    34  C   -0.169970
    35  C    0.008101
    36  C    0.083644
    37  C    0.127323
    38  C    0.046376
    39  O   -0.189244
    40  C   -0.005613
    41  C    0.212258
    42  O   -0.254823
    43  O   -0.305329
    44  C    0.157924
    45  H   -0.018132
    46  H   -0.017740
    47  H   -0.042370
    48  H    0.000088
    49  H   -0.003843
    50  H    0.025025
    51  H    0.016076
    52  H    0.015965
    53  H    0.013929
    54  H    0.045909
    55  H    0.016673
    56  H    0.017849
    57  H    0.005749
    58  H    0.025703
    59  H    0.041507
    60  H    0.036795
    61  H    0.034554
    62  H    0.033644
    63  H    0.015794
    64  H    0.008857
    65  H    0.022417
    66  H    0.012499
    67  H    0.004213
    68  H    0.005325
    69  H    0.004421
    70  H    0.007779
    71  H    0.017172
    72  H    0.030610
    73  H    0.047395
    74  H    0.008529
    75  H    0.045273
    76  H    0.034339
    77  H    0.041821
    78  H    0.045962
    79  H    0.054284
    80  Mg   0.838546
    81  C   -0.016450
    82  C   -0.087828
    83  C   -0.045496
    84  C   -0.064900
    85  N   -0.254551
    86  C   -0.049809
    87  C   -0.015173
    88  C   -0.090506
    89  C    0.045862
    90  C    0.114468
    91  C    0.062482
    92  C   -0.077856
    93  H    0.035130
    94  N   -0.423445
    95  C    0.163034
    96  C   -0.174696
    97  C   -0.007805
    98  C    0.152165
    99  C    0.099426
   100  C    0.015625
   101  O   -0.253272
   102  C    0.061154
   103  N   -0.350110
   104  C    0.037495
   105  C   -0.019790
   106  C   -0.034815
   107  C    0.088979
   108  C    0.073731
   109  C    0.034684
   110  C   -0.007641
   111  N   -0.324192
   112  C    0.078713
   113  C   -0.162634
   114  C    0.002006
   115  C    0.096800
   116  C    0.131286
   117  C    0.043158
   118  O   -0.189027
   119  C    0.000688
   120  C    0.210757
   121  O   -0.248806
   122  O   -0.306299
   123  C    0.151918
   124  H   -0.019898
   125  H   -0.015677
   126  H   -0.040282
   127  H   -0.001092
   128  H   -0.004365
   129  H    0.022120
   130  H    0.014354
   131  H    0.016008
   132  H    0.014192
   133  H    0.038495
   134  H    0.020211
   135  H    0.019506
   136  H    0.008643
   137  H    0.025920
   138  H    0.039885
   139  H    0.038092
   140  H    0.036314
   141  H    0.034079
   142  H    0.014428
   143  H    0.012294
   144  H    0.025015
   145  H    0.011479
   146  H    0.005533
   147  H    0.006008
   148  H    0.003798
   149  H    0.010813
   150  H    0.017998
   151  H    0.030566
   152  H    0.046257
   153  H    0.009205
   154  H    0.046171
   155  H    0.034178
   156  H    0.042292
   157  H    0.049311
   158  H    0.055146
 Sum of Mulliken charges =  -0.00000

 Dipole moment (field-independent basis, Debye):
    X=             -2.1424    Y=              2.6695    Z=              4.5012  Tot=              5.6548
 Quadrupole moment (field-independent basis, Debye-Ang):
   XX=           -452.6231   YY=           -467.3667   ZZ=           -524.2319
   XY=            -28.1437   XZ=             14.8122   YZ=             28.1392

 Normal termination of Gaussian 16 at Sat Sep 11 09:51:55 2021.
