 Gaussian 16, Revision A.03,
 Gaussian 16:  ES64L-G16RevA.03 25-Dec-2016

 -----------------------------------
 #p cam-b3lyp/Def2SVP td=(nstates=5)
 -----------------------------------

 --------------------------------
 TDDFT excited states in gaussian
 --------------------------------
 Symbolic Z-matrix:
 Charge =  0 Multiplicity = 1

                         Standard orientation:
 ---------------------------------------------------------------------
 Center     Atomic      Atomic             Coordinates (Angstroms)
 Number     Number       Type             X           Y           Z
 ---------------------------------------------------------------------
      1         12           0       -7.845800   -0.725767   -0.199511
      2          6           0       -8.144267    1.978266    2.126718
      3          6           0       -8.672378    1.493011   -2.656513
      4          6           0       -8.033500   -3.178489   -2.200897
      5          6           0       -8.163985   -2.896051    2.508677
      6          7           0       -8.322973    1.435290   -0.146726
      7          6           0       -8.343943    2.367821    0.800437
      8          6           0       -8.523259    3.811345    0.242354
      9          6           0       -9.232414    3.459859   -1.141682
     10          6           0       -8.683250    2.059099   -1.347139
     11          6           0      -10.752639    3.382132   -1.044862
     12          6           0       -7.153656    4.535866    0.016551
     13          6           0       -7.244086    6.047276   -0.213268
     14          1           0       -6.192247    6.900638    0.318481
     15          7           0       -7.807421   -0.773944   -2.174114
     16          6           0       -8.162618    0.226511   -3.015666
     17          6           0       -7.957541   -0.298687   -4.382704
     18          6           0       -7.635342   -1.748341   -4.269630
     19          6           0       -7.840930   -1.966964   -2.860618
     20          6           0       -8.024929    0.555794   -5.611146
     21          6           0       -7.219867   -2.776225   -5.274103
     22          8           0       -7.215433   -4.026310   -5.006071
     23          6           0       -6.898717   -2.282112   -6.625309
     24          7           0       -8.286284   -2.748327    0.070415
     25          6           0       -8.242083   -3.606903   -0.954221
     26          6           0       -8.312930   -5.027944   -0.479289
     27          6           0       -8.169859   -4.970518    1.110046
     28          6           0       -8.120858   -3.432826    1.287170
     29          6           0       -9.590301   -5.794364   -0.849336
     30          6           0       -7.042788   -5.822496    1.745864
     31          6           0       -5.693392   -5.267977    1.347446
     32          7           0       -7.930845   -0.533123    1.960744
     33          6           0       -8.088179   -1.568017    2.893972
     34          6           0       -8.197760   -0.938473    4.222781
     35          6           0       -8.112633    0.428669    3.966813
     36          6           0       -7.985938    0.640945    2.564251
     37          6           0       -8.412128   -1.620513    5.452945
     38          6           0       -8.123983    1.760620    4.549595
     39          8           0       -8.112767    2.204517    5.698648
     40          6           0       -8.267410    2.821968    3.371124
     41          6           0       -7.237550    3.894930    3.597950
     42          8           0       -6.019119    3.642654    3.502311
     43          8           0       -7.845637    5.089682    3.655764
     44          6           0       -6.876886    6.201430    3.849905
     45          1           0       -9.149148    2.040226   -3.472103
     46          1           0       -7.993515   -4.059385   -2.844993
     47          1           0       -8.180219   -3.513673    3.408529
     48          1           0       -9.171096    4.452584    0.840304
     49          1           0       -8.903521    4.117572   -1.946023
     50          1           0      -11.090206    3.454145   -0.011042
     51          1           0      -11.022015    2.413641   -1.466710
     52          1           0      -11.220357    4.129105   -1.686773
     53          1           0       -6.737435    4.226981   -0.942308
     54          1           0       -6.471120    4.337152    0.843585
     55          1           0       -8.225609    6.434261    0.061984
     56          1           0       -7.169565    6.234925   -1.284452
     57          1           0       -8.442403    1.538050   -5.393351
     58          1           0       -8.750808    0.094466   -6.280463
     59          1           0       -7.059550    0.631597   -6.111776
     60          1           0       -7.768752   -1.770724   -7.037706
     61          1           0       -6.536503   -3.145121   -7.182863
     62          1           0       -6.110261   -1.532794   -6.549107
     63          1           0       -7.495486   -5.618874   -0.890401
     64          1           0       -9.075361   -5.308261    1.614694
     65          1           0       -9.404157   -6.711231   -1.409167
     66          1           0      -10.238191   -5.119653   -1.408169
     67          1           0      -10.227080   -6.056271   -0.004745
     68          1           0       -7.089389   -6.847334    1.379148
     69          1           0       -7.091423   -5.857189    2.834295
     70          1           0       -5.523285   -5.719737    0.370815
     71          1           0       -4.928812   -5.579137    2.060053
     72          1           0       -5.733294   -4.187963    1.204393
     73          1           0       -7.739222   -1.161790    6.177335
     74          1           0       -8.218095   -2.688185    5.352794
     75          1           0       -9.466066   -1.401891    5.624049
     76          1           0       -9.283369    3.212216    3.422660
     77          1           0       -7.188870    6.747189    4.740438
     78          1           0       -6.840514    6.748800    2.907850
     79          1           0       -5.862780    5.913807    4.129551
     80         12           0        8.016052   -0.555463    0.269991
     81          6           0        7.411967    1.900710   -2.275856
     82          6           0        9.554541    1.902319    2.066372
     83          6           0        8.957795   -2.783262    2.323645
     84          6           0        7.475251   -2.999589   -2.154773
     85          7           0        8.373390    1.585425   -0.155643
     86          6           0        8.044254    2.422373   -1.128025
     87          6           0        8.341323    3.914569   -0.820328
     88          6           0        9.500846    3.708739    0.271462
     89          6           0        9.105245    2.327994    0.790822
     90          6           0       10.889844    3.610207   -0.337073
     91          6           0        7.101690    4.657021   -0.208708
     92          6           0        7.219775    6.182272   -0.171101
     93          1           0        6.015487    6.979180   -0.388125
     94          7           0        8.653483   -0.389364    2.142066
     95          6           0        9.233038    0.688054    2.711768
     96          6           0        9.535523    0.296699    4.097233
     97          6           0        9.237315   -1.153193    4.250859
     98          6           0        8.951439   -1.510649    2.875875
     99          6           0        9.979488    1.279129    5.141821
    100          6           0        9.225484   -2.069477    5.436812
    101          8           0        9.169678   -3.343002    5.303239
    102          6           0        9.375293   -1.436927    6.755504
    103          7           0        8.400775   -2.588433    0.066631
    104          6           0        8.745641   -3.336473    1.129378
    105          6           0        8.701803   -4.808955    0.797313
    106          6           0        8.019061   -4.903796   -0.645757
    107          6           0        7.860585   -3.397942   -0.950192
    108          6           0       10.051913   -5.525056    0.769326
    109          6           0        6.771006   -5.819379   -0.775044
    110          6           0        5.619296   -5.236098    0.011539
    111          7           0        7.352263   -0.586840   -1.785843
    112          6           0        7.221542   -1.716642   -2.622824
    113          6           0        6.849553   -1.223592   -3.964810
    114          6           0        6.811854    0.171434   -3.820027
    115          6           0        7.157077    0.524108   -2.487381
    116          6           0        6.645239   -2.029645   -5.120089
    117          6           0        6.568879    1.426455   -4.494260
    118          8           0        6.158903    1.748767   -5.608608
    119          6           0        7.069876    2.608697   -3.557395
    120          6           0        5.990548    3.655402   -3.513030
    121          8           0        4.889011    3.405749   -2.992533
    122          8           0        6.507557    4.837869   -3.893620
    123          6           0        5.477812    5.910247   -3.855369
    124          1           0       10.253916    2.538857    2.609131
    125          1           0        9.168564   -3.598315    3.019876
    126          1           0        7.193250   -3.704123   -2.940126
    127          1           0        8.718680    4.485220   -1.660404
    128          1           0        9.432253    4.448563    1.064769
    129          1           0       10.855587    3.576400   -1.415886
    130          1           0       11.319459    2.698327    0.056576
    131          1           0       11.521172    4.424101    0.030798
    132          1           0        7.052831    4.445778    0.867275
    133          1           0        6.200265    4.376829   -0.718146
    134          1           0        8.040893    6.547754   -0.799694
    135          1           0        7.502122    6.483630    0.840573
    136          1           0       10.269556    2.237993    4.694786
    137          1           0       10.907452    0.889052    5.573795
    138          1           0        9.244595    1.406673    5.939518
    139          1           0       10.311895   -0.885345    6.787139
    140          1           0        9.252879   -2.242800    7.481767
    141          1           0        8.572781   -0.702076    6.884230
    142          1           0        8.091277   -5.348336    1.511061
    143          1           0        8.712657   -5.305398   -1.399068
    144          1           0       10.101461   -6.390163    1.457238
    145          1           0       10.824690   -4.805948    1.006442
    146          1           0       10.363643   -5.884807   -0.209752
    147          1           0        6.975796   -6.802014   -0.343027
    148          1           0        6.456058   -5.977963   -1.801036
    149          1           0        5.814737   -5.584298    1.030189
    150          1           0        4.669963   -5.616349   -0.360237
    151          1           0        5.665203   -4.140914    0.023046
    152          1           0        5.758166   -1.651535   -5.610622
    153          1           0        6.538351   -3.080207   -4.858049
    154          1           0        7.574852   -1.834085   -5.661233
    155          1           0        7.996762    2.994238   -3.983795
    156          1           0        5.451219    6.363316   -4.851216
    157          1           0        5.760956    6.566322   -3.010880
    158          1           0        4.444219    5.608449   -3.732655
 ---------------------------------------------------------------------

 SCF Done:  E(RCAM-B3LYP) =  -4069.81179999     A.U. after   19 cycles

 Excitation energies and oscillator strengths:

 Excited State   1:      Singlet-A      1.6705 eV  742.21 nm  f=0.0459  <S**2>=0.000
     309 -> 315        0.13982
     310 -> 316        0.10122
     311 -> 313        0.55675
     312 -> 314        0.40137
 This state for optimization and/or second-order correction.
 Total Energy, E(TD-HF/TD-DFT) =  -4069.75041109
 Copying the excited state density for this state as the 1-particle RhoCI density.

 Excited State   2:      Singlet-A      1.6850 eV  735.79 nm  f=0.7144  <S**2>=0.000
     309 -> 315       -0.10297
     310 -> 316        0.14349
     311 -> 313       -0.40087
     312 -> 314        0.55596

 Excited State   3:      Singlet-A      2.1858 eV  567.24 nm  f=0.0591  <S**2>=0.000
     309 -> 313        0.62803
     310 -> 314       -0.13667
     311 -> 315       -0.26657

 Excited State   4:      Singlet-A      2.1931 eV  565.34 nm  f=0.1341  <S**2>=0.000
     309 -> 313        0.13571
     310 -> 314        0.62607
     312 -> 316       -0.27218

 Excited State   5:      Singlet-A      2.7814 eV  445.76 nm  f=0.0000  <S**2>=0.000
     312 -> 313        0.70708

 The electronic state is 1-A.
 Alpha  occ. eigenvalues --  -46.87637 -46.87603 -19.26328 -19.26156 -19.19130
 Alpha  occ. eigenvalues --  -19.18882 -19.18650 -19.18645 -19.18029 -19.18015
 Alpha  occ. eigenvalues --  -14.42442 -14.42293 -14.41305 -14.41295 -14.39295
 Alpha  occ. eigenvalues --  -14.39241 -14.38545 -14.38431 -10.39059 -10.38942
 Alpha  occ. eigenvalues --  -10.35327 -10.35277 -10.34249 -10.34193 -10.31749
 Alpha  occ. eigenvalues --  -10.31564 -10.31259 -10.31254 -10.30968 -10.30749
 Alpha  occ. eigenvalues --  -10.30416 -10.30352 -10.30344 -10.30309 -10.30083
 Alpha  occ. eigenvalues --  -10.30051 -10.29843 -10.29773 -10.29474 -10.29379
 Alpha  occ. eigenvalues --  -10.29347 -10.29095 -10.28669 -10.28604 -10.28596
 Alpha  occ. eigenvalues --  -10.28385 -10.28351 -10.28207 -10.28092 -10.27967
 Alpha  occ. eigenvalues --  -10.27950 -10.27639 -10.27615 -10.27571 -10.27464
 Alpha  occ. eigenvalues --  -10.27431 -10.27423 -10.27410 -10.27401 -10.27360
 Alpha  occ. eigenvalues --  -10.27324 -10.27311 -10.27302 -10.27249 -10.27017
 Alpha  occ. eigenvalues --  -10.27013 -10.26634 -10.26538 -10.26340 -10.26218
 Alpha  occ. eigenvalues --  -10.26098 -10.26078 -10.26046 -10.25986 -10.25880
 Alpha  occ. eigenvalues --  -10.25867 -10.25814 -10.25712 -10.25353 -10.25309
 Alpha  occ. eigenvalues --  -10.24823 -10.24680 -10.24659 -10.24636 -10.24634
 Alpha  occ. eigenvalues --  -10.24539  -3.16379  -3.16353  -1.91261  -1.91235
 Alpha  occ. eigenvalues --   -1.90847  -1.90824  -1.90689  -1.90661  -1.16620
 Alpha  occ. eigenvalues --   -1.16503  -1.08624  -1.08489  -1.07045  -1.06915
 Alpha  occ. eigenvalues --   -1.06902  -1.06506  -1.04441  -1.04424  -1.03608
 Alpha  occ. eigenvalues --   -1.03606  -1.03077  -1.02984  -1.02256  -1.02057
 Alpha  occ. eigenvalues --   -0.91939  -0.91822  -0.89440  -0.89372  -0.89101
 Alpha  occ. eigenvalues --   -0.89036  -0.88166  -0.88141  -0.87747  -0.87723
 Alpha  occ. eigenvalues --   -0.87630  -0.87518  -0.87105  -0.87059  -0.84948
 Alpha  occ. eigenvalues --   -0.84828  -0.83823  -0.83794  -0.82869  -0.82799
 Alpha  occ. eigenvalues --   -0.82600  -0.82494  -0.81558  -0.81445  -0.80445
 Alpha  occ. eigenvalues --   -0.80396  -0.78636  -0.78580  -0.77092  -0.77068
 Alpha  occ. eigenvalues --   -0.76853  -0.76790  -0.75795  -0.75778  -0.74757
 Alpha  occ. eigenvalues --   -0.74754  -0.72648  -0.72623  -0.71533  -0.71525
 Alpha  occ. eigenvalues --   -0.69763  -0.69700  -0.68776  -0.68719  -0.67550
 Alpha  occ. eigenvalues --   -0.67487  -0.67143  -0.67058  -0.65223  -0.65134
 Alpha  occ. eigenvalues --   -0.64721  -0.64705  -0.64607  -0.64473  -0.64151
 Alpha  occ. eigenvalues --   -0.64122  -0.62242  -0.62160  -0.60281  -0.60281
 Alpha  occ. eigenvalues --   -0.59746  -0.59651  -0.58943  -0.58837  -0.58377
 Alpha  occ. eigenvalues --   -0.58354  -0.57516  -0.57442  -0.57184  -0.57159
 Alpha  occ. eigenvalues --   -0.56157  -0.56155  -0.55849  -0.55840  -0.55402
 Alpha  occ. eigenvalues --   -0.55363  -0.55202  -0.55199  -0.54444  -0.54385
 Alpha  occ. eigenvalues --   -0.53862  -0.53742  -0.53175  -0.53144  -0.53092
 Alpha  occ. eigenvalues --   -0.53064  -0.52855  -0.52767  -0.52607  -0.52590
 Alpha  occ. eigenvalues --   -0.52343  -0.52294  -0.51844  -0.51774  -0.51605
 Alpha  occ. eigenvalues --   -0.51458  -0.51156  -0.51050  -0.50410  -0.50396
 Alpha  occ. eigenvalues --   -0.49925  -0.49884  -0.49813  -0.49756  -0.49432
 Alpha  occ. eigenvalues --   -0.49358  -0.49154  -0.49063  -0.49060  -0.48950
 Alpha  occ. eigenvalues --   -0.48516  -0.48450  -0.48330  -0.48317  -0.48286
 Alpha  occ. eigenvalues --   -0.48281  -0.47544  -0.47541  -0.47144  -0.47066
 Alpha  occ. eigenvalues --   -0.46658  -0.46648  -0.46502  -0.46402  -0.46219
 Alpha  occ. eigenvalues --   -0.46208  -0.46040  -0.46019  -0.45784  -0.45684
 Alpha  occ. eigenvalues --   -0.45158  -0.45058  -0.44471  -0.44434  -0.44424
 Alpha  occ. eigenvalues --   -0.44347  -0.44080  -0.44024  -0.43993  -0.43940
 Alpha  occ. eigenvalues --   -0.43886  -0.43866  -0.43516  -0.43355  -0.43338
 Alpha  occ. eigenvalues --   -0.43235  -0.42895  -0.42879  -0.42858  -0.42562
 Alpha  occ. eigenvalues --   -0.42513  -0.42496  -0.41909  -0.41863  -0.41623
 Alpha  occ. eigenvalues --   -0.41556  -0.41406  -0.41381  -0.40993  -0.40941
 Alpha  occ. eigenvalues --   -0.40718  -0.40665  -0.40654  -0.40640  -0.40441
 Alpha  occ. eigenvalues --   -0.40427  -0.40170  -0.40073  -0.39366  -0.39296
 Alpha  occ. eigenvalues --   -0.38323  -0.38297  -0.37602  -0.37592  -0.37212
 Alpha  occ. eigenvalues --   -0.37172  -0.37147  -0.37107  -0.36738  -0.36576
 Alpha  occ. eigenvalues --   -0.36170  -0.36048  -0.34201  -0.34132  -0.33826
 Alpha  occ. eigenvalues --   -0.33628  -0.33123  -0.33032  -0.31210  -0.31176
 Alpha  occ. eigenvalues --   -0.30920  -0.30881  -0.29920  -0.29889  -0.29288
 Alpha  occ. eigenvalues --   -0.29271  -0.29168  -0.29161  -0.23982  -0.23925
 Alpha  occ. eigenvalues --   -0.21063  -0.20972
 Alpha virt. eigenvalues --   -0.08738  -0.08617  -0.01628  -0.01593   0.00028
 Alpha virt. eigenvalues --    0.00105   0.02253   0.02349   0.03313   0.03315
 Alpha virt. eigenvalues --    0.04782   0.04871   0.05197   0.05236   0.06230

 Mulliken charges:
               1
     1  Mg   0.839417
     2  C   -0.002805
     3  C   -0.093842
     4  C   -0.045846
     5  C   -0.064058
     6  N   -0.256767
     7  C   -0.052455
     8  C   -0.014113
     9  C   -0.087093
    10  C    0.046521
    11  C    0.104871
    12  C    0.053395
    13  C   -0.071720
    14  H    0.035987
    15  N   -0.433163
    16  C    0.168718
    17  C   -0.176861
    18  C   -0.003790
    19  C    0.148899
    20  C    0.110151
    21  C    0.012584
    22  O   -0.249809
    23  C    0.062266
    24  N   -0.341162
    25  C    0.041284
    26  C   -0.028129
    27  C   -0.023904
    28  C    0.074833
    29  C    0.076261
    30  C    0.035172
    31  C   -0.004485
    32  N   -0.310404
    33  C    0.080387
    34  C   -0.169866
    35  C    0.008183
    36  C    0.083056
    37  C    0.127344
    38  C    0.046017
    39  O   -0.188963
    40  C   -0.005340
    41  C    0.212715
    42  O   -0.256774
    43  O   -0.304887
    44  C    0.157819
    45  H   -0.017683
    46  H   -0.016951
    47  H   -0.041776
    48  H    0.000623
    49  H   -0.003894
    50  H    0.025279
    51  H    0.016364
    52  H    0.016477
    53  H    0.011887
    54  H    0.044339
    55  H    0.017454
    56  H    0.018117
    57  H    0.005826
    58  H    0.026593
    59  H    0.040465
    60  H    0.037087
    61  H    0.035662
    62  H    0.032491
    63  H    0.016559
    64  H    0.009172
    65  H    0.023033
    66  H    0.012480
    67  H    0.004517
    68  H    0.006054
    69  H    0.004523
    70  H    0.008767
    71  H    0.018048
    72  H    0.029406
    73  H    0.047345
    74  H    0.008970
    75  H    0.045695
    76  H    0.034866
    77  H    0.042494
    78  H    0.046426
    79  H    0.053643
    80  Mg   0.838478
    81  C   -0.016716
    82  C   -0.087729
    83  C   -0.045456
    84  C   -0.064873
    85  N   -0.254585
    86  C   -0.049830
    87  C   -0.015159
    88  C   -0.090555
    89  C    0.045917
    90  C    0.114403
    91  C    0.062486
    92  C   -0.077866
    93  H    0.034836
    94  N   -0.423541
    95  C    0.163156
    96  C   -0.174522
    97  C   -0.007641
    98  C    0.152244
    99  C    0.099370
   100  C    0.015773
   101  O   -0.253160
   102  C    0.061073
   103  N   -0.350129
   104  C    0.037574
   105  C   -0.019838
   106  C   -0.034800
   107  C    0.088946
   108  C    0.073704
   109  C    0.034743
   110  C   -0.007710
   111  N   -0.324078
   112  C    0.078473
   113  C   -0.163178
   114  C    0.002051
   115  C    0.096308
   116  C    0.131516
   117  C    0.042314
   118  O   -0.188459
   119  C    0.000900
   120  C    0.211059
   121  O   -0.250749
   122  O   -0.305679
   123  C    0.152179
   124  H   -0.019701
   125  H   -0.015554
   126  H   -0.040545
   127  H   -0.000897
   128  H   -0.004233
   129  H    0.022311
   130  H    0.014394
   131  H    0.016187
   132  H    0.014347
   133  H    0.037839
   134  H    0.020488
   135  H    0.019737
   136  H    0.008738
   137  H    0.026055
   138  H    0.040229
   139  H    0.038114
   140  H    0.036491
   141  H    0.034345
   142  H    0.014521
   143  H    0.012237
   144  H    0.025110
   145  H    0.011555
   146  H    0.005543
   147  H    0.006137
   148  H    0.003584
   149  H    0.010973
   150  H    0.018112
   151  H    0.030323
   152  H    0.045770
   153  H    0.008568
   154  H    0.046694
   155  H    0.034804
   156  H    0.043424
   157  H    0.049604
   158  H    0.053445
 Sum of Mulliken charges =  -0.00000

 Dipole moment (field-independent basis, Debye):
    X=              1.1234    Y=              3.0965    Z=             -1.2234  Tot=              3.5138
 Quadrupole moment (field-independent basis, Debye-Ang):
   XX=           -442.9232   YY=           -460.7053   ZZ=           -539.2665
   XY=             12.7995   XZ=             47.2029   YZ=             -5.6850

 Normal termination of Gaussian 16 at Sat Sep 11 23:05:21 2021.
