 Gaussian 16, Revision A.03,
 Gaussian 16:  ES64L-G16RevA.03 25-Dec-2016

 -----------------------------------
 #p cam-b3lyp/Def2SVP td=(nstates=5)
 -----------------------------------

 --------------------------------
 TDDFT excited states in gaussian
 --------------------------------
 Symbolic Z-matrix:
 Charge =  0 Multiplicity = 1

                         Standard orientation:
 ---------------------------------------------------------------------
 Center     Atomic      Atomic             Coordinates (Angstroms)
 Number     Number       Type             X           Y           Z
 ---------------------------------------------------------------------
      1         12           0        6.228239    1.149080    0.561302
      2          6           0        6.738547   -2.333575   -0.089012
      3          6           0        7.260239    1.744923   -2.636042
      4          6           0        6.221256    4.244288    1.251419
      5          6           0        6.338984    0.379808    3.958598
      6          7           0        6.887796   -0.205459   -1.060688
      7          6           0        6.981005   -1.524090   -1.201034
      8          6           0        7.287248   -1.969768   -2.662184
      9          6           0        7.974471   -0.633124   -3.194263
     10          6           0        7.309295    0.368011   -2.266258
     11          6           0        9.481711   -0.589803   -2.964370
     12          6           0        5.986307   -2.304506   -3.466692
     13          6           0        6.207251   -3.053922   -4.783853
     14          1           0        5.228053   -4.047908   -5.196783
     15          7           0        6.201147    2.726715   -0.627472
     16          6           0        6.646976    2.785556   -1.905385
     17          6           0        6.408368    4.173348   -2.356804
     18          6           0        5.962684    4.965357   -1.176896
     19          6           0        6.137956    4.004312   -0.118099
     20          6           0        6.557972    4.612534   -3.781052
     21          6           0        5.468723    6.369395   -1.025866
     22          8           0        5.355479    6.931362    0.116912
     23          6           0        5.201395    7.109411   -2.272444
     24          7           0        6.492292    2.207792    2.340921
     25          6           0        6.382851    3.540430    2.373790
     26          6           0        6.328413    4.049199    3.783801
     27          6           0        6.178490    2.759699    4.713567
     28          6           0        6.259617    1.668136    3.618039
     29          6           0        7.538488    4.873127    4.245181
     30          6           0        4.977899    2.734375    5.692525
     31          6           0        3.683907    2.641110    4.915362
     32          7           0        6.312727   -0.661343    1.755570
     33          6           0        6.373891   -0.746819    3.154007
     34          6           0        6.526561   -2.173571    3.493329
     35          6           0        6.560478   -2.821542    2.260111
     36          6           0        6.463217   -1.857938    1.215937
     37          6           0        6.672388   -2.707464    4.804102
     38          6           0        6.681028   -4.101492    1.581101
     39          8           0        6.698881   -5.278109    1.945445
     40          6           0        6.923671   -3.825797    0.031603
     41          6           0        5.987480   -4.715157   -0.740338
     42          8           0        4.752731   -4.541321   -0.689919
     43          8           0        6.694909   -5.470352   -1.594602
     44          6           0        5.823167   -6.355166   -2.412724
     45          1           0        7.788287    2.069181   -3.534910
     46          1           0        6.111170    5.292273    1.537857
     47          1           0        6.295460    0.056046    5.000105
     48          1           0        7.982839   -2.804936   -2.746276
     49          1           0        7.709173   -0.423751   -4.230362
     50          1           0        9.816195   -1.429818   -2.355751
     51          1           0        9.670648    0.352396   -2.449533
     52          1           0       10.016457   -0.525719   -3.912377
     53          1           0        5.552651   -1.380625   -3.849378
     54          1           0        5.282924   -2.862756   -2.847875
     55          1           0        7.216080   -3.463072   -4.845254
     56          1           0        6.157308   -2.332718   -5.599677
     57          1           0        7.056109    3.854170   -4.383786
     58          1           0        7.246954    5.456933   -3.783168
     59          1           0        5.606492    4.913324   -4.219849
     60          1           0        6.115084    7.157820   -2.865215
     61          1           0        4.771124    8.063316   -1.969489
     62          1           0        4.479243    6.549581   -2.867453
     63          1           0        5.466692    4.698696    3.932180
     64          1           0        7.047915    2.614822    5.355272
     65          1           0        7.279058    5.870357    4.601458
     66          1           0        8.245930    4.925115    3.418069
     67          1           0        8.144029    4.402000    5.018988
     68          1           0        4.939644    3.657685    6.269571
     69          1           0        5.014981    1.903898    6.397638
     70          1           0        3.483395    3.678769    4.650995
     71          1           0        2.890063    2.238304    5.545259
     72          1           0        3.816999    2.087824    3.985498
     73          1           0        6.035537   -3.590990    4.846187
     74          1           0        6.388666   -1.978165    5.562540
     75          1           0        7.739792   -2.927439    4.814942
     76          1           0        7.968816   -4.059777   -0.168513
     77          1           0        6.173727   -7.376692   -2.264992
     78          1           0        5.840954   -5.955812   -3.426926
     79          1           0        4.786073   -6.444429   -2.087445
     80         12           0       -6.937156    0.138760   -0.264906
     81          6           0       -4.791950   -2.734392   -0.116124
     82          6           0       -4.640399    1.559858   -2.348173
     83          6           0       -8.575365    2.848374   -0.060658
     84          6           0       -8.449606   -1.012051    2.656363
     85          7           0       -5.005856   -0.592477   -1.057141
     86          6           0       -4.322036   -1.724273   -0.981159
     87          6           0       -3.107273   -1.807658   -1.943945
     88          6           0       -2.845569   -0.235127   -2.137641
     89          6           0       -4.256680    0.282669   -1.866867
     90          6           0       -1.912276    0.352882   -1.092382
     91          6           0       -3.469013   -2.501567   -3.303958
     92          6           0       -2.266695   -2.894222   -4.165360
     93          1           0       -2.346083   -4.121052   -4.953425
     94          7           0       -6.922378    1.739932   -1.437349
     95          6           0       -5.915429    2.156118   -2.233667
     96          6           0       -6.392033    3.393023   -2.871700
     97          6           0       -7.698417    3.762097   -2.261908
     98          6           0       -7.774391    2.787906   -1.191728
     99          6           0       -5.664773    4.056410   -4.005031
    100          6           0       -8.705794    4.825133   -2.580259
    101          8           0       -9.656495    5.115797   -1.771246
    102          6           0       -8.491984    5.579593   -3.823871
    103          7           0       -8.169077    0.933904    1.209026
    104          6           0       -8.800844    2.106267    1.023666
    105          6           0       -9.840298    2.340904    2.093659
    106          6           0       -9.943337    0.964665    2.901692
    107          6           0       -8.832969    0.166174    2.184141
    108          6           0       -9.546668    3.481818    3.067562
    109          6           0      -11.353120    0.324137    3.023874
    110          6           0      -11.826845   -0.143653    1.666618
    111          7           0       -6.818429   -1.644071    0.949784
    112          6           0       -7.520395   -1.909520    2.145966
    113          6           0       -7.021599   -3.198981    2.666487
    114          6           0       -6.039938   -3.586103    1.741857
    115          6           0       -5.920170   -2.597240    0.728293
    116          6           0       -7.441730   -3.827759    3.872409
    117          6           0       -5.070297   -4.601298    1.398528
    118          8           0       -4.782757   -5.712860    1.840683
    119          6           0       -4.130314   -4.034189    0.249083
    120          6           0       -4.016315   -5.086812   -0.819329
    121          8           0       -5.011608   -5.421424   -1.485677
    122          8           0       -2.716433   -5.366336   -1.025582
    123          6           0       -2.551439   -6.397345   -2.084653
    124          1           0       -3.883032    2.184598   -2.822492
    125          1           0       -9.241481    3.712150   -0.000241
    126          1           0       -8.939375   -1.486460    3.509443
    127          1           0       -2.227766   -2.282199   -1.525538
    128          1           0       -2.544894   -0.007359   -3.156984
    129          1           0       -1.671810   -0.361755   -0.319332
    130          1           0       -2.437224    1.201308   -0.673279
    131          1           0       -1.017239    0.759234   -1.572093
    132          1           0       -3.942539   -1.765718   -3.966554
    133          1           0       -4.091761   -3.359460   -3.140174
    134          1           0       -1.326718   -2.859974   -3.601243
    135          1           0       -2.138302   -2.140625   -4.946146
    136          1           0       -4.652538    3.651121   -4.125513
    137          1           0       -5.506470    5.100931   -3.715568
    138          1           0       -6.228565    4.030335   -4.939984
    139          1           0       -7.517986    6.061962   -3.790701
    140          1           0       -9.361984    6.231577   -3.923375
    141          1           0       -8.465109    4.873430   -4.661254
    142          1           0      -10.804756    2.563197    1.653768
    143          1           0       -9.621400    1.080828    3.947017
    144          1           0      -10.346112    4.246028    3.098363
    145          1           0       -8.601678    3.930954    2.792225
    146          1           0       -9.365842    3.175644    4.096528
    147          1           0      -12.077986    1.066569    3.366685
    148          1           0      -11.390783   -0.507739    3.719246
    149          1           0      -12.238876    0.767044    1.221685
    150          1           0      -12.590129   -0.912083    1.771197
    151          1           0      -10.983080   -0.462316    1.043590
    152          1           0       -7.568540   -4.878481    3.647865
    153          1           0       -8.361905   -3.387409    4.250733
    154          1           0       -6.586009   -3.606760    4.515972
    155          1           0       -3.164696   -3.802398    0.700102
    156          1           0       -1.964294   -7.211707   -1.649045
    157          1           0       -2.112916   -5.867846   -2.951308
    158          1           0       -3.438696   -6.927277   -2.410802
 ---------------------------------------------------------------------

 SCF Done:  E(RCAM-B3LYP) =  -4069.81160714     A.U. after   19 cycles

 Excitation energies and oscillator strengths:

 Excited State   1:      Singlet-A      1.6644 eV  744.94 nm  f=0.0052  <S**2>=0.000
     309 -> 315       -0.11246
     310 -> 316        0.12876
     311 -> 313       -0.44965
     312 -> 314        0.51901
 This state for optimization and/or second-order correction.
 Total Energy, E(TD-HF/TD-DFT) =  -4069.75044320
 Copying the excited state density for this state as the 1-particle RhoCI density.

 Excited State   2:      Singlet-A      1.6897 eV  733.78 nm  f=0.7341  <S**2>=0.000
     309 -> 315        0.13467
     310 -> 316        0.11577
     311 -> 313        0.51771
     312 -> 314        0.44864

 Excited State   3:      Singlet-A      2.1846 eV  567.54 nm  f=0.0710  <S**2>=0.000
     309 -> 313        0.15035
     310 -> 314        0.62516
     312 -> 316       -0.26436

 Excited State   4:      Singlet-A      2.1931 eV  565.33 nm  f=0.1248  <S**2>=0.000
     309 -> 313        0.62283
     310 -> 314       -0.14906
     311 -> 315       -0.27115

 Excited State   5:      Singlet-A      2.5977 eV  477.28 nm  f=0.0000  <S**2>=0.000
     312 -> 313        0.70692

 The electronic state is 1-A.
 Alpha  occ. eigenvalues --  -46.87971 -46.87520 -19.26432 -19.26064 -19.19174
 Alpha  occ. eigenvalues --  -19.18994 -19.18922 -19.18606 -19.18303 -19.17863
 Alpha  occ. eigenvalues --  -14.42623 -14.42350 -14.41613 -14.41221 -14.39578
 Alpha  occ. eigenvalues --  -14.39215 -14.38752 -14.38455 -10.39233 -10.38847
 Alpha  occ. eigenvalues --  -10.35629 -10.35286 -10.34524 -10.34035 -10.31824
 Alpha  occ. eigenvalues --  -10.31568 -10.31464 -10.31149 -10.31089 -10.30867
 Alpha  occ. eigenvalues --  -10.30731 -10.30669 -10.30372 -10.30257 -10.30213
 Alpha  occ. eigenvalues --  -10.30071 -10.30020 -10.29792 -10.29757 -10.29424
 Alpha  occ. eigenvalues --  -10.29308 -10.29264 -10.28935 -10.28755 -10.28534
 Alpha  occ. eigenvalues --  -10.28513 -10.28467 -10.28290 -10.28255 -10.27958
 Alpha  occ. eigenvalues --  -10.27950 -10.27895 -10.27859 -10.27753 -10.27673
 Alpha  occ. eigenvalues --  -10.27637 -10.27585 -10.27570 -10.27529 -10.27411
 Alpha  occ. eigenvalues --  -10.27377 -10.27333 -10.27326 -10.27306 -10.27266
 Alpha  occ. eigenvalues --  -10.26930 -10.26825 -10.26614 -10.26514 -10.26385
 Alpha  occ. eigenvalues --  -10.26336 -10.26307 -10.26176 -10.26043 -10.25944
 Alpha  occ. eigenvalues --  -10.25811 -10.25802 -10.25713 -10.25556 -10.25298
 Alpha  occ. eigenvalues --  -10.24987 -10.24949 -10.24821 -10.24724 -10.24640
 Alpha  occ. eigenvalues --  -10.24552  -3.16715  -3.16270  -1.91597  -1.91182
 Alpha  occ. eigenvalues --   -1.91152  -1.91024  -1.90741  -1.90578  -1.16782
 Alpha  occ. eigenvalues --   -1.16370  -1.08758  -1.08461  -1.07396  -1.06860
 Alpha  occ. eigenvalues --   -1.06795  -1.06702  -1.04753  -1.04344  -1.03926
 Alpha  occ. eigenvalues --   -1.03521  -1.03399  -1.02902  -1.02575  -1.01970
 Alpha  occ. eigenvalues --   -0.92131  -0.91819  -0.89668  -0.89367  -0.89364
 Alpha  occ. eigenvalues --   -0.88970  -0.88433  -0.88099  -0.88012  -0.87843
 Alpha  occ. eigenvalues --   -0.87650  -0.87537  -0.87452  -0.87005  -0.85160
 Alpha  occ. eigenvalues --   -0.84835  -0.84077  -0.83752  -0.83144  -0.82825
 Alpha  occ. eigenvalues --   -0.82820  -0.82493  -0.81740  -0.81397  -0.80760
 Alpha  occ. eigenvalues --   -0.80270  -0.78964  -0.78508  -0.77379  -0.77097
 Alpha  occ. eigenvalues --   -0.76998  -0.76723  -0.76083  -0.75655  -0.75042
 Alpha  occ. eigenvalues --   -0.74666  -0.72929  -0.72557  -0.71829  -0.71426
 Alpha  occ. eigenvalues --   -0.70047  -0.69645  -0.69046  -0.68667  -0.67804
 Alpha  occ. eigenvalues --   -0.67454  -0.67412  -0.67046  -0.65461  -0.65093
 Alpha  occ. eigenvalues --   -0.65012  -0.64782  -0.64617  -0.64478  -0.64419
 Alpha  occ. eigenvalues --   -0.64071  -0.62449  -0.62068  -0.60611  -0.60218
 Alpha  occ. eigenvalues --   -0.59977  -0.59625  -0.59145  -0.58841  -0.58661
 Alpha  occ. eigenvalues --   -0.58268  -0.57734  -0.57463  -0.57353  -0.57092
 Alpha  occ. eigenvalues --   -0.56467  -0.56137  -0.56060  -0.55686  -0.55676
 Alpha  occ. eigenvalues --   -0.55482  -0.55295  -0.55091  -0.54668  -0.54312
 Alpha  occ. eigenvalues --   -0.54075  -0.53737  -0.53464  -0.53394  -0.53088
 Alpha  occ. eigenvalues --   -0.53074  -0.52979  -0.52938  -0.52728  -0.52575
 Alpha  occ. eigenvalues --   -0.52539  -0.52287  -0.52042  -0.51797  -0.51739
 Alpha  occ. eigenvalues --   -0.51497  -0.51346  -0.51037  -0.50761  -0.50373
 Alpha  occ. eigenvalues --   -0.50182  -0.50091  -0.49841  -0.49746  -0.49687
 Alpha  occ. eigenvalues --   -0.49373  -0.49342  -0.49257  -0.49040  -0.48926
 Alpha  occ. eigenvalues --   -0.48744  -0.48625  -0.48594  -0.48382  -0.48250
 Alpha  occ. eigenvalues --   -0.48197  -0.47860  -0.47458  -0.47442  -0.46983
 Alpha  occ. eigenvalues --   -0.46954  -0.46734  -0.46565  -0.46516  -0.46390
 Alpha  occ. eigenvalues --   -0.46309  -0.46133  -0.45962  -0.45930  -0.45638
 Alpha  occ. eigenvalues --   -0.45346  -0.45080  -0.44728  -0.44676  -0.44345
 Alpha  occ. eigenvalues --   -0.44321  -0.44302  -0.44258  -0.44175  -0.43967
 Alpha  occ. eigenvalues --   -0.43943  -0.43785  -0.43644  -0.43552  -0.43361
 Alpha  occ. eigenvalues --   -0.43222  -0.43181  -0.42848  -0.42799  -0.42761
 Alpha  occ. eigenvalues --   -0.42677  -0.42434  -0.42162  -0.41858  -0.41823
 Alpha  occ. eigenvalues --   -0.41709  -0.41503  -0.41300  -0.41300  -0.41041
 Alpha  occ. eigenvalues --   -0.41006  -0.40834  -0.40719  -0.40593  -0.40551
 Alpha  occ. eigenvalues --   -0.40438  -0.40356  -0.40051  -0.39581  -0.39316
 Alpha  occ. eigenvalues --   -0.38621  -0.38223  -0.37939  -0.37491  -0.37474
 Alpha  occ. eigenvalues --   -0.37443  -0.37131  -0.37039  -0.36863  -0.36552
 Alpha  occ. eigenvalues --   -0.36347  -0.36050  -0.34450  -0.34106  -0.33928
 Alpha  occ. eigenvalues --   -0.33643  -0.33349  -0.33029  -0.31523  -0.31200
 Alpha  occ. eigenvalues --   -0.31164  -0.30825  -0.30162  -0.29762  -0.29620
 Alpha  occ. eigenvalues --   -0.29477  -0.29195  -0.29064  -0.24247  -0.23890
 Alpha  occ. eigenvalues --   -0.21292  -0.20976
 Alpha virt. eigenvalues --   -0.08939  -0.08651  -0.01917  -0.01547  -0.00231
 Alpha virt. eigenvalues --    0.00106   0.02053   0.02367   0.02877   0.03353
 Alpha virt. eigenvalues --    0.04542   0.04882   0.04945   0.05401   0.05984

 Mulliken charges:
               1
     1  Mg   0.837338
     2  C   -0.003367
     3  C   -0.094636
     4  C   -0.045885
     5  C   -0.063682
     6  N   -0.256757
     7  C   -0.052678
     8  C   -0.013817
     9  C   -0.086855
    10  C    0.045840
    11  C    0.104741
    12  C    0.053640
    13  C   -0.071678
    14  H    0.035570
    15  N   -0.433146
    16  C    0.167806
    17  C   -0.177654
    18  C   -0.004337
    19  C    0.148365
    20  C    0.110202
    21  C    0.011787
    22  O   -0.249388
    23  C    0.062800
    24  N   -0.341085
    25  C    0.041146
    26  C   -0.028192
    27  C   -0.024075
    28  C    0.074807
    29  C    0.076049
    30  C    0.035019
    31  C   -0.004529
    32  N   -0.310633
    33  C    0.080488
    34  C   -0.169089
    35  C    0.008778
    36  C    0.082913
    37  C    0.127137
    38  C    0.046534
    39  O   -0.187304
    40  C   -0.005458
    41  C    0.213225
    42  O   -0.257532
    43  O   -0.304627
    44  C    0.157552
    45  H   -0.017516
    46  H   -0.016665
    47  H   -0.040837
    48  H    0.001393
    49  H   -0.004342
    50  H    0.025748
    51  H    0.016656
    52  H    0.016863
    53  H    0.010014
    54  H    0.043496
    55  H    0.018636
    56  H    0.017750
    57  H    0.005857
    58  H    0.027182
    59  H    0.038389
    60  H    0.037730
    61  H    0.035737
    62  H    0.030201
    63  H    0.016539
    64  H    0.009882
    65  H    0.023431
    66  H    0.012602
    67  H    0.005086
    68  H    0.006749
    69  H    0.005269
    70  H    0.008633
    71  H    0.018713
    72  H    0.028279
    73  H    0.048553
    74  H    0.009506
    75  H    0.046354
    76  H    0.035513
    77  H    0.043667
    78  H    0.046041
    79  H    0.053544
    80  Mg   0.837537
    81  C   -0.016869
    82  C   -0.087830
    83  C   -0.045698
    84  C   -0.065242
    85  N   -0.254567
    86  C   -0.049598
    87  C   -0.015564
    88  C   -0.090533
    89  C    0.045828
    90  C    0.114529
    91  C    0.062574
    92  C   -0.077901
    93  H    0.033701
    94  N   -0.423416
    95  C    0.162770
    96  C   -0.174846
    97  C   -0.008095
    98  C    0.152029
    99  C    0.099566
   100  C    0.015366
   101  O   -0.253495
   102  C    0.061288
   103  N   -0.350078
   104  C    0.037394
   105  C   -0.019728
   106  C   -0.034798
   107  C    0.089073
   108  C    0.073752
   109  C    0.034797
   110  C   -0.007616
   111  N   -0.324192
   112  C    0.078679
   113  C   -0.163304
   114  C    0.002634
   115  C    0.096040
   116  C    0.131494
   117  C    0.042466
   118  O   -0.186878
   119  C    0.001063
   120  C    0.210996
   121  O   -0.252019
   122  O   -0.303903
   123  C    0.152670
   124  H   -0.020210
   125  H   -0.015942
   126  H   -0.040681
   127  H    0.002523
   128  H   -0.005237
   129  H    0.024461
   130  H    0.013861
   131  H    0.015736
   132  H    0.013034
   133  H    0.037580
   134  H    0.023565
   135  H    0.018115
   136  H    0.008191
   137  H    0.025744
   138  H    0.039186
   139  H    0.038033
   140  H    0.036029
   141  H    0.033634
   142  H    0.014132
   143  H    0.012268
   144  H    0.024820
   145  H    0.011688
   146  H    0.005456
   147  H    0.005995
   148  H    0.003563
   149  H    0.010780
   150  H    0.017721
   151  H    0.030266
   152  H    0.046049
   153  H    0.008165
   154  H    0.047220
   155  H    0.037544
   156  H    0.045077
   157  H    0.049216
   158  H    0.052351
 Sum of Mulliken charges =  -0.00000

 Dipole moment (field-independent basis, Debye):
    X=              4.7404    Y=              5.3395    Z=             -4.8952  Tot=              8.6570
 Quadrupole moment (field-independent basis, Debye-Ang):
   XX=           -505.4063   YY=           -567.1768   ZZ=           -451.6175
   XY=              2.6536   XZ=            -37.2078   YZ=             10.0760

 Normal termination of Gaussian 16 at Sat Sep 11 13:23:49 2021.
