 Gaussian 16, Revision A.03,
 Gaussian 16:  ES64L-G16RevA.03 25-Dec-2016

 -----------------------------------
 #p cam-b3lyp/Def2SVP td=(nstates=5)
 -----------------------------------

 --------------------------------
 TDDFT excited states in gaussian
 --------------------------------
 Symbolic Z-matrix:
 Charge =  0 Multiplicity = 1

                         Standard orientation:
 ---------------------------------------------------------------------
 Center     Atomic      Atomic             Coordinates (Angstroms)
 Number     Number       Type             X           Y           Z
 ---------------------------------------------------------------------
      1         12           0        5.444347    0.418905    1.048433
      2          6           0        5.967377   -2.534849   -0.904510
      3          6           0        6.810195    2.186475   -1.530951
      4          6           0        5.412017    2.974487    2.925819
      5          6           0        5.191737   -1.650497    3.841177
      6          7           0        6.247906   -0.207521   -0.916899
      7          6           0        6.335530   -1.362740   -1.568790
      8          6           0        6.784576   -1.202612   -3.052061
      9          6           0        7.542918    0.195046   -2.936004
     10          6           0        6.800288    0.776232   -1.745774
     11          6           0        9.018780    0.059357   -2.575558
     12          6           0        5.568977   -1.114945   -4.035099
     13          6           0        5.913790   -1.285575   -5.517443
     14          1           0        4.967886   -1.975455   -6.381548
     15          7           0        5.563773    2.339304    0.600485
     16          6           0        6.140189    2.879899   -0.499873
     17          6           0        5.970184    4.343243   -0.371796
     18          6           0        5.416689    4.620185    0.982840
     19          6           0        5.467232    3.307645    1.574500
     20          6           0        6.272779    5.306701   -1.478112
     21          6           0        4.930670    5.871409    1.643414
     22          8           0        4.708217    5.934399    2.900840
     23          6           0        4.804709    7.061997    0.783370
     24          7           0        5.538649    0.660583    3.119745
     25          6           0        5.446205    1.872525    3.677988
     26          6           0        5.253810    1.776657    5.162485
     27          6           0        4.989402    0.233271    5.475219
     28          6           0        5.167160   -0.331308    4.044162
     29          6           0        6.421791    2.278823    6.022520
     30          6           0        3.693770   -0.115303    6.249977
     31          6           0        2.485841    0.181926    5.389942
     32          7           0        5.377976   -1.719810    1.412489
     33          6           0        5.292921   -2.361029    2.656787
     34          6           0        5.388470   -3.810401    2.403290
     35          6           0        5.540105   -3.911486    1.021757
     36          6           0        5.565671   -2.606769    0.451362
     37          6           0        5.390018   -4.831411    3.394234
     38          6           0        5.711199   -4.817262   -0.102589
     39          8           0        5.673797   -6.040382   -0.244269
     40          6           0        6.116846   -3.958379   -1.380711
     41          6           0        5.252395   -4.411255   -2.525672
     42          8           0        4.021771   -4.204161   -2.519043
     43          8           0        6.033075   -4.799310   -3.545718
     44          6           0        5.237563   -5.233108   -4.725181
     45          1           0        7.433125    2.813627   -2.171716
     46          1           0        5.288480    3.824597    3.599978
     47          1           0        5.035937   -2.361063    4.654981
     48          1           0        7.472650   -1.971389   -3.404142
     49          1           0        7.389327    0.815879   -3.818442
     50          1           0        9.276016   -0.971112   -2.330844
     51          1           0        9.167439    0.704765   -1.709624
     52          1           0        9.649587    0.467807   -3.365513
     53          1           0        5.190994   -0.092695   -4.049018
     54          1           0        4.797157   -1.834378   -3.759352
     55          1           0        6.917370   -1.691041   -5.649101
     56          1           0        5.959200   -0.296595   -5.973575
     57          1           0        6.819253    4.826654   -2.288954
     58          1           0        6.970753    6.041887   -1.078057
     59          1           0        5.376350    5.810051   -1.840585
     60          1           0        5.775417    7.292999    0.344151
     61          1           0        4.359634    7.837136    1.406201
     62          1           0        4.139724    6.827924   -0.048467
     63          1           0        4.391109    2.359044    5.483419
     64          1           0        5.785557   -0.204122    6.078127
     65          1           0        6.141751    3.062810    6.726542
     66          1           0        7.211667    2.618281    5.353077
     67          1           0        6.936998    1.504709    6.590610
     68          1           0        3.609766    0.500488    7.144790
     69          1           0        3.645394   -1.159224    6.560042
     70          1           0        2.329180    1.248018    5.550365
     71          1           0        1.625219   -0.394746    5.730514
     72          1           0        2.706144    0.040571    4.331655
     73          1           0        4.739175   -5.621265    3.019398
     74          1           0        5.040251   -4.452116    4.354130
     75          1           0        6.447192   -5.095976    3.409923
     76          1           0        7.173491   -4.150101   -1.564740
     77          1           0        5.555752   -6.246060   -4.971993
     78          1           0        5.366065   -4.462899   -5.485885
     79          1           0        4.171180   -5.387610   -4.556967
     80         12           0       -4.978226    0.530541   -0.796639
     81          6           0       -7.524616   -1.636711    0.506422
     82          6           0       -7.388458    2.922588   -1.118350
     83          6           0       -2.865667    2.307749   -2.360625
     84          6           0       -3.075646   -2.318484   -1.436133
     85          7           0       -7.140531    0.524290   -0.331202
     86          6           0       -7.985549   -0.335289    0.217810
     87          6           0       -9.382569    0.256529    0.545908
     88          6           0       -9.386862    1.464020   -0.512771
     89          6           0       -7.880601    1.681277   -0.641846
     90          6           0       -9.930770    1.067839   -1.875324
     91          6           0       -9.476576    0.784979    2.020324
     92          6           0      -10.895537    1.091674    2.504306
     93          1           0      -11.226688    0.827213    3.901762
     94          7           0       -4.965536    2.479623   -1.170120
     95          6           0       -6.033593    3.301500   -1.241192
     96          6           0       -5.496033    4.633055   -1.560818
     97          6           0       -4.039615    4.497506   -1.835034
     98          6           0       -3.901545    3.055018   -1.819248
     99          6           0       -6.328386    5.881123   -1.506465
    100          6           0       -2.953614    5.499777   -2.084516
    101          8           0       -1.805942    5.150720   -2.536017
    102          6           0       -3.303714    6.911996   -1.873412
    103          7           0       -3.316321    0.055579   -1.951993
    104          6           0       -2.538628    1.020301   -2.473942
    105          6           0       -1.256684    0.446827   -3.029046
    106          6           0       -1.227016   -1.079467   -2.552459
    107          6           0       -2.600040   -1.151618   -1.848905
    108          6           0       -1.103565    0.508291   -4.548642
    109          6           0        0.030143   -1.548029   -1.769730
    110          6           0        0.085529   -0.861928   -0.423781
    111          7           0       -5.142349   -1.579357   -0.361409
    112          6           0       -4.246326   -2.601475   -0.744153
    113          6           0       -4.841717   -3.884528   -0.317898
    114          6           0       -6.063273   -3.518809    0.267375
    115          6           0       -6.227513   -2.109267    0.191847
    116          6           0       -4.279881   -5.174559   -0.533067
    117          6           0       -7.256026   -4.005642    0.922383
    118          8           0       -7.634645   -5.100940    1.335551
    119          6           0       -8.313149   -2.820788    0.993045
    120          6           0       -8.861215   -2.770152    2.392901
    121          8           0       -8.124432   -2.473192    3.349759
    122          8           0      -10.202402   -2.866347    2.344743
    123          6           0      -10.793083   -2.809835    3.708463
    124          1           0       -8.105706    3.663760   -1.472044
    125          1           0       -2.055777    2.883752   -2.814258
    126          1           0       -2.499620   -3.243261   -1.511410
    127          1           0      -10.214829   -0.409809    0.353282
    128          1           0       -9.865790    2.348602   -0.101056
    129          1           0      -10.115332    0.005952   -1.942225
    130          1           0       -9.176442    1.366604   -2.591401
    131          1           0      -10.821124    1.657491   -2.111777
    132          1           0       -9.040046    1.790886    2.068675
    133          1           0       -9.002181    0.104143    2.700064
    134          1           0      -11.658304    0.665528    1.841332
    135          1           0      -11.058102    2.170392    2.441344
    136          1           0       -7.398216    5.648454   -1.437755
    137          1           0       -6.220575    6.379837   -2.475756
    138          1           0       -6.008632    6.566682   -0.718794
    139          1           0       -4.137975    7.177540   -2.518355
    140          1           0       -2.374708    7.467684   -2.014957
    141          1           0       -3.651626    7.035746   -0.841782
    142          1           0       -0.394709    0.959500   -2.620066
    143          1           0       -1.273717   -1.773379   -3.404600
    144          1           0       -0.191422    1.043194   -4.874126
    145          1           0       -1.986928    0.976580   -4.962044
    146          1           0       -1.097081   -0.457228   -5.051559
    147          1           0        0.938497   -1.258045   -2.303532
    148          1           0        0.071981   -2.622110   -1.622775
    149          1           0        0.545426    0.102957   -0.657387
    150          1           0        0.697172   -1.432524    0.272173
    151          1           0       -0.922471   -0.662781   -0.041781
    152          1           0       -4.404053   -5.726036    0.389408
    153          1           0       -3.232466   -5.109182   -0.820172
    154          1           0       -4.909437   -5.526945   -1.354494
    155          1           0       -9.089884   -3.030398    0.256632
    156          1           0      -11.404690   -3.709292    3.829253
    157          1           0      -11.313074   -1.835294    3.768648
    158          1           0      -10.117632   -2.898611    4.551288
 ---------------------------------------------------------------------

 SCF Done:  E(RCAM-B3LYP) =  -4069.81291570     A.U. after   19 cycles

 Excitation energies and oscillator strengths:

 Excited State   1:      Singlet-A      1.6542 eV  749.52 nm  f=0.0059  <S**2>=0.000
     309 -> 315       -0.11119
     310 -> 316        0.12681
     311 -> 313       -0.45095
     312 -> 314        0.51860
 This state for optimization and/or second-order correction.
 Total Energy, E(TD-HF/TD-DFT) =  -4069.75212575
 Copying the excited state density for this state as the 1-particle RhoCI density.

 Excited State   2:      Singlet-A      1.6965 eV  730.80 nm  f=0.7120  <S**2>=0.000
     309 -> 315        0.13601
     310 -> 316        0.11721
     311 -> 313        0.51673
     312 -> 314        0.44929

 Excited State   3:      Singlet-A      2.1834 eV  567.86 nm  f=0.0873  <S**2>=0.000
     309 -> 313        0.12631
     310 -> 314        0.63080
     312 -> 316       -0.26581

 Excited State   4:      Singlet-A      2.1955 eV  564.72 nm  f=0.1100  <S**2>=0.000
     309 -> 313        0.62784
     310 -> 314       -0.12451
     311 -> 315       -0.27460

 Excited State   5:      Singlet-A      2.5105 eV  493.86 nm  f=0.0000  <S**2>=0.000
     312 -> 313        0.70669

 The electronic state is 1-A.
 Alpha  occ. eigenvalues --  -46.87781 -46.87447 -19.26425 -19.26214 -19.19197
 Alpha  occ. eigenvalues --  -19.19015 -19.18720 -19.18592 -19.18184 -19.17872
 Alpha  occ. eigenvalues --  -14.42442 -14.42295 -14.41419 -14.41120 -14.39371
 Alpha  occ. eigenvalues --  -14.39149 -14.38579 -14.38386 -10.39235 -10.38941
 Alpha  occ. eigenvalues --  -10.35348 -10.35275 -10.34412 -10.34049 -10.31821
 Alpha  occ. eigenvalues --  -10.31638 -10.31412 -10.31101 -10.30903 -10.30849
 Alpha  occ. eigenvalues --  -10.30559 -10.30480 -10.30180 -10.30146 -10.30140
 Alpha  occ. eigenvalues --  -10.29895 -10.29877 -10.29643 -10.29597 -10.29232
 Alpha  occ. eigenvalues --  -10.29207 -10.29193 -10.28796 -10.28641 -10.28565
 Alpha  occ. eigenvalues --  -10.28538 -10.28352 -10.28218 -10.28139 -10.27979
 Alpha  occ. eigenvalues --  -10.27800 -10.27762 -10.27706 -10.27538 -10.27468
 Alpha  occ. eigenvalues --  -10.27422 -10.27403 -10.27383 -10.27370 -10.27320
 Alpha  occ. eigenvalues --  -10.27285 -10.27271 -10.27209 -10.27084 -10.27068
 Alpha  occ. eigenvalues --  -10.26880 -10.26824 -10.26556 -10.26340 -10.26245
 Alpha  occ. eigenvalues --  -10.26243 -10.26069 -10.25979 -10.25880 -10.25804
 Alpha  occ. eigenvalues --  -10.25654 -10.25556 -10.25410 -10.25373 -10.25179
 Alpha  occ. eigenvalues --  -10.24816 -10.24757 -10.24675 -10.24545 -10.24478
 Alpha  occ. eigenvalues --  -10.24228  -3.16522  -3.16197  -1.91404  -1.91080
 Alpha  occ. eigenvalues --   -1.90990  -1.90832  -1.90668  -1.90505  -1.16776
 Alpha  occ. eigenvalues --   -1.16505  -1.08655  -1.08481  -1.07118  -1.06850
 Alpha  occ. eigenvalues --   -1.06804  -1.06799  -1.04575  -1.04298  -1.03733
 Alpha  occ. eigenvalues --   -1.03449  -1.03208  -1.02810  -1.02388  -1.01893
 Alpha  occ. eigenvalues --   -0.91979  -0.91789  -0.89467  -0.89219  -0.89182
 Alpha  occ. eigenvalues --   -0.88972  -0.88232  -0.87883  -0.87845  -0.87662
 Alpha  occ. eigenvalues --   -0.87565  -0.87472  -0.87198  -0.86954  -0.84999
 Alpha  occ. eigenvalues --   -0.84822  -0.83881  -0.83537  -0.82873  -0.82749
 Alpha  occ. eigenvalues --   -0.82639  -0.82459  -0.81626  -0.81405  -0.80594
 Alpha  occ. eigenvalues --   -0.80253  -0.78742  -0.78441  -0.77194  -0.76952
 Alpha  occ. eigenvalues --   -0.76938  -0.76670  -0.75938  -0.75654  -0.74859
 Alpha  occ. eigenvalues --   -0.74550  -0.72746  -0.72469  -0.71659  -0.71375
 Alpha  occ. eigenvalues --   -0.69827  -0.69340  -0.68874  -0.68638  -0.67624
 Alpha  occ. eigenvalues --   -0.67402  -0.67230  -0.67047  -0.65312  -0.65091
 Alpha  occ. eigenvalues --   -0.64858  -0.64618  -0.64545  -0.64441  -0.64222
 Alpha  occ. eigenvalues --   -0.63863  -0.62350  -0.62071  -0.60378  -0.60139
 Alpha  occ. eigenvalues --   -0.59816  -0.59616  -0.58973  -0.58769  -0.58493
 Alpha  occ. eigenvalues --   -0.58202  -0.57637  -0.57373  -0.57276  -0.56987
 Alpha  occ. eigenvalues --   -0.56293  -0.56044  -0.55993  -0.55714  -0.55480
 Alpha  occ. eigenvalues --   -0.55328  -0.55290  -0.54985  -0.54537  -0.54208
 Alpha  occ. eigenvalues --   -0.53928  -0.53746  -0.53266  -0.53204  -0.53031
 Alpha  occ. eigenvalues --   -0.52948  -0.52943  -0.52707  -0.52691  -0.52530
 Alpha  occ. eigenvalues --   -0.52353  -0.51915  -0.51894  -0.51628  -0.51623
 Alpha  occ. eigenvalues --   -0.51502  -0.51190  -0.50957  -0.50459  -0.50318
 Alpha  occ. eigenvalues --   -0.49968  -0.49866  -0.49806  -0.49566  -0.49497
 Alpha  occ. eigenvalues --   -0.49326  -0.49204  -0.49106  -0.49030  -0.48913
 Alpha  occ. eigenvalues --   -0.48616  -0.48438  -0.48382  -0.48379  -0.48198
 Alpha  occ. eigenvalues --   -0.48124  -0.47669  -0.47392  -0.47260  -0.46927
 Alpha  occ. eigenvalues --   -0.46774  -0.46579  -0.46472  -0.46366  -0.46336
 Alpha  occ. eigenvalues --   -0.46150  -0.46034  -0.45851  -0.45845  -0.45614
 Alpha  occ. eigenvalues --   -0.45153  -0.44962  -0.44589  -0.44467  -0.44349
 Alpha  occ. eigenvalues --   -0.44254  -0.44118  -0.44074  -0.43990  -0.43957
 Alpha  occ. eigenvalues --   -0.43795  -0.43778  -0.43522  -0.43379  -0.43338
 Alpha  occ. eigenvalues --   -0.43186  -0.43013  -0.42788  -0.42757  -0.42686
 Alpha  occ. eigenvalues --   -0.42595  -0.42254  -0.41981  -0.41699  -0.41657
 Alpha  occ. eigenvalues --   -0.41542  -0.41458  -0.41225  -0.41129  -0.40866
 Alpha  occ. eigenvalues --   -0.40793  -0.40759  -0.40589  -0.40523  -0.40478
 Alpha  occ. eigenvalues --   -0.40283  -0.40118  -0.40083  -0.39353  -0.39011
 Alpha  occ. eigenvalues --   -0.38429  -0.38049  -0.37795  -0.37484  -0.37282
 Alpha  occ. eigenvalues --   -0.37279  -0.37026  -0.36953  -0.36807  -0.36587
 Alpha  occ. eigenvalues --   -0.36209  -0.35954  -0.34273  -0.34034  -0.33912
 Alpha  occ. eigenvalues --   -0.33703  -0.33174  -0.32959  -0.31257  -0.31151
 Alpha  occ. eigenvalues --   -0.31018  -0.30765  -0.30050  -0.29775  -0.29407
 Alpha  occ. eigenvalues --   -0.29299  -0.29141  -0.29007  -0.24067  -0.23821
 Alpha  occ. eigenvalues --   -0.21101  -0.20901
 Alpha virt. eigenvalues --   -0.08742  -0.08590  -0.01718  -0.01470  -0.00010
 Alpha virt. eigenvalues --    0.00132   0.02206   0.02398   0.02825   0.03491
 Alpha virt. eigenvalues --    0.04707   0.04920   0.04948   0.05319   0.06098

 Mulliken charges:
               1
     1  Mg   0.835555
     2  C   -0.004159
     3  C   -0.093811
     4  C   -0.045206
     5  C   -0.063366
     6  N   -0.256754
     7  C   -0.053921
     8  C   -0.013488
     9  C   -0.086972
    10  C    0.045986
    11  C    0.104747
    12  C    0.052594
    13  C   -0.071754
    14  H    0.034984
    15  N   -0.433531
    16  C    0.168849
    17  C   -0.176002
    18  C   -0.002948
    19  C    0.149229
    20  C    0.109789
    21  C    0.013590
    22  O   -0.249586
    23  C    0.061423
    24  N   -0.340938
    25  C    0.041455
    26  C   -0.028286
    27  C   -0.023928
    28  C    0.074626
    29  C    0.076156
    30  C    0.035011
    31  C   -0.004758
    32  N   -0.310428
    33  C    0.079645
    34  C   -0.170127
    35  C    0.007948
    36  C    0.081387
    37  C    0.127472
    38  C    0.045029
    39  O   -0.188904
    40  C   -0.005201
    41  C    0.213572
    42  O   -0.260430
    43  O   -0.304057
    44  C    0.157782
    45  H   -0.017404
    46  H   -0.016447
    47  H   -0.041209
    48  H    0.000955
    49  H   -0.003786
    50  H    0.025486
    51  H    0.016785
    52  H    0.016839
    53  H    0.011114
    54  H    0.042003
    55  H    0.018552
    56  H    0.018791
    57  H    0.005647
    58  H    0.026660
    59  H    0.042385
    60  H    0.036734
    61  H    0.035482
    62  H    0.034928
    63  H    0.017065
    64  H    0.009422
    65  H    0.023357
    66  H    0.012378
    67  H    0.004828
    68  H    0.006506
    69  H    0.004984
    70  H    0.008986
    71  H    0.019494
    72  H    0.028660
    73  H    0.047198
    74  H    0.009682
    75  H    0.045998
    76  H    0.035483
    77  H    0.043625
    78  H    0.046659
    79  H    0.052322
    80  Mg   0.837531
    81  C   -0.017368
    82  C   -0.088288
    83  C   -0.045690
    84  C   -0.064898
    85  N   -0.254603
    86  C   -0.049840
    87  C   -0.015056
    88  C   -0.090444
    89  C    0.045582
    90  C    0.114553
    91  C    0.062596
    92  C   -0.077636
    93  H    0.034425
    94  N   -0.423286
    95  C    0.162639
    96  C   -0.175153
    97  C   -0.008452
    98  C    0.152119
    99  C    0.099533
   100  C    0.015358
   101  O   -0.255097
   102  C    0.061550
   103  N   -0.350201
   104  C    0.037607
   105  C   -0.019379
   106  C   -0.037223
   107  C    0.088648
   108  C    0.074827
   109  C    0.036123
   110  C   -0.013951
   111  N   -0.324259
   112  C    0.078848
   113  C   -0.162322
   114  C    0.002003
   115  C    0.096514
   116  C    0.130801
   117  C    0.042451
   118  O   -0.188008
   119  C    0.000927
   120  C    0.211208
   121  O   -0.251151
   122  O   -0.305662
   123  C    0.152148
   124  H   -0.020433
   125  H   -0.016832
   126  H   -0.036757
   127  H   -0.000943
   128  H   -0.004757
   129  H    0.022252
   130  H    0.014327
   131  H    0.015714
   132  H    0.013918
   133  H    0.037613
   134  H    0.020616
   135  H    0.019383
   136  H    0.008445
   137  H    0.025238
   138  H    0.039249
   139  H    0.037997
   140  H    0.034476
   141  H    0.034361
   142  H    0.013249
   143  H    0.013861
   144  H    0.022568
   145  H    0.010301
   146  H    0.006001
   147  H    0.011776
   148  H    0.014223
   149  H    0.007211
   150  H    0.025895
   151  H    0.026952
   152  H    0.046082
   153  H    0.012005
   154  H    0.046503
   155  H    0.034654
   156  H    0.043677
   157  H    0.049299
   158  H    0.053410
 Sum of Mulliken charges =  -0.00000

 Dipole moment (field-independent basis, Debye):
    X=              0.6323    Y=              6.7404    Z=             -3.6552  Tot=              7.6938
 Quadrupole moment (field-independent basis, Debye-Ang):
   XX=           -443.4907   YY=           -540.9284   ZZ=           -483.3031
   XY=            -26.6458   XZ=             -9.6699   YZ=             -3.1208

 Normal termination of Gaussian 16 at Fri Sep 10 10:25:57 2021.
