 Gaussian 16, Revision A.03,
 Gaussian 16:  ES64L-G16RevA.03 25-Dec-2016

 -----------------------------------
 #p cam-b3lyp/Def2SVP td=(nstates=5)
 -----------------------------------

 --------------------------------
 TDDFT excited states in gaussian
 --------------------------------
 Symbolic Z-matrix:
 Charge =  0 Multiplicity = 1

                         Standard orientation:
 ---------------------------------------------------------------------
 Center     Atomic      Atomic             Coordinates (Angstroms)
 Number     Number       Type             X           Y           Z
 ---------------------------------------------------------------------
      1         12           0       -7.834313   -0.781003    0.134890
      2          6           0       -8.036809    2.786516    0.344683
      3          6           0       -8.733632   -0.490452   -3.143810
      4          6           0       -8.105000   -3.939280    0.041951
      5          6           0       -8.070042   -0.851288    3.611260
      6          7           0       -8.297466    0.979145   -1.125274
      7          6           0       -8.280349    2.295394   -0.939892
      8          6           0       -8.471024    3.107196   -2.255945
      9          6           0       -9.229812    2.005592   -3.123533
     10          6           0       -8.695840    0.754569   -2.448449
     11          6           0      -10.746155    2.041458   -2.962537
     12          6           0       -7.106139    3.510398   -2.908820
     13          6           0       -7.196192    4.573207   -4.007765
     14          1           0       -6.121817    5.546924   -4.130002
     15          7           0       -7.864903   -2.019529   -1.403931
     16          6           0       -8.243647   -1.727214   -2.671366
     17          6           0       -8.089134   -2.979745   -3.442063
     18          6           0       -7.771176   -4.070338   -2.478941
     19          6           0       -7.928831   -3.382908   -1.222771
     20          6           0       -8.194507   -3.045659   -4.934812
     21          6           0       -7.396551   -5.507171   -2.661423
     22          8           0       -7.389673   -6.337082   -1.688914
     23          6           0       -7.119880   -5.943696   -4.041981
     24          7           0       -8.276261   -2.211774    1.589267
     25          6           0       -8.272449   -3.516947    1.296878
     26          6           0       -8.334550   -4.355018    2.539344
     27          6           0       -8.135971   -3.347772    3.762363
     28          6           0       -8.072382   -2.020490    2.967034
     29          6           0       -9.628215   -5.155736    2.742544
     30          6           0       -6.992171   -3.666838    4.757520
     31          6           0       -5.654419   -3.502944    4.071476
     32          7           0       -7.843108    0.686180    1.734371
     33          6           0       -7.973577    0.435274    3.107943
     34          6           0       -8.033408    1.745003    3.782552
     35          6           0       -7.949717    2.672901    2.746288
     36          6           0       -7.870717    1.986361    1.501011
     37          6           0       -8.208608    1.956071    5.178686
     38          6           0       -7.933463    4.084741    2.399445
     39          8           0       -7.879846    5.134806    3.041304
     40          6           0       -8.111952    4.215374    0.822453
     41          6           0       -7.068939    5.178819    0.325254
     42          8           0       -5.855978    4.889339    0.373121
     43          8           0       -7.668065    6.178099   -0.340351
     44          6           0       -6.687047    7.154048   -0.885585
     45          1           0       -9.235463   -0.539149   -4.112177
     46          1           0       -8.092289   -5.030945    0.065254
     47          1           0       -8.058365   -0.794743    4.701269
     48          1           0       -9.094135    3.996046   -2.155435
     49          1           0       -8.925482    2.030914   -4.169699
     50          1           0      -11.047158    2.735149   -2.177609
     51          1           0      -11.035364    1.023118   -2.702087
     52          1           0      -11.231800    2.256628   -3.914707
     53          1           0       -6.725226    2.672148   -3.492176
     54          1           0       -6.396354    3.837511   -2.148209
     55          1           0       -8.165404    5.072695   -4.000716
     56          1           0       -7.157943    4.069710   -4.973801
     57          1           0       -8.598744   -2.122802   -5.348905
     58          1           0       -8.945754   -3.799961   -5.167976
     59          1           0       -7.246723   -3.314158   -5.401659
     60          1           0       -8.000906   -5.765925   -4.659022
     61          1           0       -6.782030   -6.976816   -3.968688
     62          1           0       -6.325140   -5.322554   -4.456131
     63          1           0       -7.535162   -5.094771    2.552422
     64          1           0       -9.025217   -3.286346    4.390170
     65          1           0       -9.466702   -6.228512    2.851042
     66          1           0      -10.291429   -4.942890    1.904609
     67          1           0      -10.236664   -4.834481    3.587530
     68          1           0       -7.057136   -4.702117    5.090570
     69          1           0       -7.003109   -3.032075    5.643640
     70          1           0       -5.520872   -4.459155    3.566839
     71          1           0       -4.867239   -3.336706    4.807631
     72          1           0       -5.693331   -2.731261    3.302400
     73          1           0       -7.508401    2.743104    5.458430
     74          1           0       -8.024052    1.042543    5.743495
     75          1           0       -9.254738    2.260467    5.207177
     76          1           0       -9.123342    4.582454    0.650800
     77          1           0       -6.964861    8.136221   -0.502976
     78          1           0       -6.680453    7.015576   -1.966874
     79          1           0       -5.665426    7.069647   -0.513421
     80         12           0        8.047284   -0.771072    0.011285
     81          6           0        7.678421    2.791758    0.233188
     82          6           0        6.998283   -0.528209   -3.225255
     83          6           0        7.928839   -3.940348   -0.083871
     84          6           0        7.953666   -0.858295    3.494007
     85          7           0        7.445894    0.963000   -1.223043
     86          6           0        7.404463    2.275584   -1.050536
     87          6           0        7.127923    3.086049   -2.345230
     88          6           0        6.380687    1.942634   -3.189691
     89          6           0        7.001397    0.710219   -2.535053
     90          6           0        4.879951    1.903973   -2.953855
     91          6           0        8.448873    3.551832   -3.052441
     92          6           0        8.255972    4.604582   -4.146182
     93          1           0        9.282110    5.629927   -4.314077
     94          7           0        8.015530   -2.009057   -1.539507
     95          6           0        7.577849   -1.739240   -2.787268
     96          6           0        7.746100   -2.985340   -3.550874
     97          6           0        8.164776   -4.059361   -2.609654
     98          6           0        8.029514   -3.367683   -1.343417
     99          6           0        7.590613   -3.052968   -5.042411
    100          6           0        8.600863   -5.478575   -2.814296
    101          8           0        8.689536   -6.303299   -1.837163
    102          6           0        8.830930   -5.899818   -4.203940
    103          7           0        7.742567   -2.215232    1.475488
    104          6           0        7.791813   -3.525004    1.175506
    105          6           0        7.819418   -4.370456    2.426448
    106          6           0        8.023383   -3.343068    3.634938
    107          6           0        7.987451   -2.015190    2.847008
    108          6           0        6.573807   -5.218060    2.684126
    109          6           0        9.222339   -3.605434    4.586963
    110          6           0       10.524044   -3.389387    3.849213
    111          7           0        8.038656    0.688765    1.604036
    112          6           0        7.970650    0.436660    2.991808
    113          6           0        7.875692    1.746610    3.668135
    114          6           0        7.871799    2.676306    2.617349
    115          6           0        7.937885    1.992977    1.373090
    116          6           0        7.758718    1.951542    5.071861
    117          6           0        7.816107    4.079886    2.277399
    118          8           0        7.838398    5.130295    2.917611
    119          6           0        7.560871    4.211455    0.714090
    120          6           0        8.534712    5.219201    0.167649
    121          8           0        9.756560    4.987760    0.178565
    122          8           0        7.854108    6.188011   -0.471525
    123          6           0        8.777455    7.205599   -1.040533
    124          1           0        6.465348   -0.591864   -4.174363
    125          1           0        7.995209   -5.030415   -0.054860
    126          1           0        8.019384   -0.795971    4.582346
    127          1           0        6.473860    3.939962   -2.215613
    128          1           0        6.647808    1.990632   -4.242168
    129          1           0        4.578620    2.577013   -2.164968
    130          1           0        4.650446    0.880799   -2.686493
    131          1           0        4.346335    2.098134   -3.888685
    132          1           0        8.843030    2.724033   -3.655862
    133          1           0        9.162166    3.904586   -2.333132
    134          1           0        7.259356    5.060917   -4.107887
    135          1           0        8.284886    4.105064   -5.117603
    136          1           0        7.118116   -2.145899   -5.439123
    137          1           0        6.868748   -3.849511   -5.252870
    138          1           0        8.528161   -3.281528   -5.553707
    139          1           0        7.919053   -5.759527   -4.779498
    140          1           0        9.222075   -6.917067   -4.139995
    141          1           0        9.587457   -5.243152   -4.647881
    142          1           0        8.653379   -5.061300    2.407969
    143          1           0        7.155464   -3.331177    4.310514
    144          1           0        6.793515   -6.297842    2.783463
    145          1           0        5.871088   -5.045423    1.879813
    146          1           0        5.995191   -4.933848    3.561413
    147          1           0        9.222291   -4.646894    4.917895
    148          1           0        9.211220   -2.984793    5.476723
    149          1           0       10.676977   -4.342555    3.334262
    150          1           0       11.331694   -3.184893    4.549166
    151          1           0       10.417578   -2.613632    3.082059
    152          1           0        8.424302    2.766337    5.324081
    153          1           0        8.005461    1.049129    5.627322
    154          1           0        6.696761    2.200937    5.144737
    155          1           0        6.525680    4.526168    0.576511
    156          1           0        8.465126    8.177074   -0.645094
    157          1           0        8.732018    7.070063   -2.137496
    158          1           0        9.814208    7.172886   -0.726630
 ---------------------------------------------------------------------

 SCF Done:  E(RCAM-B3LYP) =  -4069.81167921     A.U. after   19 cycles

 Excitation energies and oscillator strengths:

 Excited State   1:      Singlet-A      1.6698 eV  742.52 nm  f=0.0152  <S**2>=0.000
     309 -> 315       -0.10438
     310 -> 316        0.13723
     311 -> 313       -0.41400
     312 -> 314        0.54745
 This state for optimization and/or second-order correction.
 Total Energy, E(TD-HF/TD-DFT) =  -4069.75031605
 Copying the excited state density for this state as the 1-particle RhoCI density.

 Excited State   2:      Singlet-A      1.6853 eV  735.69 nm  f=0.7414  <S**2>=0.000
     309 -> 315        0.14116
     310 -> 316        0.10614
     311 -> 313        0.54661
     312 -> 314        0.41346

 Excited State   3:      Singlet-A      2.1853 eV  567.34 nm  f=0.0572  <S**2>=0.000
     309 -> 313       -0.14105
     310 -> 314        0.62710
     312 -> 316       -0.26595

 Excited State   4:      Singlet-A      2.1929 eV  565.40 nm  f=0.1361  <S**2>=0.000
     309 -> 313        0.62509
     310 -> 314        0.13996
     311 -> 315       -0.27180

 Excited State   5:      Singlet-A      2.7632 eV  448.70 nm  f=0.0000  <S**2>=0.000
     312 -> 313        0.70710

 The electronic state is 1-A.
 Alpha  occ. eigenvalues --  -46.87839 -46.87587 -19.26319 -19.26270 -19.19083
 Alpha  occ. eigenvalues --  -19.19055 -19.18860 -19.18657 -19.18201 -19.17965
 Alpha  occ. eigenvalues --  -14.42494 -14.42424 -14.41490 -14.41286 -14.39446
 Alpha  occ. eigenvalues --  -14.39280 -14.38627 -14.38524 -10.39115 -10.39011
 Alpha  occ. eigenvalues --  -10.35494 -10.35336 -10.34421 -10.34142 -10.31712
 Alpha  occ. eigenvalues --  -10.31683 -10.31447 -10.31232 -10.30956 -10.30952
 Alpha  occ. eigenvalues --  -10.30610 -10.30547 -10.30323 -10.30285 -10.30249
 Alpha  occ. eigenvalues --  -10.30073 -10.29958 -10.29819 -10.29671 -10.29367
 Alpha  occ. eigenvalues --  -10.29329 -10.29297 -10.28801 -10.28645 -10.28609
 Alpha  occ. eigenvalues --  -10.28601 -10.28407 -10.28331 -10.28166 -10.28064
 Alpha  occ. eigenvalues --  -10.27926 -10.27832 -10.27771 -10.27627 -10.27598
 Alpha  occ. eigenvalues --  -10.27537 -10.27535 -10.27483 -10.27451 -10.27445
 Alpha  occ. eigenvalues --  -10.27420 -10.27409 -10.27397 -10.27308 -10.27194
 Alpha  occ. eigenvalues --  -10.26962 -10.26770 -10.26631 -10.26464 -10.26373
 Alpha  occ. eigenvalues --  -10.26278 -10.26216 -10.26079 -10.26059 -10.25932
 Alpha  occ. eigenvalues --  -10.25867 -10.25862 -10.25761 -10.25465 -10.25328
 Alpha  occ. eigenvalues --  -10.24871 -10.24828 -10.24795 -10.24722 -10.24676
 Alpha  occ. eigenvalues --  -10.24617  -3.16582  -3.16337  -1.91464  -1.91219
 Alpha  occ. eigenvalues --   -1.91050  -1.90892  -1.90808  -1.90644  -1.16667
 Alpha  occ. eigenvalues --   -1.16564  -1.08658  -1.08571  -1.07261  -1.06910
 Alpha  occ. eigenvalues --   -1.06867  -1.06677  -1.04625  -1.04421  -1.03802
 Alpha  occ. eigenvalues --   -1.03590  -1.03275  -1.02966  -1.02452  -1.02037
 Alpha  occ. eigenvalues --   -0.92012  -0.91909  -0.89557  -0.89425  -0.89238
 Alpha  occ. eigenvalues --   -0.89077  -0.88324  -0.88152  -0.87905  -0.87718
 Alpha  occ. eigenvalues --   -0.87714  -0.87613  -0.87321  -0.87060  -0.85031
 Alpha  occ. eigenvalues --   -0.84929  -0.83972  -0.83808  -0.83013  -0.82875
 Alpha  occ. eigenvalues --   -0.82695  -0.82584  -0.81624  -0.81521  -0.80638
 Alpha  occ. eigenvalues --   -0.80371  -0.78841  -0.78568  -0.77261  -0.77075
 Alpha  occ. eigenvalues --   -0.76978  -0.76827  -0.75965  -0.75763  -0.74934
 Alpha  occ. eigenvalues --   -0.74732  -0.72814  -0.72625  -0.71712  -0.71506
 Alpha  occ. eigenvalues --   -0.69943  -0.69693  -0.68920  -0.68757  -0.67682
 Alpha  occ. eigenvalues --   -0.67531  -0.67273  -0.67138  -0.65333  -0.65199
 Alpha  occ. eigenvalues --   -0.64893  -0.64697  -0.64662  -0.64582  -0.64307
 Alpha  occ. eigenvalues --   -0.64135  -0.62334  -0.62203  -0.60486  -0.60275
 Alpha  occ. eigenvalues --   -0.59851  -0.59722  -0.59027  -0.58919  -0.58543
 Alpha  occ. eigenvalues --   -0.58352  -0.57621  -0.57473  -0.57347  -0.57166
 Alpha  occ. eigenvalues --   -0.56350  -0.56133  -0.56018  -0.55814  -0.55563
 Alpha  occ. eigenvalues --   -0.55385  -0.55374  -0.55176  -0.54559  -0.54416
 Alpha  occ. eigenvalues --   -0.53945  -0.53840  -0.53341  -0.53268  -0.53159
 Alpha  occ. eigenvalues --   -0.53072  -0.52955  -0.52831  -0.52805  -0.52609
 Alpha  occ. eigenvalues --   -0.52473  -0.52338  -0.51945  -0.51800  -0.51666
 Alpha  occ. eigenvalues --   -0.51592  -0.51234  -0.51126  -0.50624  -0.50422
 Alpha  occ. eigenvalues --   -0.50070  -0.49964  -0.49912  -0.49801  -0.49561
 Alpha  occ. eigenvalues --   -0.49422  -0.49255  -0.49140  -0.49129  -0.49027
 Alpha  occ. eigenvalues --   -0.48631  -0.48501  -0.48485  -0.48483  -0.48305
 Alpha  occ. eigenvalues --   -0.48275  -0.47739  -0.47527  -0.47339  -0.47053
 Alpha  occ. eigenvalues --   -0.46838  -0.46639  -0.46605  -0.46485  -0.46399
 Alpha  occ. eigenvalues --   -0.46201  -0.46199  -0.46011  -0.45857  -0.45743
 Alpha  occ. eigenvalues --   -0.45238  -0.45139  -0.44615  -0.44554  -0.44440
 Alpha  occ. eigenvalues --   -0.44407  -0.44185  -0.44135  -0.44060  -0.44053
 Alpha  occ. eigenvalues --   -0.44012  -0.43872  -0.43531  -0.43479  -0.43430
 Alpha  occ. eigenvalues --   -0.43313  -0.43066  -0.42856  -0.42824  -0.42735
 Alpha  occ. eigenvalues --   -0.42690  -0.42488  -0.42049  -0.41897  -0.41743
 Alpha  occ. eigenvalues --   -0.41592  -0.41583  -0.41391  -0.41183  -0.40916
 Alpha  occ. eigenvalues --   -0.40915  -0.40872  -0.40662  -0.40633  -0.40609
 Alpha  occ. eigenvalues --   -0.40424  -0.40293  -0.40165  -0.39477  -0.39362
 Alpha  occ. eigenvalues --   -0.38509  -0.38282  -0.37803  -0.37589  -0.37360
 Alpha  occ. eigenvalues --   -0.37312  -0.37196  -0.37129  -0.36749  -0.36696
 Alpha  occ. eigenvalues --   -0.36231  -0.36145  -0.34327  -0.34180  -0.33807
 Alpha  occ. eigenvalues --   -0.33785  -0.33227  -0.33102  -0.31389  -0.31215
 Alpha  occ. eigenvalues --   -0.31077  -0.30900  -0.30060  -0.29869  -0.29492
 Alpha  occ. eigenvalues --   -0.29360  -0.29258  -0.29134  -0.24122  -0.23961
 Alpha  occ. eigenvalues --   -0.21169  -0.21044
 Alpha virt. eigenvalues --   -0.08816  -0.08719  -0.01792  -0.01612  -0.00102
 Alpha virt. eigenvalues --    0.00038   0.02164   0.02287   0.03071   0.03293
 Alpha virt. eigenvalues --    0.04671   0.04801   0.05062   0.05244   0.06120

 Mulliken charges:
               1
     1  Mg   0.838599
     2  C   -0.003029
     3  C   -0.094321
     4  C   -0.045838
     5  C   -0.063899
     6  N   -0.256761
     7  C   -0.052502
     8  C   -0.013981
     9  C   -0.086968
    10  C    0.046235
    11  C    0.104807
    12  C    0.053549
    13  C   -0.071658
    14  H    0.035799
    15  N   -0.433130
    16  C    0.168325
    17  C   -0.177317
    18  C   -0.004054
    19  C    0.148646
    20  C    0.110214
    21  C    0.012218
    22  O   -0.249523
    23  C    0.062539
    24  N   -0.341158
    25  C    0.041222
    26  C   -0.028187
    27  C   -0.024016
    28  C    0.074885
    29  C    0.076134
    30  C    0.035096
    31  C   -0.004508
    32  N   -0.310512
    33  C    0.080458
    34  C   -0.169543
    35  C    0.008466
    36  C    0.082985
    37  C    0.127268
    38  C    0.046252
    39  O   -0.188080
    40  C   -0.005364
    41  C    0.212948
    42  O   -0.257149
    43  O   -0.304785
    44  C    0.157627
    45  H   -0.017673
    46  H   -0.016783
    47  H   -0.041326
    48  H    0.001054
    49  H   -0.004239
    50  H    0.025567
    51  H    0.016517
    52  H    0.016636
    53  H    0.010869
    54  H    0.044085
    55  H    0.018086
    56  H    0.017713
    57  H    0.005767
    58  H    0.026880
    59  H    0.039146
    60  H    0.037369
    61  H    0.035698
    62  H    0.031155
    63  H    0.016573
    64  H    0.009571
    65  H    0.023276
    66  H    0.012552
    67  H    0.004835
    68  H    0.006448
    69  H    0.004845
    70  H    0.008777
    71  H    0.018175
    72  H    0.028893
    73  H    0.047849
    74  H    0.009198
    75  H    0.046115
    76  H    0.035228
    77  H    0.043196
    78  H    0.046173
    79  H    0.053787
    80  Mg   0.837926
    81  C   -0.016752
    82  C   -0.087821
    83  C   -0.045531
    84  C   -0.064768
    85  N   -0.254558
    86  C   -0.049606
    87  C   -0.015126
    88  C   -0.090582
    89  C    0.045836
    90  C    0.114382
    91  C    0.062576
    92  C   -0.077765
    93  H    0.034670
    94  N   -0.423460
    95  C    0.162893
    96  C   -0.174787
    97  C   -0.007918
    98  C    0.152078
    99  C    0.099470
   100  C    0.015476
   101  O   -0.253282
   102  C    0.061244
   103  N   -0.350027
   104  C    0.037535
   105  C   -0.019843
   106  C   -0.034826
   107  C    0.088987
   108  C    0.073648
   109  C    0.034738
   110  C   -0.007646
   111  N   -0.324172
   112  C    0.078586
   113  C   -0.162948
   114  C    0.002481
   115  C    0.096175
   116  C    0.131427
   117  C    0.042658
   118  O   -0.187520
   119  C    0.000805
   120  C    0.211211
   121  O   -0.251218
   122  O   -0.305432
   123  C    0.152087
   124  H   -0.019957
   125  H   -0.015685
   126  H   -0.040405
   127  H   -0.000339
   128  H   -0.004701
   129  H    0.023283
   130  H    0.014542
   131  H    0.015904
   132  H    0.013756
   133  H    0.037654
   134  H    0.020881
   135  H    0.019330
   136  H    0.008526
   137  H    0.025845
   138  H    0.039537
   139  H    0.038090
   140  H    0.036221
   141  H    0.033787
   142  H    0.014244
   143  H    0.012551
   144  H    0.024967
   145  H    0.011812
   146  H    0.005739
   147  H    0.006153
   148  H    0.003663
   149  H    0.010845
   150  H    0.017824
   151  H    0.030136
   152  H    0.045963
   153  H    0.008371
   154  H    0.047626
   155  H    0.035764
   156  H    0.044024
   157  H    0.049312
   158  H    0.053433
 Sum of Mulliken charges =  -0.00000

 Dipole moment (field-independent basis, Debye):
    X=             -4.2012    Y=             -2.4719    Z=             -7.5127  Tot=              8.9555
 Quadrupole moment (field-independent basis, Debye-Ang):
   XX=           -518.5779   YY=           -552.2868   ZZ=           -447.2553
   XY=             -5.7368   XZ=              4.3310   YZ=            -48.1867

 Normal termination of Gaussian 16 at Sun Sep 12 06:07:34 2021.
