 Gaussian 16, Revision A.03,
 Gaussian 16:  ES64L-G16RevA.03 25-Dec-2016

 -----------------------------------
 #p cam-b3lyp/Def2SVP td=(nstates=5)
 -----------------------------------

 --------------------------------
 TDDFT excited states in gaussian
 --------------------------------
 Symbolic Z-matrix:
 Charge =  0 Multiplicity = 1

                         Standard orientation:
 ---------------------------------------------------------------------
 Center     Atomic      Atomic             Coordinates (Angstroms)
 Number     Number       Type             X           Y           Z
 ---------------------------------------------------------------------
      1         12           0        4.043242   -1.600285    0.418501
      2          6           0        5.015907    1.775158   -0.268902
      3          6           0        4.730494   -0.972535    3.701286
      4          6           0        3.627542   -4.692799    0.984340
      5          6           0        4.523622   -2.272289   -2.967249
      6          7           0        4.772736    0.211494    1.460586
      7          6           0        5.050409    1.457815    1.090785
      8          6           0        5.308350    2.415771    2.292101
      9          6           0        5.746674    1.338957    3.383129
     10          6           0        5.011847    0.127285    2.837418
     11          6           0        7.243667    1.046528    3.383434
     12          6           0        4.014753    3.181466    2.730335
     13          6           0        4.244703    4.367308    3.671746
     14          1           0        3.396088    5.541834    3.538747
     15          7           0        3.691786   -2.557200    2.110731
     16          6           0        4.026061   -2.146679    3.357735
     17          6           0        3.550029   -3.203473    4.276028
     18          6           0        3.081784   -4.349122    3.447579
     19          6           0        3.477696   -3.917142    2.131515
     20          6           0        3.524542   -3.048876    5.765726
     21          6           0        2.397074   -5.634655    3.789205
     22          8           0        2.288055   -6.591578    2.948380
     23          6           0        1.929129   -5.780459    5.179461
     24          7           0        4.280352   -3.304576   -0.763364
     25          6           0        3.976471   -4.518879   -0.292079
     26          6           0        3.953540   -5.540666   -1.389970
     27          6           0        4.067992   -4.723369   -2.756967
     28          6           0        4.227783   -3.299954   -2.168218
     29          6           0        5.058776   -6.604478   -1.337341
     30          6           0        2.961979   -4.964094   -3.814892
     31          6           0        1.641338   -4.429853   -3.307357
     32          7           0        4.486370   -0.439839   -1.361399
     33          6           0        4.665041   -0.928517   -2.663683
     34          6           0        5.053675    0.217794   -3.505706
     35          6           0        5.090457    1.297673   -2.625732
     36          6           0        4.772183    0.849178   -1.312017
     37          6           0        5.375978    0.163277   -4.890474
     38          6           0        5.348636    2.721554   -2.485146
     39          8           0        5.568986    3.644597   -3.270596
     40          6           0        5.429768    3.065158   -0.932349
     41          6           0        4.580856    4.283622   -0.691511
     42          8           0        3.341364    4.237082   -0.828842
     43          8           0        5.326288    5.237427   -0.112607
     44          6           0        4.536754    6.463362    0.180437
     45          1           0        5.134939   -0.964120    4.715335
     46          1           0        3.384569   -5.749500    1.113897
     47          1           0        4.607599   -2.390009   -4.049166
     48          1           0        6.112197    3.135244    2.135221
     49          1           0        5.375655    1.591596    4.376226
     50          1           0        7.744525    1.531610    2.545725
     51          1           0        7.328526   -0.037282    3.301892
     52          1           0        7.689749    1.310686    4.342604
     53          1           0        3.420691    2.540184    3.381419
     54          1           0        3.451127    3.516863    1.859037
     55          1           0        5.295660    4.656529    3.699105
     56          1           0        4.026431    4.042935    4.689262
     57          1           0        4.083092   -2.170550    6.086833
     58          1           0        4.077940   -3.890087    6.182649
     59          1           0        2.508480   -3.045322    6.160616
     60          1           0        2.778003   -5.684739    5.856809
     61          1           0        1.385726   -6.723961    5.216449
     62          1           0        1.255542   -4.955600    5.413634
     63          1           0        3.018402   -6.099162   -1.384928
     64          1           0        4.995258   -4.941302   -3.287396
     65          1           0        4.681391   -7.627003   -1.310362
     66          1           0        5.686063   -6.396159   -0.471082
     67          1           0        5.784428   -6.550206   -2.148451
     68          1           0        2.830348   -6.031359   -3.989716
     69          1           0        3.175480   -4.494569   -4.775213
     70          1           0        1.269140   -5.246957   -2.690394
     71          1           0        0.966209   -4.230702   -4.140274
     72          1           0        1.784717   -3.568202   -2.655064
     73          1           0        4.882824    1.018527   -5.352336
     74          1           0        5.044922   -0.773838   -5.337487
     75          1           0        6.461972    0.245150   -4.848411
     76          1           0        6.479967    3.246622   -0.705910
     77          1           0        5.045679    7.296461   -0.304512
     78          1           0        4.418206    6.504102    1.263346
     79          1           0        3.552086    6.525105   -0.284273
     80         12           0       -4.730522    0.209221   -0.486961
     81          6           0       -2.576349    3.076522   -0.618101
     82          6           0       -5.416818    1.058868    2.744405
     83          6           0       -6.276313   -2.546287   -0.195160
     84          6           0       -3.026033   -1.025208   -3.264835
     85          7           0       -4.026567    1.875143    0.786390
     86          6           0       -3.257078    2.938594    0.609509
     87          6           0       -3.277738    3.950401    1.786537
     88          6           0       -3.719878    2.946206    2.959128
     89          6           0       -4.466586    1.908439    2.123589
     90          6           0       -2.546370    2.258853    3.637178
     91          6           0       -4.335861    5.089862    1.576725
     92          6           0       -4.198505    6.278597    2.530568
     93          1           0       -4.504532    7.614498    2.026416
     94          7           0       -6.075269   -0.373495    0.851202
     95          6           0       -6.227822    0.093603    2.108107
     96          6           0       -7.340521   -0.672936    2.689901
     97          6           0       -7.724454   -1.743939    1.730606
     98          6           0       -6.670175   -1.606184    0.745924
     99          6           0       -7.982381   -0.310354    3.997565
    100          6           0       -8.846547   -2.737263    1.710207
    101          8           0       -8.851190   -3.731351    0.901133
    102          6           0       -9.893301   -2.564872    2.728084
    103          7           0       -4.527046   -1.629038   -1.436561
    104          6           0       -5.362281   -2.645956   -1.160528
    105          6           0       -5.201243   -3.769757   -2.156273
    106          6           0       -4.250841   -3.192464   -3.305646
    107          6           0       -3.941168   -1.803981   -2.704302
    108          6           0       -4.605200   -5.065436   -1.606428
    109          6           0       -4.784646   -3.264630   -4.762532
    110          6           0       -5.968566   -2.338691   -4.924859
    111          7           0       -3.225532    0.954701   -1.846114
    112          6           0       -2.632975    0.263040   -2.925274
    113          6           0       -1.583149    1.141154   -3.481323
    114          6           0       -1.622511    2.282403   -2.666157
    115          6           0       -2.612270    2.118156   -1.659725
    116          6           0       -0.719097    0.820713   -4.566152
    117          6           0       -1.044569    3.584290   -2.421662
    118          8           0       -0.226283    4.294769   -3.004204
    119          6           0       -1.549716    4.103851   -1.006991
    120          6           0       -2.009628    5.526461   -1.171822
    121          8           0       -2.998627    5.793302   -1.877019
    122          8           0       -1.344226    6.308240   -0.302100
    123          6           0       -1.773805    7.727194   -0.419787
    124          1           0       -5.523531    1.104642    3.828560
    125          1           0       -6.855206   -3.472692   -0.207051
    126          1           0       -2.516871   -1.296934   -4.191975
    127          1           0       -2.317847    4.395155    2.020145
    128          1           0       -4.395870    3.429924    3.659430
    129          1           0       -1.612377    2.470454    3.138153
    130          1           0       -2.764033    1.199496    3.599295
    131          1           0       -2.516750    2.522689    4.698235
    132          1           0       -5.324477    4.720382    1.878127
    133          1           0       -4.325138    5.437635    0.562045
    134          1           0       -3.235237    6.277089    3.055024
    135          1           0       -4.937934    6.170989    3.327862
    136          1           0       -7.380462    0.419989    4.552270
    137          1           0       -7.963303   -1.209265    4.623236
    138          1           0       -9.017543    0.017878    3.881975
    139          1           0       -9.445270   -2.609107    3.717926
    140          1           0      -10.652423   -3.314515    2.496483
    141          1           0      -10.323073   -1.562581    2.621682
    142          1           0       -6.155295   -4.040072   -2.591975
    143          1           0       -3.294823   -3.734227   -3.354159
    144          1           0       -5.255252   -5.946584   -1.764788
    145          1           0       -4.401774   -4.927404   -0.552814
    146          1           0       -3.623653   -5.325344   -1.999123
    147          1           0       -5.145766   -4.271937   -4.984092
    148          1           0       -4.036840   -3.019118   -5.509192
    149          1           0       -6.803752   -2.937993   -4.550167
    150          1           0       -6.109192   -2.076553   -5.971541
    151          1           0       -5.874276   -1.461511   -4.274232
    152          1           0       -0.668430    1.700264   -5.194113
    153          1           0       -1.079749   -0.043717   -5.119738
    154          1           0        0.204343    0.603956   -4.022527
    155          1           0       -0.714422    4.021732   -0.310488
    156          1           0       -0.872526    8.319488   -0.605773
    157          1           0       -2.338315    7.946194    0.506015
    158          1           0       -2.384088    7.996914   -1.273749
 ---------------------------------------------------------------------

 SCF Done:  E(RCAM-B3LYP) =  -4069.80953083     A.U. after   19 cycles

 Excitation energies and oscillator strengths:

 Excited State   1:      Singlet-A      1.6450 eV  753.68 nm  f=0.0759  <S**2>=0.000
     309 -> 315       -0.11563
     310 -> 316       -0.11929
     311 -> 313       -0.47736
     312 -> 314        0.49502
 This state for optimization and/or second-order correction.
 Total Energy, E(TD-HF/TD-DFT) =  -4069.74907662
 Copying the excited state density for this state as the 1-particle RhoCI density.

 Excited State   2:      Singlet-A      1.7084 eV  725.75 nm  f=0.6373  <S**2>=0.000
     309 -> 315        0.13156
     310 -> 316       -0.12576
     311 -> 313        0.49223
     312 -> 314        0.47486

 Excited State   3:      Singlet-A      2.1811 eV  568.44 nm  f=0.0047  <S**2>=0.000
     309 -> 313        0.38160
     310 -> 314        0.51966
     311 -> 315       -0.15860
     312 -> 316        0.21767

 Excited State   4:      Singlet-A      2.1978 eV  564.13 nm  f=0.1658  <S**2>=0.000
     309 -> 313        0.51455
     310 -> 314       -0.37645
     311 -> 315       -0.22896
     312 -> 316       -0.16780

 Excited State   5:      Singlet-A      2.3443 eV  528.87 nm  f=0.0000  <S**2>=0.000
     312 -> 313        0.70682

 The electronic state is 1-A.
 Alpha  occ. eigenvalues --  -46.87756 -46.87345 -19.25963 -19.25936 -19.18783
 Alpha  occ. eigenvalues --  -19.18730 -19.18636 -19.18433 -19.17957 -19.17378
 Alpha  occ. eigenvalues --  -14.42417 -14.42207 -14.41417 -14.41043 -14.39361
 Alpha  occ. eigenvalues --  -14.39032 -14.38530 -14.38251 -10.38723 -10.38647
 Alpha  occ. eigenvalues --  -10.35420 -10.35118 -10.34179 -10.33555 -10.31469
 Alpha  occ. eigenvalues --  -10.31377 -10.31350 -10.30974 -10.30866 -10.30728
 Alpha  occ. eigenvalues --  -10.30508 -10.30453 -10.30204 -10.30047 -10.29994
 Alpha  occ. eigenvalues --  -10.29884 -10.29880 -10.29574 -10.29555 -10.29227
 Alpha  occ. eigenvalues --  -10.29148 -10.29047 -10.28726 -10.28581 -10.28498
 Alpha  occ. eigenvalues --  -10.28472 -10.28294 -10.28095 -10.28043 -10.27915
 Alpha  occ. eigenvalues --  -10.27716 -10.27695 -10.27615 -10.27537 -10.27534
 Alpha  occ. eigenvalues --  -10.27481 -10.27464 -10.27380 -10.27336 -10.27284
 Alpha  occ. eigenvalues --  -10.27227 -10.27141 -10.27127 -10.27112 -10.26963
 Alpha  occ. eigenvalues --  -10.26727 -10.26476 -10.26452 -10.26402 -10.26289
 Alpha  occ. eigenvalues --  -10.26207 -10.26198 -10.26001 -10.25951 -10.25871
 Alpha  occ. eigenvalues --  -10.25732 -10.25640 -10.25441 -10.25412 -10.25133
 Alpha  occ. eigenvalues --  -10.24867 -10.24746 -10.24740 -10.24540 -10.24468
 Alpha  occ. eigenvalues --  -10.24359  -3.16500  -3.16096  -1.91381  -1.90979
 Alpha  occ. eigenvalues --   -1.90968  -1.90810  -1.90568  -1.90403  -1.16302
 Alpha  occ. eigenvalues --   -1.16224  -1.08391  -1.07954  -1.07186  -1.06691
 Alpha  occ. eigenvalues --   -1.06501  -1.06264  -1.04538  -1.04186  -1.03727
 Alpha  occ. eigenvalues --   -1.03345  -1.03186  -1.02713  -1.02365  -1.01776
 Alpha  occ. eigenvalues --   -0.91873  -0.91582  -0.89521  -0.89197  -0.89166
 Alpha  occ. eigenvalues --   -0.88910  -0.88287  -0.87940  -0.87790  -0.87645
 Alpha  occ. eigenvalues --   -0.87417  -0.87376  -0.87241  -0.86826  -0.84957
 Alpha  occ. eigenvalues --   -0.84737  -0.83945  -0.83598  -0.82954  -0.82668
 Alpha  occ. eigenvalues --   -0.82600  -0.82377  -0.81439  -0.81240  -0.80506
 Alpha  occ. eigenvalues --   -0.80116  -0.78751  -0.78312  -0.77200  -0.76884
 Alpha  occ. eigenvalues --   -0.76873  -0.76613  -0.75833  -0.75528  -0.74869
 Alpha  occ. eigenvalues --   -0.74505  -0.72727  -0.72367  -0.71621  -0.71274
 Alpha  occ. eigenvalues --   -0.69957  -0.69516  -0.68839  -0.68551  -0.67575
 Alpha  occ. eigenvalues --   -0.67258  -0.67207  -0.66942  -0.65245  -0.64980
 Alpha  occ. eigenvalues --   -0.64789  -0.64549  -0.64459  -0.64342  -0.64255
 Alpha  occ. eigenvalues --   -0.63911  -0.62112  -0.61915  -0.60413  -0.60037
 Alpha  occ. eigenvalues --   -0.59767  -0.59516  -0.58930  -0.58660  -0.58427
 Alpha  occ. eigenvalues --   -0.58069  -0.57427  -0.57205  -0.57082  -0.56882
 Alpha  occ. eigenvalues --   -0.56246  -0.55872  -0.55798  -0.55545  -0.55467
 Alpha  occ. eigenvalues --   -0.55273  -0.55143  -0.54923  -0.54394  -0.54159
 Alpha  occ. eigenvalues --   -0.53864  -0.53660  -0.53254  -0.53171  -0.52922
 Alpha  occ. eigenvalues --   -0.52841  -0.52798  -0.52732  -0.52586  -0.52450
 Alpha  occ. eigenvalues --   -0.52417  -0.52148  -0.51810  -0.51576  -0.51468
 Alpha  occ. eigenvalues --   -0.51391  -0.51111  -0.50814  -0.50567  -0.50227
 Alpha  occ. eigenvalues --   -0.50056  -0.49890  -0.49725  -0.49592  -0.49469
 Alpha  occ. eigenvalues --   -0.49212  -0.49112  -0.49041  -0.48886  -0.48743
 Alpha  occ. eigenvalues --   -0.48499  -0.48408  -0.48333  -0.48221  -0.48081
 Alpha  occ. eigenvalues --   -0.47940  -0.47644  -0.47292  -0.47240  -0.46831
 Alpha  occ. eigenvalues --   -0.46768  -0.46519  -0.46421  -0.46313  -0.46296
 Alpha  occ. eigenvalues --   -0.46068  -0.45964  -0.45741  -0.45685  -0.45445
 Alpha  occ. eigenvalues --   -0.45188  -0.44911  -0.44505  -0.44449  -0.44253
 Alpha  occ. eigenvalues --   -0.44134  -0.44116  -0.44059  -0.43894  -0.43823
 Alpha  occ. eigenvalues --   -0.43782  -0.43540  -0.43384  -0.43337  -0.43236
 Alpha  occ. eigenvalues --   -0.43067  -0.42959  -0.42713  -0.42586  -0.42498
 Alpha  occ. eigenvalues --   -0.42406  -0.42283  -0.41995  -0.41693  -0.41611
 Alpha  occ. eigenvalues --   -0.41508  -0.41224  -0.41193  -0.41088  -0.40869
 Alpha  occ. eigenvalues --   -0.40809  -0.40673  -0.40559  -0.40467  -0.40455
 Alpha  occ. eigenvalues --   -0.40244  -0.40205  -0.40002  -0.39515  -0.39191
 Alpha  occ. eigenvalues --   -0.38480  -0.38093  -0.37739  -0.37417  -0.37314
 Alpha  occ. eigenvalues --   -0.37226  -0.36985  -0.36907  -0.36533  -0.36400
 Alpha  occ. eigenvalues --   -0.36007  -0.35902  -0.34234  -0.33923  -0.33458
 Alpha  occ. eigenvalues --   -0.33446  -0.33084  -0.32844  -0.31313  -0.30994
 Alpha  occ. eigenvalues --   -0.30976  -0.30647  -0.29815  -0.29397  -0.29279
 Alpha  occ. eigenvalues --   -0.29232  -0.28996  -0.28784  -0.24030  -0.23705
 Alpha  occ. eigenvalues --   -0.21087  -0.20796
 Alpha virt. eigenvalues --   -0.08719  -0.08442  -0.01716  -0.01380  -0.00004
 Alpha virt. eigenvalues --    0.00298   0.02317   0.02622   0.02998   0.03581
 Alpha virt. eigenvalues --    0.04738   0.04999   0.05398   0.05618   0.06175

 Mulliken charges:
               1
     1  Mg   0.838012
     2  C   -0.002345
     3  C   -0.094674
     4  C   -0.045995
     5  C   -0.065289
     6  N   -0.256423
     7  C   -0.053184
     8  C   -0.013377
     9  C   -0.086848
    10  C    0.045649
    11  C    0.104865
    12  C    0.053539
    13  C   -0.071144
    14  H    0.035202
    15  N   -0.433086
    16  C    0.167916
    17  C   -0.177671
    18  C   -0.004248
    19  C    0.148653
    20  C    0.110322
    21  C    0.012215
    22  O   -0.249886
    23  C    0.062610
    24  N   -0.341031
    25  C    0.040934
    26  C   -0.028128
    27  C   -0.023827
    28  C    0.074978
    29  C    0.076175
    30  C    0.035321
    31  C   -0.004864
    32  N   -0.310722
    33  C    0.079613
    34  C   -0.170042
    35  C    0.010155
    36  C    0.083166
    37  C    0.126517
    38  C    0.050520
    39  O   -0.184903
    40  C   -0.006785
    41  C    0.213205
    42  O   -0.250269
    43  O   -0.306301
    44  C    0.156126
    45  H   -0.018002
    46  H   -0.017202
    47  H   -0.041820
    48  H    0.001539
    49  H   -0.004876
    50  H    0.025757
    51  H    0.016451
    52  H    0.016299
    53  H    0.009218
    54  H    0.044610
    55  H    0.018552
    56  H    0.016726
    57  H    0.005355
    58  H    0.026687
    59  H    0.038479
    60  H    0.037166
    61  H    0.035635
    62  H    0.030964
    63  H    0.015967
    64  H    0.009746
    65  H    0.023042
    66  H    0.012812
    67  H    0.004708
    68  H    0.006325
    69  H    0.004651
    70  H    0.008809
    71  H    0.014854
    72  H    0.029995
    73  H    0.050319
    74  H    0.008009
    75  H    0.046010
    76  H    0.034494
    77  H    0.042345
    78  H    0.043785
    79  H    0.058729
    80  Mg   0.836143
    81  C   -0.016514
    82  C   -0.088198
    83  C   -0.045892
    84  C   -0.066114
    85  N   -0.253988
    86  C   -0.050307
    87  C   -0.014519
    88  C   -0.090491
    89  C    0.044898
    90  C    0.114276
    91  C    0.062769
    92  C   -0.077036
    93  H    0.034218
    94  N   -0.423226
    95  C    0.161983
    96  C   -0.175697
    97  C   -0.008568
    98  C    0.151495
    99  C    0.099820
   100  C    0.014943
   101  O   -0.254060
   102  C    0.061469
   103  N   -0.350194
   104  C    0.037168
   105  C   -0.019601
   106  C   -0.034929
   107  C    0.089854
   108  C    0.073705
   109  C    0.034899
   110  C   -0.007485
   111  N   -0.324598
   112  C    0.078750
   113  C   -0.164240
   114  C    0.004969
   115  C    0.094660
   116  C    0.130993
   117  C    0.049432
   118  O   -0.176948
   119  C   -0.000830
   120  C    0.210863
   121  O   -0.252669
   122  O   -0.304375
   123  C    0.152804
   124  H   -0.021442
   125  H   -0.016361
   126  H   -0.041358
   127  H   -0.000506
   128  H   -0.005413
   129  H    0.023080
   130  H    0.013722
   131  H    0.013695
   132  H    0.013631
   133  H    0.038130
   134  H    0.019591
   135  H    0.018812
   136  H    0.007609
   137  H    0.024778
   138  H    0.038819
   139  H    0.037625
   140  H    0.035552
   141  H    0.033492
   142  H    0.013715
   143  H    0.012037
   144  H    0.024361
   145  H    0.012329
   146  H    0.005482
   147  H    0.005543
   148  H    0.002634
   149  H    0.010789
   150  H    0.017336
   151  H    0.030679
   152  H    0.046775
   153  H    0.005281
   154  H    0.051853
   155  H    0.044431
   156  H    0.041965
   157  H    0.047643
   158  H    0.053266
 Sum of Mulliken charges =  -0.00000

 Dipole moment (field-independent basis, Debye):
    X=              1.2632    Y=             -0.9900    Z=              7.8790  Tot=              8.0408
 Quadrupole moment (field-independent basis, Debye-Ang):
   XX=           -509.1822   YY=           -524.8296   ZZ=           -467.9201
   XY=            -21.5841   XZ=              2.0229   YZ=             56.2900

 Normal termination of Gaussian 16 at Fri Sep 10 02:47:39 2021.
