 Gaussian 16, Revision A.03,
 Gaussian 16:  ES64L-G16RevA.03 25-Dec-2016

 -----------------------------------
 #p cam-b3lyp/Def2SVP td=(nstates=5)
 -----------------------------------

 --------------------------------
 TDDFT excited states in gaussian
 --------------------------------
 Symbolic Z-matrix:
 Charge =  0 Multiplicity = 1

                         Standard orientation:
 ---------------------------------------------------------------------
 Center     Atomic      Atomic             Coordinates (Angstroms)
 Number     Number       Type             X           Y           Z
 ---------------------------------------------------------------------
      1         12           0       15.782308   -0.663758    0.446945
      2          6           0       16.067114    1.850924   -2.084354
      3          6           0       16.760517    1.704627    2.700148
      4          6           0       15.977837   -2.966498    2.618529
      5          6           0       15.939549   -3.036684   -2.100633
      6          7           0       16.315940    1.472215    0.215640
      7          6           0       16.326862    2.331200   -0.798853
      8          6           0       16.566257    3.805969   -0.357132
      9          6           0       17.316884    3.536549    1.023437
     10          6           0       16.737793    2.171888    1.352490
     11          6           0       18.829732    3.406330    0.879094
     12          6           0       15.226342    4.585933   -0.138009
     13          6           0       15.366508    6.106795   -0.025370
     14          1           0       14.319167    6.949714   -0.582067
     15          7           0       15.816589   -0.564802    2.419731
     16          6           0       16.230205    0.483968    3.170923
     17          6           0       16.062206    0.067549    4.579842
     18          6           0       15.696576   -1.376181    4.587105
     19          6           0       15.843223   -1.704332    3.192046
     20          6           0       16.198826    1.008014    5.737689
     21          6           0       15.291118   -2.314152    5.679783
     22          8           0       15.242553   -3.579922    5.506454
     23          6           0       15.034384   -1.712192    7.000682
     24          7           0       16.157041   -2.713027    0.313875
     25          6           0       16.127832   -3.491874    1.400856
     26          6           0       16.142057   -4.945593    1.031483
     27          6           0       15.941198   -5.001435   -0.551644
     28          6           0       15.927563   -3.480247   -0.841595
     29          6           0       17.411006   -5.720552    1.412559
     30          6           0       14.768291   -5.863859   -1.081674
     31          6           0       13.450387   -5.241214   -0.678510
     32          7           0       15.791631   -0.633817   -1.723322
     33          6           0       15.885624   -1.739057   -2.581392
     34          6           0       15.962507   -1.212937   -3.956658
     35          6           0       15.924348    0.171312   -3.800955
     36          6           0       15.856095    0.490293   -2.414634
     37          6           0       16.111980   -1.990085   -5.139084
     38          6           0       15.950198    1.455644   -4.481894
     39          8           0       15.908079    1.813606   -5.659851
     40          6           0       16.166547    2.596347   -3.392024
     41          6           0       15.158568    3.680028   -3.662068
     42          8           0       13.938143    3.472155   -3.504842
     43          8           0       15.796427    4.848472   -3.830637
     44          6           0       14.851773    5.971397   -4.073171
     45          1           0       17.282239    2.296036    3.455120
     46          1           0       15.937983   -3.795825    3.327801
     47          1           0       15.905226   -3.719284   -2.951711
     48          1           0       17.208502    4.381580   -1.023929
     49          1           0       17.036401    4.261435    1.787369
     50          1           0       19.130192    3.391640   -0.168488
     51          1           0       19.088195    2.463997    1.362517
     52          1           0       19.341358    4.184306    1.446341
     53          1           0       14.838044    4.361326    0.855388
     54          1           0       14.508153    4.347242   -0.923221
     55          1           0       16.347227    6.442787   -0.363316
     56          1           0       15.337293    6.375190    1.030713
     57          1           0       16.634491    1.958540    5.432335
     58          1           0       16.936402    0.575816    6.413629
     59          1           0       15.255296    1.149498    6.265009
     60          1           0       15.932875   -1.198066    7.342642
     61          1           0       14.669893   -2.520417    7.633745
     62          1           0       14.264360   -0.947241    6.896459
     63          1           0       15.324764   -5.479767    1.514304
     64          1           0       16.817620   -5.402527   -1.061235
     65          1           0       17.221013   -6.587575    2.045709
     66          1           0       18.097529   -5.026146    1.896064
     67          1           0       18.008334   -6.063096    0.568000
     68          1           0       14.800617   -6.859751   -0.641107
     69          1           0       14.775174   -5.980283   -2.165486
     70          1           0       13.304707   -5.614309    0.334609
     71          1           0       12.651458   -5.581083   -1.338369
     72          1           0       13.525063   -4.155269   -0.618245
     73          1           0       15.425187   -1.566141   -5.871583
     74          1           0       15.892781   -3.041145   -4.952462
     75          1           0       17.164343   -1.816401   -5.363187
     76          1           0       17.190131    2.951080   -3.508483
     77          1           0       15.144965    6.440295   -5.012536
     78          1           0       14.865643    6.587689   -3.174062
     79          1           0       13.820439    5.694448   -4.294508
     80         12           0      -15.951955    0.548012    0.610817
     81          6           0      -15.862315   -2.185613   -1.712613
     82          6           0      -15.010898    2.574237   -1.966673
     83          6           0      -15.584014    2.891305    2.718196
     84          6           0      -15.760347   -1.805739    3.173789
     85          7           0      -15.523171    0.130937   -1.518610
     86          6           0      -15.581894   -0.935326   -2.302180
     87          6           0      -15.404843   -0.632785   -3.814359
     88          6           0      -14.591341    0.746218   -3.690051
     89          6           0      -15.094530    1.204456   -2.322764
     90          6           0      -13.086613    0.551673   -3.604601
     91          6           0      -16.776790   -0.426278   -4.547246
     92          6           0      -16.697107   -0.434134   -6.075429
     93          1           0      -17.805705   -1.015764   -6.827235
     94          7           0      -15.862406    2.512578    0.344295
     95          6           0      -15.480489    3.165576   -0.773296
     96          6           0      -15.568944    4.598473   -0.452134
     97          6           0      -15.875914    4.736180    0.997532
     98          6           0      -15.763003    3.355547    1.423206
     99          6           0      -15.447750    5.674402   -1.491889
    100          6           0      -16.202812    5.916992    1.860680
    101          8           0      -16.199853    5.837338    3.139927
    102          6           0      -16.434979    7.192115    1.166677
    103          7           0      -15.494885    0.561471    2.638931
    104          6           0      -15.447513    1.714338    3.329285
    105          6           0      -15.374869    1.457517    4.815606
    106          6           0      -15.628232   -0.111492    4.993374
    107          6           0      -15.718848   -0.523145    3.507536
    108          6           0      -14.059381    1.840349    5.493332
    109          6           0      -16.777084   -0.535033    5.949099
    110          6           0      -18.110771   -0.128304    5.364941
    111          7           0      -16.017830   -1.606947    0.751642
    112          6           0      -15.893571   -2.389560    1.920471
    113          6           0      -15.885528   -3.805092    1.497816
    114          6           0      -15.983263   -3.746659    0.099421
    115          6           0      -16.027341   -2.389998   -0.321307
    116          6           0      -15.748462   -4.929765    2.359463
    117          6           0      -16.048465   -4.523962   -1.117234
    118          8           0      -16.137545   -5.722972   -1.378323
    119          6           0      -15.845618   -3.545649   -2.353419
    120          6           0      -16.910629   -3.854411   -3.369754
    121          8           0      -18.109464   -3.647306   -3.111845
    122          8           0      -16.326354   -4.135922   -4.548627
    123          6           0      -17.342416   -4.438114   -5.591747
    124          1           0      -14.499681    3.256687   -2.646235
    125          1           0      -15.562575    3.658708    3.495434
    126          1           0      -15.802239   -2.602050    3.919982
    127          1           0      -14.817692   -1.363142   -4.358042
    128          1           0      -14.888950    1.451327   -4.461812
    129          1           0      -12.819248   -0.491349   -3.522373
    130          1           0      -12.769421    1.094148   -2.723611
    131          1           0      -12.594866    1.038558   -4.451643
    132          1           0      -17.119462    0.603328   -4.382265
    133          1           0      -17.496787   -1.150594   -4.219224
    134          1           0      -15.739344   -0.828409   -6.436233
    135          1           0      -16.711620    0.599695   -6.428993
    136          1           0      -15.059576    5.277556   -2.438055
    137          1           0      -14.670525    6.365387   -1.147916
    138          1           0      -16.377217    6.230065   -1.633349
    139          1           0      -15.552592    7.454013    0.587661
    140          1           0      -16.742055    7.895650    1.942960
    141          1           0      -17.252786    7.056595    0.450121
    142          1           0      -16.151355    2.000540    5.340286
    143          1           0      -14.746580   -0.622215    5.407741
    144          1           0      -14.189709    2.557645    6.325533
    145          1           0      -13.393986    2.245666    4.742660
    146          1           0      -13.482417    1.005168    5.886764
    147          1           0      -16.685418   -0.014412    6.905502
    148          1           0      -16.792086   -1.598791    6.161636
    149          1           0      -18.200772    0.920793    5.662232
    150          1           0      -18.913495   -0.728737    5.788204
    151          1           0      -18.086586   -0.159572    4.269454
    152          1           0      -16.469972   -5.665032    2.028848
    153          1           0      -15.907891   -4.655126    3.400095
    154          1           0      -14.708190   -5.201570    2.161400
    155          1           0      -14.842757   -3.717632   -2.746183
    156          1           0      -17.098178   -5.423855   -5.999597
    157          1           0      -17.315125   -3.582315   -6.292192
    158          1           0      -18.364678   -4.591291   -5.266209
 ---------------------------------------------------------------------

 SCF Done:  E(RCAM-B3LYP) =  -4069.81177582     A.U. after   19 cycles

 Excitation energies and oscillator strengths:

 Excited State   1:      Singlet-A      1.6756 eV  739.95 nm  f=0.3899  <S**2>=0.000
     310 -> 316        0.17355
     312 -> 313        0.68591
     310 <- 316        0.10460
 This state for optimization and/or second-order correction.
 Total Energy, E(TD-HF/TD-DFT) =  -4069.75019927
 Copying the excited state density for this state as the 1-particle RhoCI density.

 Excited State   2:      Singlet-A      1.6799 eV  738.06 nm  f=0.3863  <S**2>=0.000
     309 -> 315        0.17553
     311 -> 314        0.68557
     309 <- 315        0.10512

 Excited State   3:      Singlet-A      2.1861 eV  567.15 nm  f=0.1025  <S**2>=0.000
     310 -> 313        0.64248
     312 -> 316       -0.27309

 Excited State   4:      Singlet-A      2.1926 eV  565.47 nm  f=0.0985  <S**2>=0.000
     309 -> 314        0.64071
     311 -> 315       -0.27832

 Excited State   5:      Singlet-A      3.0660 eV  404.38 nm  f=0.0000  <S**2>=0.000
     311 -> 313        0.70711

 The electronic state is 1-A.
 Alpha  occ. eigenvalues --  -46.87797 -46.87660 -19.26345 -19.26290 -19.19158
 Alpha  occ. eigenvalues --  -19.19025 -19.18813 -19.18715 -19.18172 -19.18050
 Alpha  occ. eigenvalues --  -14.42496 -14.42450 -14.41449 -14.41359 -14.39402
 Alpha  occ. eigenvalues --  -14.39352 -14.38600 -14.38587 -10.39087 -10.39084
 Alpha  occ. eigenvalues --  -10.35446 -10.35392 -10.34392 -10.34227 -10.31751
 Alpha  occ. eigenvalues --  -10.31687 -10.31406 -10.31307 -10.31021 -10.30909
 Alpha  occ. eigenvalues --  -10.30570 -10.30507 -10.30398 -10.30360 -10.30206
 Alpha  occ. eigenvalues --  -10.30142 -10.29920 -10.29895 -10.29631 -10.29437
 Alpha  occ. eigenvalues --  -10.29400 -10.29254 -10.28751 -10.28714 -10.28647
 Alpha  occ. eigenvalues --  -10.28542 -10.28404 -10.28365 -10.28135 -10.28118
 Alpha  occ. eigenvalues --  -10.28001 -10.27793 -10.27727 -10.27667 -10.27584
 Alpha  occ. eigenvalues --  -10.27521 -10.27499 -10.27483 -10.27480 -10.27467
 Alpha  occ. eigenvalues --  -10.27463 -10.27448 -10.27404 -10.27379 -10.27161
 Alpha  occ. eigenvalues --  -10.27048 -10.26707 -10.26687 -10.26416 -10.26406
 Alpha  occ. eigenvalues --  -10.26235 -10.26181 -10.26142 -10.26019 -10.26017
 Alpha  occ. eigenvalues --  -10.25935 -10.25852 -10.25845 -10.25433 -10.25402
 Alpha  occ. eigenvalues --  -10.24872 -10.24833 -10.24787 -10.24736 -10.24690
 Alpha  occ. eigenvalues --  -10.24685  -3.16539  -3.16410  -1.91421  -1.91292
 Alpha  occ. eigenvalues --   -1.91008  -1.90881  -1.90850  -1.90718  -1.16639
 Alpha  occ. eigenvalues --   -1.16638  -1.08657  -1.08630  -1.07214  -1.06967
 Alpha  occ. eigenvalues --   -1.06942  -1.06647  -1.04581  -1.04494  -1.03760
 Alpha  occ. eigenvalues --   -1.03663  -1.03234  -1.03039  -1.02411  -1.02111
 Alpha  occ. eigenvalues --   -0.91986  -0.91973  -0.89519  -0.89496  -0.89189
 Alpha  occ. eigenvalues --   -0.89147  -0.88286  -0.88222  -0.87871  -0.87794
 Alpha  occ. eigenvalues --   -0.87683  -0.87673  -0.87273  -0.87120  -0.84997
 Alpha  occ. eigenvalues --   -0.84983  -0.83935  -0.83878  -0.82965  -0.82932
 Alpha  occ. eigenvalues --   -0.82650  -0.82649  -0.81594  -0.81588  -0.80597
 Alpha  occ. eigenvalues --   -0.80441  -0.78797  -0.78635  -0.77219  -0.77143
 Alpha  occ. eigenvalues --   -0.76936  -0.76896  -0.75925  -0.75836  -0.74897
 Alpha  occ. eigenvalues --   -0.74804  -0.72774  -0.72699  -0.71672  -0.71580
 Alpha  occ. eigenvalues --   -0.69906  -0.69760  -0.68874  -0.68825  -0.67641
 Alpha  occ. eigenvalues --   -0.67601  -0.67220  -0.67197  -0.65288  -0.65269
 Alpha  occ. eigenvalues --   -0.64855  -0.64770  -0.64652  -0.64622  -0.64269
 Alpha  occ. eigenvalues --   -0.64205  -0.62301  -0.62276  -0.60441  -0.60340
 Alpha  occ. eigenvalues --   -0.59805  -0.59793  -0.58992  -0.58988  -0.58504
 Alpha  occ. eigenvalues --   -0.58425  -0.57587  -0.57552  -0.57309  -0.57237
 Alpha  occ. eigenvalues --   -0.56310  -0.56203  -0.55982  -0.55883  -0.55520
 Alpha  occ. eigenvalues --   -0.55451  -0.55340  -0.55248  -0.54525  -0.54488
 Alpha  occ. eigenvalues --   -0.53908  -0.53896  -0.53299  -0.53227  -0.53222
 Alpha  occ. eigenvalues --   -0.53140  -0.52916  -0.52900  -0.52755  -0.52666
 Alpha  occ. eigenvalues --   -0.52437  -0.52404  -0.51916  -0.51886  -0.51656
 Alpha  occ. eigenvalues --   -0.51617  -0.51200  -0.51197  -0.50570  -0.50475
 Alpha  occ. eigenvalues --   -0.50030  -0.49978  -0.49918  -0.49869  -0.49515
 Alpha  occ. eigenvalues --   -0.49486  -0.49215  -0.49200  -0.49102  -0.49097
 Alpha  occ. eigenvalues --   -0.48594  -0.48556  -0.48460  -0.48445  -0.48377
 Alpha  occ. eigenvalues --   -0.48338  -0.47695  -0.47593  -0.47297  -0.47118
 Alpha  occ. eigenvalues --   -0.46797  -0.46708  -0.46556  -0.46551  -0.46359
 Alpha  occ. eigenvalues --   -0.46270  -0.46163  -0.46086  -0.45824  -0.45821
 Alpha  occ. eigenvalues --   -0.45210  -0.45200  -0.44579  -0.44513  -0.44506
 Alpha  occ. eigenvalues --   -0.44474  -0.44144  -0.44125  -0.44089  -0.44078
 Alpha  occ. eigenvalues --   -0.44020  -0.43938  -0.43551  -0.43497  -0.43386
 Alpha  occ. eigenvalues --   -0.43384  -0.43028  -0.42928  -0.42900  -0.42701
 Alpha  occ. eigenvalues --   -0.42655  -0.42555  -0.42009  -0.41964  -0.41705
 Alpha  occ. eigenvalues --   -0.41668  -0.41535  -0.41456  -0.41141  -0.40988
 Alpha  occ. eigenvalues --   -0.40869  -0.40822  -0.40721  -0.40697  -0.40571
 Alpha  occ. eigenvalues --   -0.40494  -0.40236  -0.40223  -0.39439  -0.39429
 Alpha  occ. eigenvalues --   -0.38468  -0.38352  -0.37750  -0.37650  -0.37320
 Alpha  occ. eigenvalues --   -0.37266  -0.37265  -0.37197  -0.36769  -0.36716
 Alpha  occ. eigenvalues --   -0.36217  -0.36194  -0.34286  -0.34253  -0.33859
 Alpha  occ. eigenvalues --   -0.33774  -0.33187  -0.33175  -0.31343  -0.31274
 Alpha  occ. eigenvalues --   -0.31036  -0.30972  -0.30031  -0.29954  -0.29449
 Alpha  occ. eigenvalues --   -0.29327  -0.29322  -0.29211  -0.24081  -0.24036
 Alpha  occ. eigenvalues --   -0.21128  -0.21116
 Alpha virt. eigenvalues --   -0.08791  -0.08774  -0.01749  -0.01684  -0.00057
 Alpha virt. eigenvalues --   -0.00028   0.02199   0.02207   0.03123   0.03227
 Alpha virt. eigenvalues --    0.04717   0.04732   0.05094   0.05168   0.06175

 Mulliken charges:
               1
     1  Mg   0.838804
     2  C   -0.003005
     3  C   -0.094121
     4  C   -0.045880
     5  C   -0.063949
     6  N   -0.256800
     7  C   -0.052459
     8  C   -0.014021
     9  C   -0.087014
    10  C    0.046352
    11  C    0.104807
    12  C    0.053469
    13  C   -0.071795
    14  H    0.036079
    15  N   -0.433156
    16  C    0.168426
    17  C   -0.177134
    18  C   -0.003987
    19  C    0.148716
    20  C    0.110166
    21  C    0.012303
    22  O   -0.249593
    23  C    0.062469
    24  N   -0.341163
    25  C    0.041254
    26  C   -0.028181
    27  C   -0.023958
    28  C    0.074826
    29  C    0.076158
    30  C    0.035113
    31  C   -0.004500
    32  N   -0.310472
    33  C    0.080404
    34  C   -0.169729
    35  C    0.008330
    36  C    0.082992
    37  C    0.127317
    38  C    0.046101
    39  O   -0.188501
    40  C   -0.005328
    41  C    0.212867
    42  O   -0.257129
    43  O   -0.304787
    44  C    0.157716
    45  H   -0.017590
    46  H   -0.016805
    47  H   -0.041495
    48  H    0.000928
    49  H   -0.004028
    50  H    0.025465
    51  H    0.016461
    52  H    0.016665
    53  H    0.011222
    54  H    0.044098
    55  H    0.017869
    56  H    0.017971
    57  H    0.005877
    58  H    0.026850
    59  H    0.039583
    60  H    0.037352
    61  H    0.035691
    62  H    0.031513
    63  H    0.016580
    64  H    0.009462
    65  H    0.023243
    66  H    0.012545
    67  H    0.004758
    68  H    0.006396
    69  H    0.004720
    70  H    0.008807
    71  H    0.018146
    72  H    0.028959
    73  H    0.047527
    74  H    0.009116
    75  H    0.046000
    76  H    0.035145
    77  H    0.042911
    78  H    0.046410
    79  H    0.053643
    80  Mg   0.837854
    81  C   -0.016797
    82  C   -0.087755
    83  C   -0.045510
    84  C   -0.064887
    85  N   -0.254566
    86  C   -0.049833
    87  C   -0.015074
    88  C   -0.090513
    89  C    0.045761
    90  C    0.114352
    91  C    0.062514
    92  C   -0.077928
    93  H    0.034909
    94  N   -0.423504
    95  C    0.162920
    96  C   -0.174582
    97  C   -0.007822
    98  C    0.152116
    99  C    0.099342
   100  C    0.015576
   101  O   -0.253214
   102  C    0.061199
   103  N   -0.350077
   104  C    0.037536
   105  C   -0.019828
   106  C   -0.034819
   107  C    0.088930
   108  C    0.073655
   109  C    0.034747
   110  C   -0.007674
   111  N   -0.324118
   112  C    0.078425
   113  C   -0.163136
   114  C    0.002249
   115  C    0.096188
   116  C    0.131490
   117  C    0.042380
   118  O   -0.187854
   119  C    0.000904
   120  C    0.211284
   121  O   -0.251044
   122  O   -0.305609
   123  C    0.152017
   124  H   -0.019586
   125  H   -0.015595
   126  H   -0.040482
   127  H   -0.000605
   128  H   -0.004283
   129  H    0.022492
   130  H    0.014432
   131  H    0.016390
   132  H    0.013909
   133  H    0.037661
   134  H    0.020844
   135  H    0.019621
   136  H    0.008819
   137  H    0.026178
   138  H    0.039808
   139  H    0.038277
   140  H    0.036378
   141  H    0.033907
   142  H    0.014381
   143  H    0.012413
   144  H    0.025105
   145  H    0.011667
   146  H    0.005667
   147  H    0.006232
   148  H    0.003639
   149  H    0.010923
   150  H    0.017917
   151  H    0.030124
   152  H    0.045999
   153  H    0.008486
   154  H    0.046964
   155  H    0.035081
   156  H    0.043935
   157  H    0.049526
   158  H    0.053566
 Sum of Mulliken charges =  -0.00000

 Dipole moment (field-independent basis, Debye):
    X=              4.2042    Y=              4.9701    Z=              1.8194  Tot=              6.7592
 Quadrupole moment (field-independent basis, Debye-Ang):
   XX=           -517.4753   YY=           -503.6077   ZZ=           -495.3290
   XY=            -28.9429   XZ=             88.4453   YZ=              3.4606

 Normal termination of Gaussian 16 at Sat Sep  4 21:03:11 2021.
