 Gaussian 16, Revision A.03,
 Gaussian 16:  ES64L-G16RevA.03 25-Dec-2016

 -----------------------------------
 #p cam-b3lyp/Def2SVP td=(nstates=5)
 -----------------------------------

 --------------------------------
 TDDFT excited states in gaussian
 --------------------------------
 Symbolic Z-matrix:
 Charge =  0 Multiplicity = 1

                         Standard orientation:
 ---------------------------------------------------------------------
 Center     Atomic      Atomic             Coordinates (Angstroms)
 Number     Number       Type             X           Y           Z
 ---------------------------------------------------------------------
      1         12           0        4.735130   -0.052880   -0.016992
      2          6           0        4.357915   -3.469287   -1.016037
      3          6           0        5.538188    0.650785   -3.257828
      4          6           0        5.514074    2.873183    0.925356
      5          6           0        5.018441   -1.197256    3.262611
      6          7           0        4.891998   -1.331892   -1.817039
      7          6           0        4.663440   -2.615178   -2.078015
      8          6           0        4.704849   -2.953373   -3.598306
      9          6           0        5.622609   -1.749643   -4.099054
     10          6           0        5.306567   -0.735530   -3.013874
     11          6           0        7.114719   -2.063445   -4.058570
     12          6           0        3.285307   -2.903994   -4.257239
     13          6           0        3.189127   -3.533806   -5.649877
     14          1           0        1.969566   -4.237209   -6.017630
     15          7           0        4.949053    1.613448   -1.056432
     16          6           0        5.260939    1.713552   -2.370963
     17          6           0        5.303189    3.160971   -2.670755
     18          6           0        5.177482    3.896470   -1.381828
     19          6           0        5.235597    2.809712   -0.437922
     20          6           0        5.400981    3.710863   -4.060649
     21          6           0        5.039139    5.349242   -1.052517
     22          8           0        5.178132    5.792935    0.138446
     23          6           0        4.821441    6.262603   -2.188924
     24          7           0        5.419993    0.719474    1.797413
     25          6           0        5.624892    2.031743    1.955378
     26          6           0        5.836321    2.381525    3.398599
     27          6           0        5.490640    1.061872    4.228523
     28          6           0        5.203348    0.106610    3.043952
     29          6           0        7.245066    2.864111    3.770833
     30          6           0        4.425170    1.192686    5.345698
     31          6           0        3.070890    1.471618    4.733147
     32          7           0        4.523617   -1.958070    1.001124
     33          6           0        4.708627   -2.208435    2.368516
     34          6           0        4.562583   -3.662428    2.565097
     35          6           0        4.317594   -4.162138    1.287554
     36          6           0        4.337064   -3.091614    0.348463
     37          6           0        4.716955   -4.356402    3.797575
     38          6           0        4.068345   -5.354566    0.493925
     39          8           0        3.852166   -6.539270    0.753225
     40          6           0        4.205405   -4.969764   -1.045220
     41          6           0        3.014216   -5.541612   -1.764503
     42          8           0        1.864990   -5.107924   -1.544138
     43          8           0        3.435535   -6.334694   -2.761526
     44          6           0        2.302939   -6.911176   -3.534216
     45          1           0        6.030284    0.948398   -4.185842
     46          1           0        5.679088    3.881701    1.310193
     47          1           0        5.010063   -1.616339    4.270457
     48          1           0        5.176430   -3.906252   -3.839259
     49          1           0        5.306396   -1.374338   -5.072130
     50          1           0        7.307923   -3.018176   -3.569611
     51          1           0        7.568398   -1.248207   -3.494607
     52          1           0        7.548173   -2.014106   -5.057800
     53          1           0        3.039015   -1.871113   -4.503322
     54          1           0        2.540468   -3.359145   -3.603497
     55          1           0        4.064369   -4.144869   -5.872276
     56          1           0        3.222234   -2.733806   -6.389542
     57          1           0        5.645266    2.932881   -4.782877
     58          1           0        6.262071    4.378617   -4.079021
     59          1           0        4.504168    4.259422   -4.348991
     60          1           0        5.654865    6.174520   -2.886201
     61          1           0        4.656711    7.248299   -1.755200
     62          1           0        3.931744    5.943786   -2.732747
     63          1           0        5.167885    3.183750    3.708527
     64          1           0        6.365147    0.660093    4.740856
     65          1           0        7.261159    3.848475    4.239313
     66          1           0        7.855390    2.850539    2.868274
     67          1           0        7.802780    2.189358    4.419740
     68          1           0        4.661169    2.032570    5.998266
     69          1           0        4.342894    0.301774    5.968401
     70          1           0        3.088711    2.550645    4.584099
     71          1           0        2.275538    1.185772    5.422290
     72          1           0        2.975261    1.008527    3.750860
     73          1           0        3.901434   -5.077921    3.845591
     74          1           0        4.689608   -3.670765    4.644190
     75          1           0        5.700015   -4.804877    3.655034
     76          1           0        5.141745   -5.403691   -1.394642
     77          1           0        2.421864   -7.994610   -3.518056
     78          1           0        2.306694   -6.416178   -4.505488
     79          1           0        1.312863   -6.806166   -3.089176
     80         12           0       -4.151199    1.312209    0.507908
     81          6           0       -6.473494   -1.416727    0.310538
     82          6           0       -5.451377    2.436046   -2.438467
     83          6           0       -1.826267    3.469584    0.419375
     84          6           0       -2.309362   -0.600399    2.765175
     85          7           0       -5.753247    0.525120   -0.798307
     86          6           0       -6.607655   -0.485298   -0.740118
     87          6           0       -7.715997   -0.453769   -1.826474
     88          6           0       -6.952124    0.436011   -2.923585
     89          6           0       -6.014541    1.211012   -2.000013
     90          6           0       -6.106561   -0.385781   -3.882244
     91          6           0       -9.024745    0.251609   -1.324844
     92          6           0      -10.249153    0.046692   -2.219594
     93          1           0      -11.560925   -0.068950   -1.588449
     94          7           0       -4.003597    2.999496   -0.526433
     95          6           0       -4.618136    3.296709   -1.690594
     96          6           0       -4.165852    4.649544   -2.050365
     97          6           0       -3.107131    5.061336   -1.088973
     98          6           0       -2.919158    3.824214   -0.358030
     99          6           0       -4.786693    5.446715   -3.160541
    100          6           0       -2.374816    6.350975   -0.872775
    101          8           0       -1.326591    6.415070   -0.137979
    102          6           0       -2.866187    7.517294   -1.620946
    103          7           0       -2.224079    1.341086    1.287465
    104          6           0       -1.438852    2.423871    1.149940
    105          6           0       -0.210632    2.321377    2.022495
    106          6           0       -0.455043    1.049492    2.960660
    107          6           0       -1.801509    0.562782    2.381402
    108          6           0        1.118264    2.161177    1.284421
    109          6           0       -0.348240    1.274898    4.493775
    110          6           0       -1.480623    2.158298    4.965682
    111          7           0       -4.421275   -0.568910    1.535776
    112          6           0       -3.514124   -1.197482    2.416715
    113          6           0       -4.090738   -2.510522    2.771473
    114          6           0       -5.291934   -2.564896    2.048518
    115          6           0       -5.442819   -1.378714    1.280595
    116          6           0       -3.486959   -3.483028    3.617528
    117          6           0       -6.461424   -3.360598    1.752137
    118          8           0       -6.920960   -4.420582    2.175218
    119          6           0       -7.217127   -2.707256    0.515828
    120          6           0       -8.680172   -2.626426    0.855683
    121          8           0       -9.075323   -1.890350    1.776905
    122          8           0       -9.389402   -3.258869   -0.096890
    123          6           0      -10.847325   -3.196405    0.190117
    124          1           0       -5.628978    2.749851   -3.467477
    125          1           0       -1.045822    4.228650    0.509860
    126          1           0       -1.843577   -1.213753    3.539449
    127          1           0       -7.970733   -1.420611   -2.243714
    128          1           0       -7.635921    1.113437   -3.428425
    129          1           0       -6.065233   -1.425441   -3.593216
    130          1           0       -5.118327    0.054291   -3.854142
    131          1           0       -6.465208   -0.256040   -4.907357
    132          1           0       -8.903846    1.338564   -1.417868
    133          1           0       -9.257051   -0.045928   -0.320783
    134          1           0      -10.098951   -0.762280   -2.944827
    135          1           0      -10.381192    0.938760   -2.836685
    136          1           0       -5.427081    4.821717   -3.795106
    137          1           0       -3.972508    5.761213   -3.822393
    138          1           0       -5.311437    6.333869   -2.799598
    139          1           0       -2.830132    7.304081   -2.686633
    140          1           0       -2.273022    8.362678   -1.266886
    141          1           0       -3.920149    7.676907   -1.367405
    142          1           0       -0.103664    3.201538    2.644576
    143          1           0        0.277455    0.252488    2.765544
    144          1           0        1.854717    2.947648    1.535778
    145          1           0        0.919194    2.152521    0.221008
    146          1           0        1.617199    1.205179    1.433852
    147          1           0        0.578012    1.801984    4.735441
    148          1           0       -0.353698    0.353938    5.067174
    149          1           0       -1.111529    3.166437    4.754689
    150          1           0       -1.658192    2.017700    6.029979
    151          1           0       -2.380181    2.002890    4.358804
    152          1           0       -4.267445   -3.859993    4.265018
    153          1           0       -2.665639   -3.057012    4.189987
    154          1           0       -3.137767   -4.201261    2.870881
    155          1           0       -7.032981   -3.340755   -0.352692
    156          1           0      -11.214994   -4.227112    0.202329
    157          1           0      -11.273339   -2.518650   -0.573366
    158          1           0      -11.150563   -2.852052    1.171911
 ---------------------------------------------------------------------

 SCF Done:  E(RCAM-B3LYP) =  -4069.80969576     A.U. after   19 cycles

 Excitation energies and oscillator strengths:

 Excited State   1:      Singlet-A      1.6448 eV  753.80 nm  f=0.0016  <S**2>=0.000
     309 -> 315        0.11335
     310 -> 316       -0.12117
     311 -> 313        0.46804
     312 -> 314        0.50390
 This state for optimization and/or second-order correction.
 Total Energy, E(TD-HF/TD-DFT) =  -4069.74925052
 Copying the excited state density for this state as the 1-particle RhoCI density.

 Excited State   2:      Singlet-A      1.7053 eV  727.03 nm  f=0.6904  <S**2>=0.000
     309 -> 315        0.13364
     310 -> 316        0.12288
     311 -> 313        0.50136
     312 -> 314       -0.46555

 Excited State   3:      Singlet-A      2.1816 eV  568.32 nm  f=0.0683  <S**2>=0.000
     309 -> 313        0.23191
     310 -> 314        0.60124
     312 -> 316        0.25085

 Excited State   4:      Singlet-A      2.1973 eV  564.26 nm  f=0.1228  <S**2>=0.000
     309 -> 313        0.59684
     310 -> 314       -0.22752
     311 -> 315       -0.26274
     312 -> 316       -0.10392

 Excited State   5:      Singlet-A      2.3377 eV  530.36 nm  f=0.0000  <S**2>=0.000
     312 -> 313        0.70635

 The electronic state is 1-A.
 Alpha  occ. eigenvalues --  -46.87895 -46.87432 -19.26315 -19.26176 -19.19057
 Alpha  occ. eigenvalues --  -19.18979 -19.18751 -19.18532 -19.18218 -19.17819
 Alpha  occ. eigenvalues --  -14.42536 -14.42274 -14.41554 -14.41133 -14.39470
 Alpha  occ. eigenvalues --  -14.39131 -14.38687 -14.38359 -10.39119 -10.38904
 Alpha  occ. eigenvalues --  -10.35378 -10.35216 -10.34441 -10.33995 -10.31697
 Alpha  occ. eigenvalues --  -10.31606 -10.31500 -10.31076 -10.30965 -10.30833
 Alpha  occ. eigenvalues --  -10.30662 -10.30601 -10.30314 -10.30153 -10.30114
 Alpha  occ. eigenvalues --  -10.30054 -10.29918 -10.29695 -10.29654 -10.29324
 Alpha  occ. eigenvalues --  -10.29218 -10.29161 -10.28809 -10.28598 -10.28544
 Alpha  occ. eigenvalues --  -10.28527 -10.28430 -10.28191 -10.28185 -10.27958
 Alpha  occ. eigenvalues --  -10.27854 -10.27811 -10.27772 -10.27672 -10.27631
 Alpha  occ. eigenvalues --  -10.27604 -10.27495 -10.27479 -10.27452 -10.27329
 Alpha  occ. eigenvalues --  -10.27277 -10.27261 -10.27246 -10.27212 -10.27211
 Alpha  occ. eigenvalues --  -10.26830 -10.26761 -10.26541 -10.26446 -10.26305
 Alpha  occ. eigenvalues --  -10.26296 -10.26244 -10.26138 -10.25934 -10.25851
 Alpha  occ. eigenvalues --  -10.25710 -10.25680 -10.25538 -10.25474 -10.25401
 Alpha  occ. eigenvalues --  -10.25109 -10.24900 -10.24899 -10.24632 -10.24492
 Alpha  occ. eigenvalues --  -10.24468  -3.16622  -3.16182  -1.91505  -1.91091
 Alpha  occ. eigenvalues --   -1.91064  -1.90933  -1.90653  -1.90489  -1.16665
 Alpha  occ. eigenvalues --   -1.16468  -1.08677  -1.08425  -1.07141  -1.06790
 Alpha  occ. eigenvalues --   -1.06762  -1.06679  -1.04660  -1.04277  -1.03855
 Alpha  occ. eigenvalues --   -1.03438  -1.03318  -1.02808  -1.02501  -1.01883
 Alpha  occ. eigenvalues --   -0.92046  -0.91761  -0.89690  -0.89263  -0.89252
 Alpha  occ. eigenvalues --   -0.88965  -0.88442  -0.88014  -0.87950  -0.87757
 Alpha  occ. eigenvalues --   -0.87525  -0.87463  -0.87284  -0.86934  -0.85049
 Alpha  occ. eigenvalues --   -0.84812  -0.84138  -0.83678  -0.82992  -0.82770
 Alpha  occ. eigenvalues --   -0.82679  -0.82471  -0.81650  -0.81388  -0.80655
 Alpha  occ. eigenvalues --   -0.80238  -0.78842  -0.78421  -0.77345  -0.77029
 Alpha  occ. eigenvalues --   -0.76939  -0.76711  -0.75996  -0.75639  -0.75037
 Alpha  occ. eigenvalues --   -0.74650  -0.72876  -0.72465  -0.71757  -0.71397
 Alpha  occ. eigenvalues --   -0.70318  -0.69455  -0.68931  -0.68632  -0.67702
 Alpha  occ. eigenvalues --   -0.67395  -0.67252  -0.67026  -0.65374  -0.65086
 Alpha  occ. eigenvalues --   -0.64956  -0.64740  -0.64556  -0.64473  -0.64395
 Alpha  occ. eigenvalues --   -0.63971  -0.62367  -0.62084  -0.60493  -0.60145
 Alpha  occ. eigenvalues --   -0.59872  -0.59595  -0.59080  -0.58776  -0.58588
 Alpha  occ. eigenvalues --   -0.58213  -0.57646  -0.57399  -0.57335  -0.57033
 Alpha  occ. eigenvalues --   -0.56370  -0.56027  -0.55985  -0.55706  -0.55592
 Alpha  occ. eigenvalues --   -0.55490  -0.55257  -0.55047  -0.54674  -0.54280
 Alpha  occ. eigenvalues --   -0.53961  -0.53731  -0.53404  -0.53236  -0.53028
 Alpha  occ. eigenvalues --   -0.53016  -0.52949  -0.52777  -0.52715  -0.52665
 Alpha  occ. eigenvalues --   -0.52510  -0.52168  -0.51996  -0.51649  -0.51567
 Alpha  occ. eigenvalues --   -0.51477  -0.51302  -0.50999  -0.50559  -0.50329
 Alpha  occ. eigenvalues --   -0.50196  -0.49935  -0.49804  -0.49707  -0.49525
 Alpha  occ. eigenvalues --   -0.49306  -0.49265  -0.49155  -0.49002  -0.48899
 Alpha  occ. eigenvalues --   -0.48672  -0.48562  -0.48428  -0.48355  -0.48204
 Alpha  occ. eigenvalues --   -0.48151  -0.47769  -0.47410  -0.47357  -0.46962
 Alpha  occ. eigenvalues --   -0.46934  -0.46624  -0.46514  -0.46444  -0.46368
 Alpha  occ. eigenvalues --   -0.46263  -0.46059  -0.45925  -0.45878  -0.45603
 Alpha  occ. eigenvalues --   -0.45398  -0.45100  -0.44648  -0.44557  -0.44332
 Alpha  occ. eigenvalues --   -0.44294  -0.44254  -0.44146  -0.44038  -0.43964
 Alpha  occ. eigenvalues --   -0.43901  -0.43746  -0.43585  -0.43471  -0.43381
 Alpha  occ. eigenvalues --   -0.43223  -0.43099  -0.42932  -0.42740  -0.42730
 Alpha  occ. eigenvalues --   -0.42653  -0.42361  -0.42123  -0.41787  -0.41713
 Alpha  occ. eigenvalues --   -0.41603  -0.41443  -0.41250  -0.41193  -0.40997
 Alpha  occ. eigenvalues --   -0.40817  -0.40766  -0.40696  -0.40554  -0.40526
 Alpha  occ. eigenvalues --   -0.40308  -0.40269  -0.40067  -0.39512  -0.39097
 Alpha  occ. eigenvalues --   -0.38600  -0.38144  -0.37811  -0.37480  -0.37443
 Alpha  occ. eigenvalues --   -0.37329  -0.37040  -0.36996  -0.36755  -0.36573
 Alpha  occ. eigenvalues --   -0.36257  -0.35980  -0.34374  -0.34021  -0.33815
 Alpha  occ. eigenvalues --   -0.33671  -0.33267  -0.32945  -0.31299  -0.31101
 Alpha  occ. eigenvalues --   -0.31089  -0.30753  -0.30081  -0.29721  -0.29493
 Alpha  occ. eigenvalues --   -0.29388  -0.29113  -0.28960  -0.24175  -0.23803
 Alpha  occ. eigenvalues --   -0.21214  -0.20890
 Alpha virt. eigenvalues --   -0.08841  -0.08564  -0.01837  -0.01479  -0.00067
 Alpha virt. eigenvalues --    0.00166   0.02129   0.02449   0.03041   0.03488
 Alpha virt. eigenvalues --    0.04631   0.04927   0.05055   0.05355   0.06054

 Mulliken charges:
               1
     1  Mg   0.824120
     2  C   -0.002226
     3  C   -0.093503
     4  C   -0.051008
     5  C   -0.063936
     6  N   -0.256378
     7  C   -0.052626
     8  C   -0.013839
     9  C   -0.087012
    10  C    0.046863
    11  C    0.104778
    12  C    0.053415
    13  C   -0.071740
    14  H    0.036012
    15  N   -0.431661
    16  C    0.170352
    17  C   -0.177280
    18  C   -0.001986
    19  C    0.149926
    20  C    0.110376
    21  C    0.015537
    22  O   -0.248603
    23  C    0.061726
    24  N   -0.339469
    25  C    0.042722
    26  C   -0.027966
    27  C   -0.026246
    28  C    0.072876
    29  C    0.076229
    30  C    0.059384
    31  C   -0.043686
    32  N   -0.308127
    33  C    0.076373
    34  C   -0.170605
    35  C    0.008218
    36  C    0.082408
    37  C    0.127567
    38  C    0.046009
    39  O   -0.188033
    40  C   -0.005497
    41  C    0.212960
    42  O   -0.257021
    43  O   -0.304821
    44  C    0.157495
    45  H   -0.017395
    46  H   -0.017027
    47  H   -0.043122
    48  H    0.001095
    49  H   -0.003990
    50  H    0.025678
    51  H    0.016560
    52  H    0.016822
    53  H    0.011241
    54  H    0.044361
    55  H    0.018014
    56  H    0.017738
    57  H    0.005491
    58  H    0.027153
    59  H    0.040557
    60  H    0.035808
    61  H    0.037849
    62  H    0.033855
    63  H    0.016051
    64  H    0.009928
    65  H    0.023818
    66  H    0.013435
    67  H    0.004999
    68  H    0.006033
    69  H    0.002376
    70  H    0.014570
    71  H    0.034474
    72  H    0.028899
    73  H    0.047241
    74  H    0.008272
    75  H    0.046444
    76  H    0.035395
    77  H    0.043314
    78  H    0.046199
    79  H    0.054107
    80  Mg   0.838640
    81  C   -0.016976
    82  C   -0.088347
    83  C   -0.047114
    84  C   -0.062628
    85  N   -0.254497
    86  C   -0.049273
    87  C   -0.015120
    88  C   -0.090561
    89  C    0.045799
    90  C    0.114603
    91  C    0.062613
    92  C   -0.077554
    93  H    0.034412
    94  N   -0.423136
    95  C    0.162563
    96  C   -0.175955
    97  C   -0.008566
    98  C    0.151673
    99  C    0.100013
   100  C    0.014136
   101  O   -0.252668
   102  C    0.061356
   103  N   -0.349645
   104  C    0.037591
   105  C   -0.015427
   106  C   -0.035728
   107  C    0.090385
   108  C    0.053538
   109  C    0.013668
   110  C   -0.001939
   111  N   -0.324617
   112  C    0.078738
   113  C   -0.160851
   114  C    0.002560
   115  C    0.096863
   116  C    0.131580
   117  C    0.043162
   118  O   -0.187515
   119  C    0.000679
   120  C    0.211104
   121  O   -0.251326
   122  O   -0.305556
   123  C    0.152188
   124  H   -0.020925
   125  H   -0.014978
   126  H   -0.039124
   127  H   -0.000761
   128  H   -0.005051
   129  H    0.023030
   130  H    0.014384
   131  H    0.015073
   132  H    0.013782
   133  H    0.037649
   134  H    0.020608
   135  H    0.019200
   136  H    0.008154
   137  H    0.024221
   138  H    0.039133
   139  H    0.036759
   140  H    0.036019
   141  H    0.033912
   142  H    0.014034
   143  H    0.016204
   144  H    0.037637
   145  H    0.014155
   146  H    0.013471
   147  H    0.019200
   148  H    0.003012
   149  H    0.009119
   150  H    0.015521
   151  H    0.028205
   152  H    0.044938
   153  H    0.008184
   154  H    0.052253
   155  H    0.035570
   156  H    0.043725
   157  H    0.049137
   158  H    0.053359
 Sum of Mulliken charges =  -0.00000

 Dipole moment (field-independent basis, Debye):
    X=              2.4475    Y=              4.0477    Z=             -7.3958  Tot=              8.7791
 Quadrupole moment (field-independent basis, Debye-Ang):
   XX=           -486.1226   YY=           -557.0962   ZZ=           -454.6020
   XY=            -22.7552   XZ=             28.0582   YZ=              0.8642

 Normal termination of Gaussian 16 at Fri Sep 10 05:59:06 2021.
