 Gaussian 16, Revision A.03,
 Gaussian 16:  ES64L-G16RevA.03 25-Dec-2016

 -----------------------------------
 #p cam-b3lyp/Def2SVP td=(nstates=5)
 -----------------------------------

 --------------------------------
 TDDFT excited states in gaussian
 --------------------------------
 Symbolic Z-matrix:
 Charge =  0 Multiplicity = 1

                         Standard orientation:
 ---------------------------------------------------------------------
 Center     Atomic      Atomic             Coordinates (Angstroms)
 Number     Number       Type             X           Y           Z
 ---------------------------------------------------------------------
      1         12           0       -3.724607    0.613447    1.085432
      2          6           0       -4.704486   -1.931178   -1.233388
      3          6           0       -3.907399   -1.756015    3.533963
      4          6           0       -3.306390    2.931388    3.208841
      5          6           0       -4.712652    2.957706   -1.296558
      6          7           0       -4.248736   -1.536687    1.031998
      7          6           0       -4.546988   -2.405272    0.070864
      8          6           0       -4.602393   -3.881053    0.567225
      9          6           0       -4.902253   -3.616445    2.110619
     10          6           0       -4.285339   -2.235364    2.244615
     11          6           0       -6.389733   -3.523545    2.435083
     12          6           0       -3.240129   -4.626880    0.367950
     13          6           0       -3.300382   -6.149503    0.520729
     14          1           0       -2.451899   -6.972567   -0.327793
     15          7           0       -3.152358    0.532419    2.974563
     16          6           0       -3.289974   -0.518702    3.818063
     17          6           0       -2.710483   -0.085070    5.107572
     18          6           0       -2.397033    1.366935    5.000228
     19          6           0       -2.970953    1.678269    3.716068
     20          6           0       -2.463022   -1.017490    6.253481
     21          6           0       -1.701361    2.324587    5.915147
     22          8           0       -1.740331    3.589452    5.733014
     23          6           0       -1.038311    1.741444    7.095549
     24          7           0       -4.174201    2.651890    1.069547
     25          6           0       -3.834363    3.441484    2.094259
     26          6           0       -3.997754    4.890888    1.744301
     27          6           0       -4.291361    4.936465    0.175393
     28          6           0       -4.328126    3.413348   -0.102155
     29          6           0       -5.109075    5.639088    2.493414
     30          6           0       -3.358692    5.821421   -0.689130
     31          6           0       -1.965198    5.234085   -0.706717
     32          7           0       -4.395374    0.562713   -0.978191
     33          6           0       -4.775026    1.657223   -1.768498
     34          6           0       -5.254710    1.116409   -3.053602
     35          6           0       -5.135550   -0.265006   -2.914534
     36          6           0       -4.639156   -0.569116   -1.614764
     37          6           0       -5.777846    1.878541   -4.135229
     38          6           0       -5.335322   -1.555990   -3.552741
     39          8           0       -5.645772   -1.924006   -4.686618
     40          6           0       -5.179405   -2.691120   -2.446848
     41          6           0       -4.274728   -3.753082   -3.009968
     42          8           0       -3.070295   -3.514819   -3.233438
     43          8           0       -4.903585   -4.937883   -2.973549
     44          6           0       -4.049786   -6.040319   -3.491059
     45          1           0       -4.158431   -2.352454    4.413272
     46          1           0       -3.073034    3.768117    3.870557
     47          1           0       -4.957248    3.632826   -2.118652
     48          1           0       -5.402667   -4.478044    0.129517
     49          1           0       -4.383523   -4.327191    2.753644
     50          1           0       -6.995979   -3.525927    1.529334
     51          1           0       -6.512187   -2.583071    2.972674
     52          1           0       -6.683715   -4.308032    3.132888
     53          1           0       -2.572917   -4.383709    1.194846
     54          1           0       -2.802320   -4.378666   -0.599541
     55          1           0       -4.328552   -6.511869    0.499122
     56          1           0       -2.943271   -6.407102    1.517883
     57          1           0       -2.946732   -1.980942    6.097501
     58          1           0       -2.969757   -0.596530    7.121652
     59          1           0       -1.400256   -1.131532    6.467620
     60          1           0       -1.776068    1.209402    7.696546
     61          1           0       -0.518664    2.564059    7.585570
     62          1           0       -0.317641    0.994031    6.762447
     63          1           0       -3.085968    5.448866    1.953428
     64          1           0       -5.291453    5.311791   -0.042826
     65          1           0       -4.757006    6.516342    3.036717
     66          1           0       -5.597243    4.933199    3.164759
     67          1           0       -5.944281    5.959333    1.871086
     68          1           0       -3.280337    6.820399   -0.261521
     69          1           0       -3.699137    5.927366   -1.719239
     70          1           0       -1.526699    5.620124    0.212806
     71          1           0       -1.414838    5.586548   -1.579692
     72          1           0       -1.990192    4.147293   -0.624589
     73          1           0       -5.336931    1.464090   -5.041757
     74          1           0       -5.539007    2.936231   -4.026359
     75          1           0       -6.843592    1.677810   -4.026839
     76          1           0       -6.180273   -3.071137   -2.244429
     77          1           0       -4.603741   -6.524932   -4.295123
     78          1           0       -3.772747   -6.648212   -2.629595
     79          1           0       -3.142700   -5.741080   -4.017357
     80         12           0        3.855509    0.503176   -1.291769
     81          6           0        4.353157   -2.123639    1.102231
     82          6           0        3.794269    2.680518    1.333118
     83          6           0        2.970125    2.773291   -3.324039
     84          6           0        2.827371   -1.941380   -3.552913
     85          7           0        4.059182    0.197423    0.889349
     86          6           0        4.306513   -0.837140    1.678570
     87          6           0        4.595327   -0.463503    3.157272
     88          6           0        3.833834    0.949669    3.201358
     89          6           0        3.927759    1.324135    1.723653
     90          6           0        2.364764    0.830389    3.571415
     91          6           0        6.129247   -0.298602    3.443469
     92          6           0        6.504089   -0.239091    4.925937
     93          1           0        7.762539   -0.846082    5.350583
     94          7           0        3.922557    2.479082   -1.118900
     95          6           0        3.912461    3.196732    0.023968
     96          6           0        3.955949    4.608565   -0.387122
     97          6           0        3.826170    4.670036   -1.868371
     98          6           0        3.540790    3.280742   -2.165852
     99          6           0        4.187686    5.731437    0.581849
    100          6           0        3.927800    5.795512   -2.852842
    101          8           0        3.544281    5.663285   -4.068670
    102          6           0        4.402283    7.084421   -2.328372
    103          7           0        2.820849    0.456538   -3.094443
    104          6           0        2.615141    1.580768   -3.802770
    105          6           0        2.097288    1.266829   -5.186127
    106          6           0        2.227699   -0.319254   -5.343982
    107          6           0        2.737438   -0.673264   -3.929684
    108          6           0        0.655711    1.689290   -5.468533
    109          6           0        3.026394   -0.841210   -6.569678
    110          6           0        4.487401   -0.480683   -6.425225
    111          7           0        3.795801   -1.656271   -1.327284
    112          6           0        3.302663   -2.479013   -2.363614
    113          6           0        3.366546   -3.873519   -1.880162
    114          6           0        3.874937   -3.762473   -0.577207
    115          6           0        4.092228   -2.393709   -0.262959
    116          6           0        2.939009   -5.024194   -2.600766
    117          6           0        4.267186   -4.491132    0.607651
    118          8           0        4.384224   -5.681334    0.896538
    119          6           0        4.475286   -3.453299    1.793401
    120          6           0        5.780496   -3.774808    2.468358
    121          8           0        6.856638   -3.641260    1.859505
    122          8           0        5.560174   -3.976511    3.780285
    123          6           0        6.826820   -4.287814    4.494793
    124          1           0        3.532515    3.416177    2.094155
    125          1           0        2.749027    3.507971   -4.101760
    126          1           0        2.617115   -2.768968   -4.233780
    127          1           0        4.167852   -1.139188    3.888354
    128          1           0        4.372317    1.669632    3.812127
    129          1           0        2.046022   -0.199805    3.628493
    130          1           0        1.822219    1.351748    2.793682
    131          1           0        2.163695    1.376825    4.497326
    132          1           0        6.446389    0.704056    3.129077
    133          1           0        6.692537   -1.072378    2.959105
    134          1           0        5.681421   -0.567692    5.572616
    135          1           0        6.661192    0.806322    5.202448
    136          1           0        4.081537    5.394805    1.620502
    137          1           0        3.370094    6.447147    0.443373
    138          1           0        5.137687    6.243305    0.414016
    139          1           0        3.740688    7.415650   -1.531479
    140          1           0        4.492690    7.738308   -3.197938
    141          1           0        5.389499    6.936248   -1.876629
    142          1           0        2.704087    1.746512   -5.944278
    143          1           0        1.244473   -0.800064   -5.453134
    144          1           0        0.561392    2.363801   -6.340444
    145          1           0        0.257351    2.159416   -4.579251
    146          1           0       -0.042660    0.869737   -5.629190
    147          1           0        2.676069   -0.356516   -7.484287
    148          1           0        2.937976   -1.912187   -6.718590
    149          1           0        4.524979    0.549109   -6.792913
    150          1           0        5.106204   -1.139105   -7.031524
    151          1           0        4.786582   -0.465316   -5.370751
    152          1           0        3.697801   -5.781733   -2.456287
    153          1           0        2.794300   -4.801497   -3.655864
    154          1           0        1.994143   -5.233027   -2.091961
    155          1           0        3.627372   -3.556424    2.471614
    156          1           0        6.677009   -5.241791    5.009742
    157          1           0        7.039743   -3.403535    5.124438
    158          1           0        7.700871   -4.507362    3.892887
 ---------------------------------------------------------------------

 SCF Done:  E(RCAM-B3LYP) =  -4069.81273085     A.U. after   19 cycles

 Excitation energies and oscillator strengths:

 Excited State   1:      Singlet-A      1.6665 eV  743.99 nm  f=0.3187  <S**2>=0.000
     310 -> 316       -0.14197
     311 -> 313       -0.38208
     312 -> 314        0.56941
 This state for optimization and/or second-order correction.
 Total Energy, E(TD-HF/TD-DFT) =  -4069.75148919
 Copying the excited state density for this state as the 1-particle RhoCI density.

 Excited State   2:      Singlet-A      1.6731 eV  741.06 nm  f=0.3253  <S**2>=0.000
     309 -> 315       -0.14316
     311 -> 313        0.56907
     312 -> 314        0.38236

 Excited State   3:      Singlet-A      2.1831 eV  567.91 nm  f=0.1023  <S**2>=0.000
     309 -> 313        0.12225
     310 -> 314        0.63094
     312 -> 316        0.26648

 Excited State   4:      Singlet-A      2.1893 eV  566.31 nm  f=0.0958  <S**2>=0.000
     309 -> 313        0.62937
     310 -> 314       -0.12197
     311 -> 315        0.27005

 Excited State   5:      Singlet-A      2.2330 eV  555.23 nm  f=0.0000  <S**2>=0.000
     312 -> 313        0.70695

 The electronic state is 1-A.
 Alpha  occ. eigenvalues --  -46.87930 -46.87418 -19.26412 -19.26322 -19.19177
 Alpha  occ. eigenvalues --  -19.19096 -19.19077 -19.18532 -19.18332 -19.17911
 Alpha  occ. eigenvalues --  -14.42570 -14.42269 -14.41582 -14.41082 -14.39552
 Alpha  occ. eigenvalues --  -14.39118 -14.38724 -14.38359 -10.39231 -10.39021
 Alpha  occ. eigenvalues --  -10.35716 -10.35214 -10.34547 -10.34091 -10.31786
 Alpha  occ. eigenvalues --  -10.31764 -10.31512 -10.31088 -10.31036 -10.30831
 Alpha  occ. eigenvalues --  -10.30700 -10.30664 -10.30350 -10.30151 -10.30117
 Alpha  occ. eigenvalues --  -10.30059 -10.29824 -10.29791 -10.29602 -10.29410
 Alpha  occ. eigenvalues --  -10.29179 -10.29165 -10.28807 -10.28617 -10.28605
 Alpha  occ. eigenvalues --  -10.28514 -10.28471 -10.28195 -10.28178 -10.27995
 Alpha  occ. eigenvalues --  -10.27950 -10.27847 -10.27781 -10.27759 -10.27645
 Alpha  occ. eigenvalues --  -10.27614 -10.27590 -10.27538 -10.27420 -10.27297
 Alpha  occ. eigenvalues --  -10.27268 -10.27246 -10.27239 -10.27064 -10.26983
 Alpha  occ. eigenvalues --  -10.26937 -10.26739 -10.26708 -10.26602 -10.26294
 Alpha  occ. eigenvalues --  -10.26273 -10.26255 -10.26147 -10.25979 -10.25915
 Alpha  occ. eigenvalues --  -10.25746 -10.25615 -10.25574 -10.25574 -10.24989
 Alpha  occ. eigenvalues --  -10.24940 -10.24914 -10.24722 -10.24658 -10.24438
 Alpha  occ. eigenvalues --  -10.24412  -3.16672  -3.16168  -1.91553  -1.91140
 Alpha  occ. eigenvalues --   -1.91051  -1.90983  -1.90639  -1.90476  -1.16766
 Alpha  occ. eigenvalues --   -1.16606  -1.08788  -1.08531  -1.07487  -1.06882
 Alpha  occ. eigenvalues --   -1.06795  -1.06789  -1.04705  -1.04278  -1.03895
 Alpha  occ. eigenvalues --   -1.03419  -1.03379  -1.02771  -1.02551  -1.01859
 Alpha  occ. eigenvalues --   -0.92110  -0.91787  -0.89641  -0.89252  -0.89196
 Alpha  occ. eigenvalues --   -0.88994  -0.88411  -0.88013  -0.87886  -0.87785
 Alpha  occ. eigenvalues --   -0.87553  -0.87466  -0.87440  -0.86907  -0.85070
 Alpha  occ. eigenvalues --   -0.84828  -0.84053  -0.83559  -0.83187  -0.82762
 Alpha  occ. eigenvalues --   -0.82710  -0.82476  -0.81708  -0.81447  -0.80735
 Alpha  occ. eigenvalues --   -0.80260  -0.78962  -0.78408  -0.77329  -0.77018
 Alpha  occ. eigenvalues --   -0.76949  -0.76689  -0.76026  -0.75672  -0.75021
 Alpha  occ. eigenvalues --   -0.74489  -0.72907  -0.72451  -0.71795  -0.71337
 Alpha  occ. eigenvalues --   -0.70004  -0.69413  -0.68981  -0.68653  -0.67796
 Alpha  occ. eigenvalues --   -0.67385  -0.67308  -0.67051  -0.65373  -0.65114
 Alpha  occ. eigenvalues --   -0.64981  -0.64732  -0.64550  -0.64456  -0.64391
 Alpha  occ. eigenvalues --   -0.63895  -0.62426  -0.62120  -0.60616  -0.60098
 Alpha  occ. eigenvalues --   -0.59899  -0.59625  -0.59119  -0.58751  -0.58642
 Alpha  occ. eigenvalues --   -0.58205  -0.57726  -0.57457  -0.57417  -0.56983
 Alpha  occ. eigenvalues --   -0.56458  -0.56095  -0.55999  -0.55756  -0.55690
 Alpha  occ. eigenvalues --   -0.55464  -0.55290  -0.54993  -0.54646  -0.54237
 Alpha  occ. eigenvalues --   -0.53967  -0.53774  -0.53469  -0.53351  -0.53064
 Alpha  occ. eigenvalues --   -0.53009  -0.52960  -0.52908  -0.52732  -0.52536
 Alpha  occ. eigenvalues --   -0.52499  -0.52075  -0.52058  -0.51727  -0.51633
 Alpha  occ. eigenvalues --   -0.51509  -0.51316  -0.50996  -0.50787  -0.50270
 Alpha  occ. eigenvalues --   -0.50147  -0.50098  -0.49798  -0.49648  -0.49547
 Alpha  occ. eigenvalues --   -0.49365  -0.49310  -0.49187  -0.49038  -0.48934
 Alpha  occ. eigenvalues --   -0.48719  -0.48656  -0.48589  -0.48396  -0.48170
 Alpha  occ. eigenvalues --   -0.48055  -0.47825  -0.47444  -0.47383  -0.46910
 Alpha  occ. eigenvalues --   -0.46873  -0.46637  -0.46495  -0.46485  -0.46355
 Alpha  occ. eigenvalues --   -0.46295  -0.46025  -0.45942  -0.45815  -0.45640
 Alpha  occ. eigenvalues --   -0.45329  -0.44896  -0.44725  -0.44647  -0.44354
 Alpha  occ. eigenvalues --   -0.44278  -0.44274  -0.44171  -0.44168  -0.43957
 Alpha  occ. eigenvalues --   -0.43831  -0.43773  -0.43627  -0.43487  -0.43401
 Alpha  occ. eigenvalues --   -0.43180  -0.43155  -0.42833  -0.42815  -0.42765
 Alpha  occ. eigenvalues --   -0.42673  -0.42260  -0.42105  -0.41841  -0.41724
 Alpha  occ. eigenvalues --   -0.41609  -0.41468  -0.41261  -0.41260  -0.41053
 Alpha  occ. eigenvalues --   -0.40934  -0.40777  -0.40679  -0.40563  -0.40512
 Alpha  occ. eigenvalues --   -0.40267  -0.40175  -0.40114  -0.39531  -0.39073
 Alpha  occ. eigenvalues --   -0.38575  -0.38046  -0.37808  -0.37511  -0.37439
 Alpha  occ. eigenvalues --   -0.37346  -0.37025  -0.36956  -0.36846  -0.36659
 Alpha  occ. eigenvalues --   -0.36314  -0.35952  -0.34419  -0.34020  -0.33929
 Alpha  occ. eigenvalues --   -0.33761  -0.33328  -0.32923  -0.31603  -0.31175
 Alpha  occ. eigenvalues --   -0.31088  -0.30741  -0.30186  -0.29820  -0.29623
 Alpha  occ. eigenvalues --   -0.29476  -0.29108  -0.28989  -0.24214  -0.23787
 Alpha  occ. eigenvalues --   -0.21266  -0.20868
 Alpha virt. eigenvalues --   -0.08929  -0.08557  -0.01898  -0.01428  -0.00248
 Alpha virt. eigenvalues --    0.00161   0.02037   0.02336   0.02556   0.03588
 Alpha virt. eigenvalues --    0.04627   0.04943   0.04950   0.05249   0.06123

 Mulliken charges:
               1
     1  Mg   0.838982
     2  C   -0.002795
     3  C   -0.093394
     4  C   -0.046672
     5  C   -0.063664
     6  N   -0.256914
     7  C   -0.051712
     8  C   -0.014248
     9  C   -0.087169
    10  C    0.046536
    11  C    0.104728
    12  C    0.053205
    13  C   -0.072707
    14  H    0.037983
    15  N   -0.433093
    16  C    0.168120
    17  C   -0.177346
    18  C   -0.004859
    19  C    0.148455
    20  C    0.109913
    21  C    0.010516
    22  O   -0.250928
    23  C    0.061879
    24  N   -0.341306
    25  C    0.041763
    26  C   -0.027897
    27  C   -0.024022
    28  C    0.075361
    29  C    0.076212
    30  C    0.035038
    31  C   -0.004865
    32  N   -0.310568
    33  C    0.080786
    34  C   -0.170094
    35  C    0.007908
    36  C    0.083185
    37  C    0.127457
    38  C    0.045449
    39  O   -0.188543
    40  C   -0.005163
    41  C    0.213114
    42  O   -0.258521
    43  O   -0.304332
    44  C    0.157920
    45  H   -0.017132
    46  H   -0.017739
    47  H   -0.040930
    48  H    0.001071
    49  H   -0.002997
    50  H    0.025436
    51  H    0.016187
    52  H    0.017216
    53  H    0.012440
    54  H    0.043289
    55  H    0.017452
    56  H    0.019653
    57  H    0.007066
    58  H    0.026925
    59  H    0.038601
    60  H    0.038711
    61  H    0.034202
    62  H    0.030030
    63  H    0.015204
    64  H    0.009707
    65  H    0.022675
    66  H    0.012665
    67  H    0.005177
    68  H    0.005699
    69  H    0.005757
    70  H    0.005393
    71  H    0.022823
    72  H    0.029344
    73  H    0.046918
    74  H    0.009909
    75  H    0.046428
    76  H    0.035681
    77  H    0.043228
    78  H    0.047655
    79  H    0.052202
    80  Mg   0.837243
    81  C   -0.017507
    82  C   -0.088561
    83  C   -0.045789
    84  C   -0.058305
    85  N   -0.254656
    86  C   -0.050242
    87  C   -0.014810
    88  C   -0.091122
    89  C    0.044703
    90  C    0.112824
    91  C    0.062742
    92  C   -0.077358
    93  H    0.034316
    94  N   -0.423491
    95  C    0.162482
    96  C   -0.174499
    97  C   -0.008415
    98  C    0.152274
    99  C    0.099378
   100  C    0.014705
   101  O   -0.253772
   102  C    0.061399
   103  N   -0.350155
   104  C    0.038327
   105  C   -0.020675
   106  C   -0.036257
   107  C    0.088848
   108  C    0.071961
   109  C    0.034420
   110  C   -0.007451
   111  N   -0.324362
   112  C    0.077650
   113  C   -0.161566
   114  C    0.001092
   115  C    0.096699
   116  C    0.132284
   117  C    0.041684
   118  O   -0.189887
   119  C    0.001103
   120  C    0.211149
   121  O   -0.250788
   122  O   -0.306376
   123  C    0.152129
   124  H   -0.017828
   125  H   -0.016032
   126  H   -0.037787
   127  H   -0.003180
   128  H   -0.004309
   129  H    0.020022
   130  H    0.018566
   131  H    0.016090
   132  H    0.014393
   133  H    0.037568
   134  H    0.019039
   135  H    0.019906
   136  H    0.009661
   137  H    0.025664
   138  H    0.039014
   139  H    0.037667
   140  H    0.035657
   141  H    0.033938
   142  H    0.013231
   143  H    0.020962
   144  H    0.022882
   145  H    0.010666
   146  H    0.013439
   147  H    0.006470
   148  H    0.004310
   149  H    0.010248
   150  H    0.016973
   151  H    0.029233
   152  H    0.044143
   153  H    0.009584
   154  H    0.048270
   155  H    0.032633
   156  H    0.042917
   157  H    0.049244
   158  H    0.053740
 Sum of Mulliken charges =  -0.00000

 Dipole moment (field-independent basis, Debye):
    X=             -2.4729    Y=              1.7689    Z=              5.9870  Tot=              6.7148
 Quadrupole moment (field-independent basis, Debye-Ang):
   XX=           -520.5155   YY=           -502.5772   ZZ=           -496.7701
   XY=             24.7789   XZ=             -1.7745   YZ=             -6.3649

 Normal termination of Gaussian 16 at Thu Sep  9 01:17:36 2021.
