 Gaussian 16, Revision A.03,
 Gaussian 16:  ES64L-G16RevA.03 25-Dec-2016

 -----------------------------------
 #p cam-b3lyp/Def2SVP td=(nstates=5)
 -----------------------------------

 --------------------------------
 TDDFT excited states in gaussian
 --------------------------------
 Symbolic Z-matrix:
 Charge =  0 Multiplicity = 1

                         Standard orientation:
 ---------------------------------------------------------------------
 Center     Atomic      Atomic             Coordinates (Angstroms)
 Number     Number       Type             X           Y           Z
 ---------------------------------------------------------------------
      1         12           0       15.772621    0.800387    0.158682
      2          6           0       16.158819   -2.753527   -0.022320
      3          6           0       16.659231    0.915089   -3.134315
      4          6           0       15.880822    3.959773    0.410068
      5          6           0       16.032383    0.504163    3.621403
      6          7           0       16.314963   -0.785934   -1.287034
      7          6           0       16.366615   -2.113654   -1.246260
      8          6           0       16.587938   -2.766528   -2.643451
      9          6           0       17.282449   -1.539357   -3.387564
     10          6           0       16.690695   -0.398467   -2.578787
     11          6           0       18.799889   -1.514130   -3.235109
     12          6           0       15.240235   -3.166294   -3.333099
     13          6           0       15.375641   -4.097166   -4.541608
     14          1           0       14.351475   -5.106009   -4.766705
     15          7           0       15.727518    2.198879   -1.235963
     16          6           0       16.110505    2.066139   -2.528629
     17          6           0       15.886005    3.385410   -3.157759
     18          6           0       15.520488    4.346864   -2.080681
     19          6           0       15.723153    3.535931   -0.907356
     20          6           0       15.975873    3.618677   -4.634669
     21          6           0       15.071480    5.773734   -2.104475
     22          8           0       15.030023    6.491455   -1.047247
     23          6           0       14.761780    6.342971   -3.428521
     24          7           0       16.152559    2.085364    1.759343
     25          6           0       16.079712    3.412649    1.611044
     26          6           0       16.108893    4.112667    2.937340
     27          6           0       15.971876    2.969446    4.043698
     28          6           0       15.969799    1.735059    3.108522
     29          6           0       17.361546    4.952294    3.223519
     30          6           0       14.821302    3.118834    5.070480
     31          6           0       13.488202    2.961645    4.373893
     32          7           0       15.869226   -0.829662    1.588596
     33          6           0       15.997740   -0.723265    2.981017
     34          6           0       16.129835   -2.093757    3.508625
     35          6           0       16.085340   -2.906497    2.377555
     36          6           0       15.961358   -2.093568    1.214771
     37          6           0       16.326806   -2.446115    4.872986
     38          6           0       16.138460   -4.271170    1.878854
     39          8           0       16.143728   -5.386186    2.402499
     40          6           0       16.310711   -4.220076    0.296594
     41          6           0       15.314327   -5.176312   -0.300182
     42          8           0       14.088583   -4.956817   -0.218096
     43          8           0       15.958362   -6.064955   -1.072241
     44          6           0       15.024142   -7.025175   -1.718279
     45          1           0       17.150120    1.094704   -4.092807
     46          1           0       15.812535    5.040301    0.552313
     47          1           0       16.032371    0.328850    4.698770
     48          1           0       17.256439   -3.627649   -2.641983
     49          1           0       16.971412   -1.466412   -4.429513
     50          1           0       19.142242   -2.272608   -2.531243
     51          1           0       19.038770   -0.516592   -2.865859
     52          1           0       19.288226   -1.599060   -4.206238
     53          1           0       14.812312   -2.290366   -3.820638
     54          1           0       14.554228   -3.610442   -2.610983
     55          1           0       16.369135   -4.543708   -4.591418
     56          1           0       15.303953   -3.494219   -5.446879
     57          1           0       16.423395    2.768469   -5.147910
     58          1           0       16.685698    4.431669   -4.785999
     59          1           0       15.011886    3.887037   -5.067155
     60          1           0       15.645751    6.279139   -4.063399
     61          1           0       14.372182    7.343142   -3.242181
     62          1           0       13.996513    5.730340   -3.906014
     63          1           0       15.272882    4.804310    3.032949
     64          1           0       16.868116    2.886116    4.658908
     65          1           0       17.146306    5.997113    3.448752
     66          1           0       18.028013    4.866417    2.365768
     67          1           0       17.992386    4.572892    4.026957
     68          1           0       14.835957    4.113704    5.514287
     69          1           0       14.871781    2.392860    5.882062
     70          1           0       13.301918    3.958893    3.976870
     71          1           0       12.716486    2.675862    5.089431
     72          1           0       13.560311    2.281253    3.525157
     73          1           0       15.669999   -3.294031    5.066925
     74          1           0       16.100358   -1.610215    5.534496
     75          1           0       17.387318   -2.697343    4.865580
     76          1           0       17.338124   -4.513555    0.083486
     77          1           0       15.354845   -8.027468   -1.445736
     78          1           0       15.001791   -6.770424   -2.777999
     79          1           0       14.002567   -7.034660   -1.336659
     80         12           0      -15.943231   -0.824952    0.010070
     81          6           0      -15.915488    2.711837   -0.597697
     82          6           0      -15.116773   -0.124640    3.244440
     83          6           0      -15.518253   -3.935373    0.470626
     84          6           0      -15.635446   -1.278396   -3.431635
     85          7           0      -15.590132    1.085937    1.066525
     86          6           0      -15.668371    2.369204    0.748034
     87          6           0      -15.550337    3.339538    1.953887
     88          6           0      -14.745165    2.378838    2.957678
     89          6           0      -15.201297    1.024618    2.418516
     90          6           0      -13.236622    2.472243    2.799826
     91          6           0      -16.950363    3.738244    2.539528
     92          6           0      -16.927455    4.917585    3.514408
     93          1           0      -18.057951    5.841945    3.515321
     94          7           0      -15.881245   -1.877606    1.691334
     95          6           0      -15.546978   -1.429968    2.919818
     96          6           0      -15.636263   -2.596809    3.811264
     97          6           0      -15.890391   -3.804316    2.979358
     98          6           0      -15.749375   -3.243428    1.650602
     99          6           0      -15.563434   -2.485912    5.306528
    100          6           0      -16.195554   -5.230845    3.322985
    101          8           0      -16.144364   -6.161221    2.442873
    102          6           0      -16.464754   -5.520951    4.738921
    103          7           0      -15.411259   -2.379229   -1.264119
    104          6           0      -15.348602   -3.646756   -0.819818
    105          6           0      -15.218489   -4.620869   -1.966359
    106          6           0      -15.451003   -3.757383   -3.292225
    107          6           0      -15.593082   -2.355589   -2.659616
    108          6           0      -13.882207   -5.356250   -2.066090
    109          6           0      -16.559723   -4.245366   -4.264485
    110          6           0      -17.917780   -4.088247   -3.619205
    111          7           0      -15.984521    0.446708   -1.736123
    112          6           0      -15.809916    0.054364   -3.081365
    113          6           0      -15.804893    1.286106   -3.896969
    114          6           0      -15.955043    2.319356   -2.959760
    115          6           0      -16.026867    1.771603   -1.650453
    116          6           0      -15.625846    1.349000   -5.307678
    117          6           0      -16.058437    3.749553   -2.779382
    118          8           0      -16.146404    4.716350   -3.535229
    119          6           0      -15.910429    4.075584   -1.230770
    120          6           0      -17.009660    5.029011   -0.849697
    121          8           0      -18.199885    4.671080   -0.892654
    122          8           0      -16.467075    6.127240   -0.293033
    123          6           0      -17.518458    7.098112    0.111721
    124          1           0      -14.637278   -0.029021    4.219036
    125          1           0      -15.474827   -5.023094    0.562630
    126          1           0      -15.642461   -1.341477   -4.521883
    127          1           0      -14.977275    4.238184    1.759425
    128          1           0      -15.077542    2.512249    3.983880
    129          1           0      -12.957061    3.083764    1.954829
    130          1           0      -12.891794    1.455831    2.661846
    131          1           0      -12.781065    2.821273    3.730947
    132          1           0      -17.295885    2.943925    3.213636
    133          1           0      -17.651159    3.934405    1.751473
    134          1           0      -15.980260    5.468930    3.472181
    135          1           0      -16.964350    4.525884    4.533835
    136          1           0      -15.207132   -1.496767    5.619647
    137          1           0      -14.780172   -3.175001    5.640489
    138          1           0      -16.502448   -2.754696    5.795065
    139          1           0      -15.606870   -5.224464    5.337746
    140          1           0      -16.749070   -6.574472    4.772442
    141          1           0      -17.307369   -4.902948    5.068595
    142          1           0      -15.979780   -5.389164   -1.909349
    143          1           0      -14.550032   -3.727871   -3.922480
    144          1           0      -13.987957   -6.457479   -2.052378
    145          1           0      -13.248822   -5.024928   -1.253946
    146          1           0      -13.283570   -5.109659   -2.941325
    147          1           0      -16.437254   -5.310765   -4.474441
    148          1           0      -16.557287   -3.726964   -5.217501
    149          1           0      -18.006064   -4.990809   -3.007098
    150          1           0      -18.698815   -4.046426   -4.375696
    151          1           0      -17.934038   -3.227142   -2.941048
    152          1           0      -16.352530    2.057496   -5.682477
    153          1           0      -15.748956    0.370911   -5.768067
    154          1           0      -14.591254    1.698873   -5.357565
    155          1           0      -14.921347    4.510005   -1.080524
    156          1           0      -17.280711    8.048406   -0.376238
    157          1           0      -17.524871    7.087626    1.217889
    158          1           0      -18.526500    6.923230   -0.245657
 ---------------------------------------------------------------------

 SCF Done:  E(RCAM-B3LYP) =  -4069.81178707     A.U. after   19 cycles

 Excitation energies and oscillator strengths:

 Excited State   1:      Singlet-A      1.6753 eV  740.06 nm  f=0.2186  <S**2>=0.000
     310 -> 316        0.16879
     311 -> 314        0.15968
     312 -> 313        0.66721
     310 <- 316        0.10176
 This state for optimization and/or second-order correction.
 Total Energy, E(TD-HF/TD-DFT) =  -4069.75021971
 Copying the excited state density for this state as the 1-particle RhoCI density.

 Excited State   2:      Singlet-A      1.6801 eV  737.94 nm  f=0.5587  <S**2>=0.000
     309 -> 315        0.17079
     311 -> 314        0.66685
     312 -> 313       -0.15963
     309 <- 315        0.10225

 Excited State   3:      Singlet-A      2.1861 eV  567.14 nm  f=0.0952  <S**2>=0.000
     310 -> 313        0.64210
     312 -> 316       -0.27296

 Excited State   4:      Singlet-A      2.1926 eV  565.47 nm  f=0.1049  <S**2>=0.000
     309 -> 314        0.64032
     311 -> 315       -0.27815

 Excited State   5:      Singlet-A      3.0658 eV  404.41 nm  f=0.0000  <S**2>=0.000
     311 -> 313        0.70711

 The electronic state is 1-A.
 Alpha  occ. eigenvalues --  -46.87796 -46.87660 -19.26352 -19.26283 -19.19163
 Alpha  occ. eigenvalues --  -19.19019 -19.18813 -19.18711 -19.18170 -19.18053
 Alpha  occ. eigenvalues --  -14.42497 -14.42449 -14.41449 -14.41359 -14.39402
 Alpha  occ. eigenvalues --  -14.39352 -14.38600 -14.38587 -10.39093 -10.39079
 Alpha  occ. eigenvalues --  -10.35446 -10.35388 -10.34389 -10.34231 -10.31759
 Alpha  occ. eigenvalues --  -10.31677 -10.31404 -10.31309 -10.31022 -10.30907
 Alpha  occ. eigenvalues --  -10.30570 -10.30507 -10.30398 -10.30361 -10.30207
 Alpha  occ. eigenvalues --  -10.30141 -10.29921 -10.29895 -10.29630 -10.29436
 Alpha  occ. eigenvalues --  -10.29401 -10.29254 -10.28746 -10.28718 -10.28653
 Alpha  occ. eigenvalues --  -10.28533 -10.28405 -10.28364 -10.28139 -10.28114
 Alpha  occ. eigenvalues --  -10.28001 -10.27793 -10.27726 -10.27668 -10.27583
 Alpha  occ. eigenvalues --  -10.27519 -10.27504 -10.27484 -10.27477 -10.27466
 Alpha  occ. eigenvalues --  -10.27461 -10.27452 -10.27403 -10.27376 -10.27157
 Alpha  occ. eigenvalues --  -10.27052 -10.26701 -10.26692 -10.26409 -10.26405
 Alpha  occ. eigenvalues --  -10.26231 -10.26189 -10.26140 -10.26022 -10.26020
 Alpha  occ. eigenvalues --  -10.25935 -10.25856 -10.25846 -10.25438 -10.25396
 Alpha  occ. eigenvalues --  -10.24874 -10.24832 -10.24788 -10.24734 -10.24693
 Alpha  occ. eigenvalues --  -10.24690  -3.16539  -3.16410  -1.91421  -1.91293
 Alpha  occ. eigenvalues --   -1.91007  -1.90881  -1.90849  -1.90718  -1.16646
 Alpha  occ. eigenvalues --   -1.16631  -1.08660  -1.08627  -1.07214  -1.06964
 Alpha  occ. eigenvalues --   -1.06948  -1.06641  -1.04580  -1.04495  -1.03760
 Alpha  occ. eigenvalues --   -1.03663  -1.03233  -1.03039  -1.02411  -1.02111
 Alpha  occ. eigenvalues --   -0.91988  -0.91972  -0.89521  -0.89495  -0.89185
 Alpha  occ. eigenvalues --   -0.89150  -0.88288  -0.88221  -0.87871  -0.87796
 Alpha  occ. eigenvalues --   -0.87684  -0.87672  -0.87272  -0.87118  -0.84999
 Alpha  occ. eigenvalues --   -0.84980  -0.83938  -0.83877  -0.82965  -0.82929
 Alpha  occ. eigenvalues --   -0.82651  -0.82647  -0.81598  -0.81585  -0.80595
 Alpha  occ. eigenvalues --   -0.80443  -0.78796  -0.78635  -0.77218  -0.77144
 Alpha  occ. eigenvalues --   -0.76933  -0.76899  -0.75922  -0.75839  -0.74899
 Alpha  occ. eigenvalues --   -0.74803  -0.72774  -0.72700  -0.71672  -0.71581
 Alpha  occ. eigenvalues --   -0.69910  -0.69759  -0.68871  -0.68827  -0.67640
 Alpha  occ. eigenvalues --   -0.67602  -0.67217  -0.67199  -0.65285  -0.65271
 Alpha  occ. eigenvalues --   -0.64853  -0.64771  -0.64654  -0.64620  -0.64270
 Alpha  occ. eigenvalues --   -0.64205  -0.62297  -0.62280  -0.60441  -0.60339
 Alpha  occ. eigenvalues --   -0.59802  -0.59796  -0.58993  -0.58987  -0.58503
 Alpha  occ. eigenvalues --   -0.58426  -0.57584  -0.57556  -0.57309  -0.57237
 Alpha  occ. eigenvalues --   -0.56309  -0.56205  -0.55977  -0.55887  -0.55519
 Alpha  occ. eigenvalues --   -0.55451  -0.55340  -0.55249  -0.54524  -0.54489
 Alpha  occ. eigenvalues --   -0.53911  -0.53892  -0.53298  -0.53228  -0.53220
 Alpha  occ. eigenvalues --   -0.53141  -0.52914  -0.52903  -0.52753  -0.52665
 Alpha  occ. eigenvalues --   -0.52441  -0.52403  -0.51916  -0.51888  -0.51657
 Alpha  occ. eigenvalues --   -0.51614  -0.51202  -0.51196  -0.50569  -0.50472
 Alpha  occ. eigenvalues --   -0.50032  -0.49978  -0.49916  -0.49867  -0.49513
 Alpha  occ. eigenvalues --   -0.49486  -0.49214  -0.49202  -0.49104  -0.49094
 Alpha  occ. eigenvalues --   -0.48592  -0.48559  -0.48462  -0.48444  -0.48377
 Alpha  occ. eigenvalues --   -0.48337  -0.47694  -0.47594  -0.47296  -0.47117
 Alpha  occ. eigenvalues --   -0.46797  -0.46709  -0.46553  -0.46553  -0.46359
 Alpha  occ. eigenvalues --   -0.46271  -0.46163  -0.46087  -0.45824  -0.45822
 Alpha  occ. eigenvalues --   -0.45209  -0.45202  -0.44577  -0.44515  -0.44505
 Alpha  occ. eigenvalues --   -0.44476  -0.44145  -0.44127  -0.44086  -0.44078
 Alpha  occ. eigenvalues --   -0.44018  -0.43938  -0.43555  -0.43494  -0.43386
 Alpha  occ. eigenvalues --   -0.43385  -0.43027  -0.42932  -0.42902  -0.42699
 Alpha  occ. eigenvalues --   -0.42656  -0.42554  -0.42010  -0.41965  -0.41704
 Alpha  occ. eigenvalues --   -0.41670  -0.41532  -0.41458  -0.41140  -0.40989
 Alpha  occ. eigenvalues --   -0.40868  -0.40821  -0.40721  -0.40697  -0.40572
 Alpha  occ. eigenvalues --   -0.40494  -0.40231  -0.40225  -0.39444  -0.39427
 Alpha  occ. eigenvalues --   -0.38470  -0.38351  -0.37746  -0.37654  -0.37321
 Alpha  occ. eigenvalues --   -0.37266  -0.37262  -0.37199  -0.36773  -0.36713
 Alpha  occ. eigenvalues --   -0.36218  -0.36192  -0.34286  -0.34254  -0.33864
 Alpha  occ. eigenvalues --   -0.33769  -0.33186  -0.33176  -0.31343  -0.31271
 Alpha  occ. eigenvalues --   -0.31035  -0.30973  -0.30029  -0.29958  -0.29448
 Alpha  occ. eigenvalues --   -0.29327  -0.29322  -0.29212  -0.24080  -0.24036
 Alpha  occ. eigenvalues --   -0.21127  -0.21117
 Alpha virt. eigenvalues --   -0.08792  -0.08774  -0.01749  -0.01684  -0.00056
 Alpha virt. eigenvalues --   -0.00028   0.02200   0.02206   0.03121   0.03225
 Alpha virt. eigenvalues --    0.04719   0.04730   0.05099   0.05163   0.06180

 Mulliken charges:
               1
     1  Mg   0.838692
     2  C   -0.002966
     3  C   -0.094097
     4  C   -0.045892
     5  C   -0.063979
     6  N   -0.256776
     7  C   -0.052467
     8  C   -0.014009
     9  C   -0.087009
    10  C    0.046325
    11  C    0.104812
    12  C    0.053465
    13  C   -0.071827
    14  H    0.036161
    15  N   -0.433153
    16  C    0.168439
    17  C   -0.177121
    18  C   -0.003994
    19  C    0.148740
    20  C    0.110162
    21  C    0.012292
    22  O   -0.249634
    23  C    0.062472
    24  N   -0.341139
    25  C    0.041256
    26  C   -0.028169
    27  C   -0.024010
    28  C    0.074850
    29  C    0.076184
    30  C    0.035173
    31  C   -0.004507
    32  N   -0.310445
    33  C    0.080391
    34  C   -0.169758
    35  C    0.008369
    36  C    0.082974
    37  C    0.127319
    38  C    0.046093
    39  O   -0.188473
    40  C   -0.005327
    41  C    0.212865
    42  O   -0.257105
    43  O   -0.304791
    44  C    0.157696
    45  H   -0.017564
    46  H   -0.016841
    47  H   -0.041540
    48  H    0.000940
    49  H   -0.003994
    50  H    0.025467
    51  H    0.016442
    52  H    0.016688
    53  H    0.011225
    54  H    0.044112
    55  H    0.017869
    56  H    0.017987
    57  H    0.005904
    58  H    0.026851
    59  H    0.039615
    60  H    0.037365
    61  H    0.035676
    62  H    0.031538
    63  H    0.016541
    64  H    0.009445
    65  H    0.023200
    66  H    0.012567
    67  H    0.004735
    68  H    0.006328
    69  H    0.004688
    70  H    0.008782
    71  H    0.018073
    72  H    0.029020
    73  H    0.047529
    74  H    0.009068
    75  H    0.046000
    76  H    0.035156
    77  H    0.042939
    78  H    0.046430
    79  H    0.053678
    80  Mg   0.837864
    81  C   -0.016838
    82  C   -0.087767
    83  C   -0.045507
    84  C   -0.064865
    85  N   -0.254583
    86  C   -0.049845
    87  C   -0.015084
    88  C   -0.090506
    89  C    0.045757
    90  C    0.114364
    91  C    0.062516
    92  C   -0.077912
    93  H    0.034888
    94  N   -0.423519
    95  C    0.162925
    96  C   -0.174569
    97  C   -0.007770
    98  C    0.152139
    99  C    0.099339
   100  C    0.015596
   101  O   -0.253143
   102  C    0.061190
   103  N   -0.350058
   104  C    0.037570
   105  C   -0.019867
   106  C   -0.034784
   107  C    0.088885
   108  C    0.073637
   109  C    0.034738
   110  C   -0.007686
   111  N   -0.324096
   112  C    0.078410
   113  C   -0.163159
   114  C    0.002225
   115  C    0.096200
   116  C    0.131487
   117  C    0.042363
   118  O   -0.187934
   119  C    0.000905
   120  C    0.211271
   121  O   -0.251023
   122  O   -0.305632
   123  C    0.152029
   124  H   -0.019581
   125  H   -0.015527
   126  H   -0.040496
   127  H   -0.000647
   128  H   -0.004293
   129  H    0.022452
   130  H    0.014463
   131  H    0.016350
   132  H    0.013926
   133  H    0.037660
   134  H    0.020801
   135  H    0.019624
   136  H    0.008800
   137  H    0.026243
   138  H    0.039827
   139  H    0.038314
   140  H    0.036440
   141  H    0.033887
   142  H    0.014408
   143  H    0.012409
   144  H    0.025178
   145  H    0.011699
   146  H    0.005681
   147  H    0.006268
   148  H    0.003615
   149  H    0.010952
   150  H    0.017908
   151  H    0.030111
   152  H    0.045970
   153  H    0.008488
   154  H    0.046917
   155  H    0.035028
   156  H    0.043892
   157  H    0.049517
   158  H    0.053569
 Sum of Mulliken charges =  -0.00000

 Dipole moment (field-independent basis, Debye):
    X=              3.9439    Y=              1.2072    Z=              0.1906  Tot=              4.1289
 Quadrupole moment (field-independent basis, Debye-Ang):
   XX=           -519.0462   YY=           -550.2586   ZZ=           -448.4030
   XY=             40.4810   XZ=           -126.5961   YZ=             47.0193

 Normal termination of Gaussian 16 at Sun Sep 12 13:17:49 2021.
