 Gaussian 16, Revision A.03,
 Gaussian 16:  ES64L-G16RevA.03 25-Dec-2016

 -----------------------------------
 #p cam-b3lyp/Def2SVP td=(nstates=5)
 -----------------------------------

 --------------------------------
 TDDFT excited states in gaussian
 --------------------------------
 Symbolic Z-matrix:
 Charge =  0 Multiplicity = 1

                         Standard orientation:
 ---------------------------------------------------------------------
 Center     Atomic      Atomic             Coordinates (Angstroms)
 Number     Number       Type             X           Y           Z
 ---------------------------------------------------------------------
      1         12           0        6.447038   -1.067056    0.059095
      2          6           0        7.187485    2.309038   -0.871464
      3          6           0        7.514154   -0.277456    3.202479
      4          6           0        6.231929   -4.145873    0.787957
      5          6           0        6.526267   -1.863461   -3.332825
      6          7           0        7.226932    0.811909    0.931965
      7          6           0        7.405036    2.050674    0.483735
      8          6           0        7.772248    3.066978    1.606079
      9          6           0        8.387381    2.053418    2.672055
     10          6           0        7.639953    0.794356    2.269512
     11          6           0        9.883273    1.814934    2.493348
     12          6           0        6.513651    3.803740    2.176034
     13          6           0        6.811254    5.035636    3.035813
     14          1           0        5.905499    6.172447    2.967863
     15          7           0        6.349744   -1.963801    1.816717
     16          6           0        6.820663   -1.489446    2.995067
     17          6           0        6.506951   -2.522961    4.005073
     18          6           0        5.985653   -3.718482    3.285995
     19          6           0        6.195557   -3.328441    1.915161
     20          6           0        6.662096   -2.306773    5.479163
     21          6           0        5.402130   -5.012130    3.759395
     22          8           0        5.227680   -6.006899    2.975446
     23          6           0        5.118456   -5.115880    5.202242
     24          7           0        6.603416   -2.810048   -1.078956
     25          6           0        6.410747   -4.013507   -0.528002
     26          6           0        6.292060   -5.080791   -1.575264
     27          6           0        6.200869   -4.318224   -2.975238
     28          6           0        6.375041   -2.866476   -2.464979
     29          6           0        7.437610   -6.101273   -1.623659
     30          6           0        4.981722   -4.642652   -3.874595
     31          6           0        3.714437   -4.135038   -3.223890
     32          7           0        6.615920    0.032492   -1.804642
     33          6           0        6.649730   -0.503902   -3.099946
     34          6           0        6.882717    0.619084   -4.026600
     35          6           0        6.985454    1.735688   -3.199264
     36          6           0        6.852891    1.331833   -1.839992
     37          6           0        7.030872    0.517847   -5.438065
     38          6           0        7.200966    3.172541   -3.145732
     39          8           0        7.283328    4.068969   -3.986640
     40          6           0        7.462004    3.583915   -1.629666
     41          6           0        6.601020    4.780331   -1.328661
     42          8           0        5.357024    4.683791   -1.305811
     43          8           0        7.373630    5.783695   -0.884952
     44          6           0        6.577744    6.991890   -0.540011
     45          1           0        8.041823   -0.211896    4.156003
     46          1           0        6.050384   -5.204186    0.986583
     47          1           0        6.478709   -2.023565   -4.411508
     48          1           0        8.520096    3.807468    1.321786
     49          1           0        8.133770    2.334238    3.694084
     50          1           0       10.254997    2.281891    1.581376
     51          1           0       10.001346    0.732377    2.442149
     52          1           0       10.434914    2.135023    3.377662
     53          1           0        6.032513    3.169632    2.920664
     54          1           0        5.832068    4.081793    1.371387
     55          1           0        7.844685    5.363118    2.918829
     56          1           0        6.735636    4.746811    4.084175
     57          1           0        7.220220   -1.396307    5.693859
     58          1           0        7.297208   -3.109368    5.853573
     59          1           0        5.704246   -2.322897    5.999350
     60          1           0        6.040919   -4.961450    5.762388
     61          1           0        4.622885   -6.075800    5.343005
     62          1           0        4.446475   -4.306485    5.489068
     63          1           0        5.388474   -5.671635   -1.430820
     64          1           0        7.062449   -4.525032   -3.610521
     65          1           0        7.108575   -7.134585   -1.510933
     66          1           0        8.159507   -5.834377   -0.852347
     67          1           0        8.053061   -6.055317   -2.521727
     68          1           0        4.872828   -5.720355   -3.991409
     69          1           0        5.053862   -4.206660   -4.871068
     70          1           0        3.456117   -4.938210   -2.534675
     71          1           0        2.932688   -3.995391   -3.971271
     72          1           0        3.903200   -3.242108   -2.627627
     73          1           0        6.449274    1.334719   -5.865185
     74          1           0        6.684873   -0.448492   -5.804231
     75          1           0        8.109328    0.640168   -5.537192
     76          1           0        8.524027    3.812162   -1.545206
     77          1           0        6.987493    7.821478   -1.116313
     78          1           0        6.594295    7.073939    0.546911
     79          1           0        5.540904    6.998786   -0.878028
     80         12           0       -6.615711    1.061556    0.265471
     81          6           0       -6.990914   -2.466385   -0.274816
     82          6           0       -5.738567    1.320146   -3.020619
     83          6           0       -5.842314    4.089692    0.812892
     84          6           0       -6.400842    0.375709    3.675618
     85          7           0       -6.426454   -0.449349   -1.338778
     86          6           0       -6.654293   -1.750008   -1.442265
     87          6           0       -6.591942   -2.300544   -2.892298
     88          6           0       -5.648687   -1.172341   -3.537501
     89          6           0       -5.978868   -0.012417   -2.600359
     90          6           0       -4.166411   -1.482178   -3.410168
     91          6           0       -8.001704   -2.333027   -3.580446
     92          6           0       -8.065553   -3.142094   -4.877780
     93          1           0       -9.287430   -3.884124   -5.175893
     94          7           0       -6.373499    2.573577   -0.996947
     95          6           0       -6.039535    2.498213   -2.302353
     96          6           0       -5.967384    3.887740   -2.780038
     97          6           0       -6.124427    4.794554   -1.610539
     98          6           0       -6.098111    3.833403   -0.526297
     99          6           0       -5.846333    4.243292   -4.233427
    100          6           0       -6.261157    6.281957   -1.487447
    101          8           0       -6.146461    6.877523   -0.358299
    102          6           0       -6.440235    7.029775   -2.740517
    103          7           0       -5.972652    2.066952    1.967815
    104          6           0       -5.756886    3.393951    1.946893
    105          6           0       -5.569902    3.938282    3.343008
    106          6           0       -5.946913    2.735422    4.327182
    107          6           0       -6.212314    1.628267    3.283552
    108          6           0       -4.167801    4.447691    3.676162
    109          6           0       -7.035560    3.017552    5.398591
    110          6           0       -8.375384    3.226703    4.730363
    111          7           0       -6.863405   -0.679640    1.520426
    112          6           0       -6.702476   -0.751116    2.921522
    113          6           0       -6.862217   -2.168447    3.306355
    114          6           0       -7.083902   -2.831809    2.090094
    115          6           0       -7.043661   -1.897033    1.020484
    116          6           0       -6.748184   -2.690122    4.625816
    117          6           0       -7.332224   -4.111836    1.466743
    118          8           0       -7.553593   -5.250026    1.878129
    119          6           0       -7.157331   -3.950979   -0.104859
    120          6           0       -8.335854   -4.604887   -0.772696
    121          8           0       -9.481749   -4.144931   -0.624461
    122          8           0       -7.891719   -5.527863   -1.645187
    123          6           0       -9.023615   -6.196269   -2.340788
    124          1           0       -5.232978    1.480531   -3.973272
    125          1           0       -5.679149    5.139021    1.069338
    126          1           0       -6.445215    0.094444    4.729940
    127          1           0       -6.126590   -3.274134   -2.988938
    128          1           0       -5.951593   -0.938671   -4.554857
    129          1           0       -3.988285   -2.355349   -2.800267
    130          1           0       -3.720751   -0.606554   -2.956613
    131          1           0       -3.713455   -1.571580   -4.401719
    132          1           0       -8.232725   -1.333522   -3.970776
    133          1           0       -8.750795   -2.684786   -2.897977
    134          1           0       -7.185233   -3.783322   -5.007423
    135          1           0       -8.019039   -2.449241   -5.721472
    136          1           0       -5.585452    3.368146   -4.841256
    137          1           0       -4.981014    4.908082   -4.328991
    138          1           0       -6.730671    4.757006   -4.616460
    139          1           0       -5.595427    6.839848   -3.398307
    140          1           0       -6.608684    8.065986   -2.440912
    141          1           0       -7.330052    6.646673   -3.252452
    142          1           0       -6.241753    4.767436    3.528008
    143          1           0       -5.080527    2.407236    4.920065
    144          1           0       -4.154561    5.502266    4.010467
    145          1           0       -3.541102    4.317388    2.803912
    146          1           0       -3.634896    3.872648    4.431498
    147          1           0       -6.808481    3.942213    5.934866
    148          1           0       -7.127165    2.229990    6.139093
    149          1           0       -8.341794    4.279453    4.434248
    150          1           0       -9.186394    3.039520    5.431264
    151          1           0       -8.456130    2.629189    3.814887
    152          1           0       -7.561035   -3.392462    4.754246
    153          1           0       -6.784564   -1.898168    5.370976
    154          1           0       -5.759819   -3.153781    4.567490
    155          1           0       -6.215102   -4.426455   -0.379993
    156          1           0       -8.908791   -7.272196   -2.176832
    157          1           0       -8.984071   -5.839126   -3.387038
    158          1           0      -10.020814   -6.028207   -1.951192
 ---------------------------------------------------------------------

 SCF Done:  E(RCAM-B3LYP) =  -4069.81181921     A.U. after   19 cycles

 Excitation energies and oscillator strengths:

 Excited State   1:      Singlet-A      1.6666 eV  743.94 nm  f=0.0425  <S**2>=0.000
     309 -> 315        0.10924
     310 -> 316        0.13245
     311 -> 313        0.43531
     312 -> 314        0.53089
 This state for optimization and/or second-order correction.
 Total Energy, E(TD-HF/TD-DFT) =  -4069.75057286
 Copying the excited state density for this state as the 1-particle RhoCI density.

 Excited State   2:      Singlet-A      1.6888 eV  734.17 nm  f=0.6982  <S**2>=0.000
     309 -> 315        0.13751
     310 -> 316       -0.11227
     311 -> 313        0.52980
     312 -> 314       -0.43451

 Excited State   3:      Singlet-A      2.1858 eV  567.23 nm  f=0.0479  <S**2>=0.000
     309 -> 313        0.19325
     310 -> 314        0.61320
     312 -> 316       -0.25995

 Excited State   4:      Singlet-A      2.1936 eV  565.21 nm  f=0.1427  <S**2>=0.000
     309 -> 313        0.61099
     310 -> 314       -0.19168
     311 -> 315       -0.26606

 Excited State   5:      Singlet-A      2.6493 eV  467.98 nm  f=0.0000  <S**2>=0.000
     312 -> 313        0.70710

 The electronic state is 1-A.
 Alpha  occ. eigenvalues --  -46.87854 -46.87551 -19.26333 -19.26270 -19.19078
 Alpha  occ. eigenvalues --  -19.19075 -19.18845 -19.18593 -19.18232 -19.17952
 Alpha  occ. eigenvalues --  -14.42505 -14.42387 -14.41508 -14.41254 -14.39457
 Alpha  occ. eigenvalues --  -14.39239 -14.38647 -14.38494 -10.39134 -10.39006
 Alpha  occ. eigenvalues --  -10.35476 -10.35269 -10.34451 -10.34130 -10.31720
 Alpha  occ. eigenvalues --  -10.31686 -10.31464 -10.31201 -10.30957 -10.30907
 Alpha  occ. eigenvalues --  -10.30631 -10.30566 -10.30293 -10.30263 -10.30255
 Alpha  occ. eigenvalues --  -10.30034 -10.29983 -10.29798 -10.29687 -10.29322
 Alpha  occ. eigenvalues --  -10.29308 -10.29293 -10.28793 -10.28611 -10.28570
 Alpha  occ. eigenvalues --  -10.28570 -10.28419 -10.28291 -10.28163 -10.28023
 Alpha  occ. eigenvalues --  -10.27891 -10.27851 -10.27782 -10.27636 -10.27571
 Alpha  occ. eigenvalues --  -10.27552 -10.27520 -10.27510 -10.27458 -10.27443
 Alpha  occ. eigenvalues --  -10.27376 -10.27352 -10.27314 -10.27294 -10.27214
 Alpha  occ. eigenvalues --  -10.26952 -10.26745 -10.26597 -10.26420 -10.26279
 Alpha  occ. eigenvalues --  -10.26277 -10.26277 -10.26083 -10.26083 -10.25930
 Alpha  occ. eigenvalues --  -10.25887 -10.25835 -10.25777 -10.25485 -10.25313
 Alpha  occ. eigenvalues --  -10.24892 -10.24842 -10.24798 -10.24765 -10.24676
 Alpha  occ. eigenvalues --  -10.24583  -3.16597  -3.16301  -1.91479  -1.91183
 Alpha  occ. eigenvalues --   -1.91065  -1.90907  -1.90772  -1.90609  -1.16683
 Alpha  occ. eigenvalues --   -1.16563  -1.08690  -1.08562  -1.07244  -1.06862
 Alpha  occ. eigenvalues --   -1.06844  -1.06697  -1.04635  -1.04384  -1.03817
 Alpha  occ. eigenvalues --   -1.03555  -1.03291  -1.02933  -1.02469  -1.02004
 Alpha  occ. eigenvalues --   -0.92029  -0.91882  -0.89587  -0.89403  -0.89235
 Alpha  occ. eigenvalues --   -0.89041  -0.88351  -0.88132  -0.87937  -0.87727
 Alpha  occ. eigenvalues --   -0.87697  -0.87577  -0.87317  -0.86995  -0.85030
 Alpha  occ. eigenvalues --   -0.84893  -0.84006  -0.83794  -0.83007  -0.82815
 Alpha  occ. eigenvalues --   -0.82694  -0.82543  -0.81639  -0.81504  -0.80648
 Alpha  occ. eigenvalues --   -0.80341  -0.78848  -0.78520  -0.77277  -0.77041
 Alpha  occ. eigenvalues --   -0.76987  -0.76804  -0.75975  -0.75732  -0.74957
 Alpha  occ. eigenvalues --   -0.74710  -0.72835  -0.72596  -0.71726  -0.71476
 Alpha  occ. eigenvalues --   -0.69984  -0.69681  -0.68921  -0.68721  -0.67694
 Alpha  occ. eigenvalues --   -0.67497  -0.67261  -0.67093  -0.65338  -0.65168
 Alpha  occ. eigenvalues --   -0.64911  -0.64676  -0.64670  -0.64555  -0.64334
 Alpha  occ. eigenvalues --   -0.64114  -0.62352  -0.62189  -0.60491  -0.60226
 Alpha  occ. eigenvalues --   -0.59855  -0.59687  -0.59045  -0.58891  -0.58560
 Alpha  occ. eigenvalues --   -0.58324  -0.57642  -0.57460  -0.57365  -0.57137
 Alpha  occ. eigenvalues --   -0.56365  -0.56099  -0.56027  -0.55793  -0.55566
 Alpha  occ. eigenvalues --   -0.55403  -0.55344  -0.55162  -0.54585  -0.54405
 Alpha  occ. eigenvalues --   -0.53942  -0.53804  -0.53352  -0.53266  -0.53126
 Alpha  occ. eigenvalues --   -0.53035  -0.52970  -0.52803  -0.52795  -0.52541
 Alpha  occ. eigenvalues --   -0.52519  -0.52330  -0.51988  -0.51799  -0.51661
 Alpha  occ. eigenvalues --   -0.51549  -0.51257  -0.51106  -0.50607  -0.50348
 Alpha  occ. eigenvalues --   -0.50096  -0.49960  -0.49867  -0.49769  -0.49558
 Alpha  occ. eigenvalues --   -0.49374  -0.49268  -0.49146  -0.49092  -0.49000
 Alpha  occ. eigenvalues --   -0.48648  -0.48518  -0.48486  -0.48457  -0.48287
 Alpha  occ. eigenvalues --   -0.48222  -0.47745  -0.47487  -0.47346  -0.47007
 Alpha  occ. eigenvalues --   -0.46858  -0.46611  -0.46601  -0.46447  -0.46418
 Alpha  occ. eigenvalues --   -0.46223  -0.46167  -0.45994  -0.45883  -0.45733
 Alpha  occ. eigenvalues --   -0.45261  -0.45113  -0.44637  -0.44553  -0.44419
 Alpha  occ. eigenvalues --   -0.44370  -0.44205  -0.44137  -0.44067  -0.44023
 Alpha  occ. eigenvalues --   -0.43981  -0.43826  -0.43551  -0.43466  -0.43438
 Alpha  occ. eigenvalues --   -0.43283  -0.43084  -0.42840  -0.42806  -0.42757
 Alpha  occ. eigenvalues --   -0.42720  -0.42461  -0.42076  -0.41877  -0.41761
 Alpha  occ. eigenvalues --   -0.41582  -0.41568  -0.41359  -0.41193  -0.40924
 Alpha  occ. eigenvalues --   -0.40883  -0.40856  -0.40634  -0.40617  -0.40589
 Alpha  occ. eigenvalues --   -0.40404  -0.40274  -0.40124  -0.39522  -0.39351
 Alpha  occ. eigenvalues --   -0.38530  -0.38261  -0.37794  -0.37555  -0.37382
 Alpha  occ. eigenvalues --   -0.37313  -0.37172  -0.37092  -0.36769  -0.36688
 Alpha  occ. eigenvalues --   -0.36250  -0.36125  -0.34344  -0.34149  -0.33826
 Alpha  occ. eigenvalues --   -0.33774  -0.33244  -0.33069  -0.31375  -0.31154
 Alpha  occ. eigenvalues --   -0.31090  -0.30865  -0.30092  -0.29858  -0.29501
 Alpha  occ. eigenvalues --   -0.29382  -0.29212  -0.29105  -0.24137  -0.23928
 Alpha  occ. eigenvalues --   -0.21185  -0.21008
 Alpha virt. eigenvalues --   -0.08829  -0.08681  -0.01804  -0.01576  -0.00102
 Alpha virt. eigenvalues --    0.00090   0.02140   0.02308   0.03055   0.03324
 Alpha virt. eigenvalues --    0.04667   0.04838   0.05044   0.05252   0.06138

 Mulliken charges:
               1
     1  Mg   0.838610
     2  C   -0.002921
     3  C   -0.094059
     4  C   -0.045824
     5  C   -0.064160
     6  N   -0.256808
     7  C   -0.052477
     8  C   -0.014019
     9  C   -0.087008
    10  C    0.046398
    11  C    0.104776
    12  C    0.053453
    13  C   -0.071965
    14  H    0.036448
    15  N   -0.433211
    16  C    0.168512
    17  C   -0.177011
    18  C   -0.003809
    19  C    0.148779
    20  C    0.110150
    21  C    0.012504
    22  O   -0.249238
    23  C    0.062372
    24  N   -0.341110
    25  C    0.041245
    26  C   -0.028306
    27  C   -0.023854
    28  C    0.074677
    29  C    0.076096
    30  C    0.035200
    31  C   -0.004434
    32  N   -0.310356
    33  C    0.080153
    34  C   -0.170222
    35  C    0.008271
    36  C    0.082760
    37  C    0.127443
    38  C    0.045859
    39  O   -0.188729
    40  C   -0.005220
    41  C    0.212820
    42  O   -0.257273
    43  O   -0.304760
    44  C    0.157665
    45  H   -0.017398
    46  H   -0.016571
    47  H   -0.041867
    48  H    0.000994
    49  H   -0.003916
    50  H    0.025504
    51  H    0.016471
    52  H    0.016821
    53  H    0.011154
    54  H    0.044103
    55  H    0.017916
    56  H    0.017983
    57  H    0.005929
    58  H    0.027085
    59  H    0.039740
    60  H    0.037350
    61  H    0.036262
    62  H    0.031553
    63  H    0.016716
    64  H    0.009488
    65  H    0.023476
    66  H    0.012701
    67  H    0.004752
    68  H    0.006520
    69  H    0.004298
    70  H    0.009288
    71  H    0.016879
    72  H    0.029000
    73  H    0.046979
    74  H    0.008720
    75  H    0.046135
    76  H    0.035239
    77  H    0.042963
    78  H    0.046599
    79  H    0.053716
    80  Mg   0.838043
    81  C   -0.016789
    82  C   -0.087373
    83  C   -0.045136
    84  C   -0.065085
    85  N   -0.254556
    86  C   -0.049878
    87  C   -0.015114
    88  C   -0.090522
    89  C    0.045699
    90  C    0.114160
    91  C    0.062551
    92  C   -0.077764
    93  H    0.034538
    94  N   -0.423690
    95  C    0.162957
    96  C   -0.173714
    97  C   -0.007531
    98  C    0.152367
    99  C    0.098966
   100  C    0.015909
   101  O   -0.253286
   102  C    0.061114
   103  N   -0.350012
   104  C    0.037716
   105  C   -0.019883
   106  C   -0.034597
   107  C    0.088832
   108  C    0.073598
   109  C    0.034837
   110  C   -0.007599
   111  N   -0.324008
   112  C    0.078305
   113  C   -0.163464
   114  C    0.002185
   115  C    0.096037
   116  C    0.131513
   117  C    0.042243
   118  O   -0.188265
   119  C    0.000939
   120  C    0.211198
   121  O   -0.251157
   122  O   -0.305586
   123  C    0.152114
   124  H   -0.018831
   125  H   -0.015532
   126  H   -0.041068
   127  H   -0.000794
   128  H   -0.004369
   129  H    0.022355
   130  H    0.015496
   131  H    0.016308
   132  H    0.013902
   133  H    0.037525
   134  H    0.020685
   135  H    0.019626
   136  H    0.009037
   137  H    0.027554
   138  H    0.039583
   139  H    0.039106
   140  H    0.036222
   141  H    0.033604
   142  H    0.014184
   143  H    0.011851
   144  H    0.024770
   145  H    0.012837
   146  H    0.005001
   147  H    0.005833
   148  H    0.003248
   149  H    0.010890
   150  H    0.017614
   151  H    0.030347
   152  H    0.045721
   153  H    0.008045
   154  H    0.046686
   155  H    0.035124
   156  H    0.043740
   157  H    0.049457
   158  H    0.053434
 Sum of Mulliken charges =  -0.00000

 Dipole moment (field-independent basis, Debye):
    X=              4.2748    Y=              0.8464    Z=              0.5312  Tot=              4.3900
 Quadrupole moment (field-independent basis, Debye-Ang):
   XX=           -522.0329   YY=           -545.3308   ZZ=           -451.9168
   XY=            -20.8189   XZ=             59.2909   YZ=             40.7362

 Normal termination of Gaussian 16 at Sat Sep  4 07:50:18 2021.
