 Gaussian 16, Revision A.03,
 Gaussian 16:  ES64L-G16RevA.03 25-Dec-2016

 -----------------------------------
 #p cam-b3lyp/Def2SVP td=(nstates=5)
 -----------------------------------

 --------------------------------
 TDDFT excited states in gaussian
 --------------------------------
 Symbolic Z-matrix:
 Charge =  0 Multiplicity = 1

                         Standard orientation:
 ---------------------------------------------------------------------
 Center     Atomic      Atomic             Coordinates (Angstroms)
 Number     Number       Type             X           Y           Z
 ---------------------------------------------------------------------
      1         12           0        5.570364    0.222422    0.293370
      2          6           0        5.572549   -3.018877   -1.225244
      3          6           0        6.544035    1.474738   -2.727679
      4          6           0        6.014943    3.020168    1.718709
      5          6           0        5.712098   -1.386693    3.381463
      6          7           0        5.972205   -0.749264   -1.654705
      7          6           0        5.878330   -1.990983   -2.119993
      8          6           0        6.061355   -2.087608   -3.664189
      9          6           0        6.902945   -0.754474   -3.901836
     10          6           0        6.419113    0.053773   -2.710800
     11          6           0        8.409986   -0.955392   -3.779524
     12          6           0        4.695382   -2.046688   -4.428502
     13          6           0        4.758238   -2.460753   -5.901578
     14          1           0        3.636334   -3.190808   -6.472278
     15          7           0        5.711371    2.040003   -0.467792
     16          6           0        6.109008    2.364334   -1.721579
     17          6           0        6.044504    3.839543   -1.800816
     18          6           0        5.759487    4.356630   -0.433527
     19          6           0        5.844267    3.145553    0.342027
     20          6           0        6.195080    4.602139   -3.081256
     21          6           0        5.468832    5.726690    0.092389
     22          8           0        5.479869    5.991640    1.343091
     23          6           0        5.255095    6.784252   -0.912061
     24          7           0        6.048573    0.757323    2.253684
     25          6           0        6.123953    2.041592    2.619683
     26          6           0        6.196721    2.180857    4.111409
     27          6           0        5.909467    0.726866    4.705672
     28          6           0        5.796077   -0.054420    3.373379
     29          6           0        7.525826    2.707193    4.670391
     30          6           0        4.757290    0.602524    5.733994
     31          6           0        3.432346    0.867477    5.054713
     32          7           0        5.454531   -1.827018    0.998652
     33          6           0        5.559929   -2.269384    2.325255
     34          6           0        5.529508   -3.743187    2.292885
     35          6           0        5.424528   -4.058162    0.939513
     36          6           0        5.417902   -2.857867    0.173001
     37          6           0        5.653792   -4.604222    3.418765
     38          6           0        5.341223   -5.130192   -0.039093
     39          8           0        5.212608   -6.353707    0.023842
     40          6           0        5.556445   -4.504314   -1.487466
     41          6           0        4.476907   -5.048627   -2.382804
     42          8           0        3.280623   -4.743345   -2.200942
     43          8           0        5.039199   -5.644578   -3.445447
     44          6           0        4.022205   -6.180764   -4.389047
     45          1           0        7.074701    1.948136   -3.556069
     46          1           0        6.060984    3.967307    2.260231
     47          1           0        5.666834   -1.954914    4.312338
     48          1           0        6.632133   -2.953194   -4.000935
     49          1           0        6.627112   -0.259614   -4.832831
     50          1           0        8.650705   -1.956202   -3.421257
     51          1           0        8.746750   -0.204023   -3.065013
     52          1           0        8.909689   -0.720149   -4.719596
     53          1           0        4.377120   -1.010243   -4.540535
     54          1           0        3.947828   -2.652570   -3.915280
     55          1           0        5.698267   -2.961481   -6.135085
     56          1           0        4.774508   -1.556537   -6.510124
     57          1           0        6.559960    3.965301   -3.886144
     58          1           0        6.992481    5.328852   -2.927151
     59          1           0        5.276754    5.118038   -3.362071
     60          1           0        6.142085    6.868436   -1.540322
     61          1           0        4.972022    7.676112   -0.354114
     62          1           0        4.439658    6.485406   -1.571380
     63          1           0        5.438704    2.872337    4.477048
     64          1           0        6.776120    0.319473    5.226841
     65          1           0        7.419931    3.606274    5.277964
     66          1           0        8.199692    2.879183    3.831574
     67          1           0        8.091991    1.985613    5.258776
     68          1           0        4.869118    1.347876    6.520690
     69          1           0        4.708858   -0.377073    6.209700
     70          1           0        3.365198    1.954745    5.067821
     71          1           0        2.616978    0.419080    5.623331
     72          1           0        3.450752    0.554710    4.010528
     73          1           0        4.904249   -5.384959    3.289901
     74          1           0        5.503451   -4.060815    4.351347
     75          1           0        6.680606   -4.948763    3.297109
     76          1           0        6.550781   -4.806349   -1.814870
     77          1           0        4.235355   -7.241486   -4.521974
     78          1           0        4.053443   -5.543724   -5.273134
     79          1           0        2.996664   -6.221567   -4.020347
     80         12           0       -4.999491    0.908348    0.240755
     81          6           0       -7.562527   -1.603436    0.211391
     82          6           0       -6.876284    2.637299   -2.022644
     83          6           0       -2.563931    2.913520   -0.098011
     84          6           0       -2.854690   -1.493507    1.573668
     85          7           0       -6.949763    0.470533   -0.706344
     86          6           0       -7.860561   -0.484555   -0.594042
     87          6           0       -9.196982   -0.188131   -1.325943
     88          6           0       -8.646485    0.849682   -2.420828
     89          6           0       -7.433115    1.384115   -1.662675
     90          6           0       -8.156989    0.178687   -3.693419
     91          6           0      -10.258935    0.480240   -0.383853
     92          6           0      -11.683073    0.515006   -0.942770
     93          1           0      -12.799086    0.354072   -0.014818
     94          7           0       -4.945178    2.749905   -0.496998
     95          6           0       -5.798745    3.294565   -1.389216
     96          6           0       -5.315848    4.664260   -1.623585
     97          6           0       -4.013402    4.828812   -0.922692
     98          6           0       -3.774993    3.467595   -0.486426
     99          6           0       -6.110981    5.689295   -2.378891
    100          6           0       -3.122782    6.012560   -0.695193
    101          8           0       -1.922747    5.879520   -0.265029
    102          6           0       -3.664769    7.324161   -1.079168
    103          7           0       -2.945795    0.684378    0.474219
    104          6           0       -2.114139    1.729161    0.317104
    105          6           0       -0.723229    1.396976    0.802306
    106          6           0       -0.852550   -0.013851    1.544215
    107          6           0       -2.343672   -0.308283    1.269899
    108          6           0        0.354309    1.306680   -0.278044
    109          6           0       -0.341829   -0.088010    3.009253
    110          6           0       -1.223348    0.750913    3.906211
    111          7           0       -5.193063   -1.115360    0.972316
    112          6           0       -4.162716   -1.947442    1.462325
    113          6           0       -4.762484   -3.270393    1.731629
    114          6           0       -6.105791   -3.121717    1.354946
    115          6           0       -6.322970   -1.805494    0.865171
    116          6           0       -4.067955   -4.416562    2.211258
    117          6           0       -7.387029   -3.782162    1.250318
    118          8           0       -7.831152   -4.876258    1.595917
    119          6           0       -8.358303   -2.866986    0.386897
    120          6           0       -9.673037   -2.772030    1.111438
    121          8           0       -9.747106   -2.202601    2.214554
    122          8           0      -10.659352   -3.173670    0.289100
    123          6           0      -11.984308   -3.087041    0.959030
    124          1           0       -7.273628    3.148879   -2.899725
    125          1           0       -1.712614    3.598125   -0.091750
    126          1           0       -2.274428   -2.266458    2.082101
    127          1           0       -9.645475   -1.043490   -1.816848
    128          1           0       -9.362429    1.646504   -2.604837
    129          1           0       -8.150577   -0.897519   -3.604617
    130          1           0       -7.153834    0.550956   -3.855123
    131          1           0       -8.746393    0.518945   -4.549673
    132          1           0      -10.055169    1.556978   -0.321693
    133          1           0      -10.260782    0.011686    0.581072
    134          1           0      -11.803014   -0.149528   -1.807030
    135          1           0      -11.874222    1.513351   -1.343741
    136          1           0       -6.950426    5.231183   -2.916361
    137          1           0       -5.461389    6.078151   -3.170522
    138          1           0       -6.435062    6.519672   -1.747940
    139          1           0       -3.919367    7.314267   -2.136311
    140          1           0       -2.918754    8.053888   -0.758467
    141          1           0       -4.599380    7.490329   -0.531909
    142          1           0       -0.374380    2.136740    1.512342
    143          1           0       -0.277661   -0.798463    1.030690
    144          1           0        1.206456    1.990189   -0.102776
    145          1           0       -0.105192    1.509742   -1.236248
    146          1           0        0.774682    0.313876   -0.429176
    147          1           0        0.664152    0.332657    3.081386
    148          1           0       -0.296962   -1.098948    3.400391
    149          1           0       -0.818312    1.759080    3.777266
    150          1           0       -1.141369    0.421873    4.940166
    151          1           0       -2.257459    0.762144    3.542704
    152          1           0       -4.695077   -4.865796    2.969815
    153          1           0       -3.090217   -4.151710    2.608304
    154          1           0       -3.992487   -4.998940    1.289082
    155          1           0       -8.463662   -3.334274   -0.592958
    156          1           0      -12.440183   -4.079901    0.895085
    157          1           0      -12.517009   -2.255151    0.461090
    158          1           0      -11.994602   -2.918133    2.029456
 ---------------------------------------------------------------------

 SCF Done:  E(RCAM-B3LYP) =  -4069.81243913     A.U. after   19 cycles

 Excitation energies and oscillator strengths:

 Excited State   1:      Singlet-A      1.6545 eV  749.40 nm  f=0.0038  <S**2>=0.000
     309 -> 315       -0.11219
     310 -> 316        0.12555
     311 -> 313       -0.45611
     312 -> 314        0.51407
 This state for optimization and/or second-order correction.
 Total Energy, E(TD-HF/TD-DFT) =  -4069.75163913
 Copying the excited state density for this state as the 1-particle RhoCI density.

 Excited State   2:      Singlet-A      1.6980 eV  730.20 nm  f=0.7099  <S**2>=0.000
     309 -> 315        0.13490
     310 -> 316        0.11847
     311 -> 313        0.51216
     312 -> 314        0.45435

 Excited State   3:      Singlet-A      2.1840 eV  567.70 nm  f=0.1008  <S**2>=0.000
     310 -> 314        0.63532
     312 -> 316       -0.26812

 Excited State   4:      Singlet-A      2.1961 eV  564.57 nm  f=0.0999  <S**2>=0.000
     309 -> 313        0.63266
     311 -> 315       -0.27646

 Excited State   5:      Singlet-A      2.4668 eV  502.61 nm  f=0.0000  <S**2>=0.000
     312 -> 313        0.70643

 The electronic state is 1-A.
 Alpha  occ. eigenvalues --  -46.87899 -46.87475 -19.26356 -19.26218 -19.19111
 Alpha  occ. eigenvalues --  -19.19022 -19.18766 -19.18578 -19.18235 -19.17878
 Alpha  occ. eigenvalues --  -14.42532 -14.42318 -14.41544 -14.41164 -14.39480
 Alpha  occ. eigenvalues --  -14.39174 -14.38685 -14.38409 -10.39167 -10.38949
 Alpha  occ. eigenvalues --  -10.35393 -10.35261 -10.34458 -10.34055 -10.31735
 Alpha  occ. eigenvalues --  -10.31641 -10.31495 -10.31125 -10.30970 -10.30869
 Alpha  occ. eigenvalues --  -10.30658 -10.30590 -10.30280 -10.30203 -10.30166
 Alpha  occ. eigenvalues --  -10.30018 -10.29937 -10.29691 -10.29688 -10.29315
 Alpha  occ. eigenvalues --  -10.29253 -10.29213 -10.28813 -10.28593 -10.28581
 Alpha  occ. eigenvalues --  -10.28551 -10.28435 -10.28236 -10.28182 -10.27997
 Alpha  occ. eigenvalues --  -10.27855 -10.27817 -10.27801 -10.27631 -10.27611
 Alpha  occ. eigenvalues --  -10.27541 -10.27492 -10.27480 -10.27472 -10.27346
 Alpha  occ. eigenvalues --  -10.27305 -10.27291 -10.27241 -10.27230 -10.27168
 Alpha  occ. eigenvalues --  -10.26887 -10.26773 -10.26570 -10.26357 -10.26327
 Alpha  occ. eigenvalues --  -10.26290 -10.26259 -10.26110 -10.25923 -10.25894
 Alpha  occ. eigenvalues --  -10.25874 -10.25706 -10.25554 -10.25495 -10.25264
 Alpha  occ. eigenvalues --  -10.24971 -10.24902 -10.24865 -10.24686 -10.24517
 Alpha  occ. eigenvalues --  -10.24507  -3.16638  -3.16225  -1.91521  -1.91108
 Alpha  occ. eigenvalues --   -1.91106  -1.90948  -1.90696  -1.90533  -1.16708
 Alpha  occ. eigenvalues --   -1.16510  -1.08696  -1.08486  -1.07160  -1.06835
 Alpha  occ. eigenvalues --   -1.06806  -1.06730  -1.04659  -1.04320  -1.03844
 Alpha  occ. eigenvalues --   -1.03478  -1.03315  -1.02845  -1.02495  -1.01923
 Alpha  occ. eigenvalues --   -0.92049  -0.91808  -0.89631  -0.89280  -0.89257
 Alpha  occ. eigenvalues --   -0.89001  -0.88389  -0.88013  -0.87945  -0.87747
 Alpha  occ. eigenvalues --   -0.87578  -0.87501  -0.87282  -0.86970  -0.85044
 Alpha  occ. eigenvalues --   -0.84846  -0.84056  -0.83677  -0.82969  -0.82790
 Alpha  occ. eigenvalues --   -0.82680  -0.82502  -0.81657  -0.81430  -0.80654
 Alpha  occ. eigenvalues --   -0.80277  -0.78835  -0.78461  -0.77300  -0.77012
 Alpha  occ. eigenvalues --   -0.76972  -0.76731  -0.75992  -0.75679  -0.74986
 Alpha  occ. eigenvalues --   -0.74629  -0.72853  -0.72502  -0.71744  -0.71409
 Alpha  occ. eigenvalues --   -0.70056  -0.69538  -0.68929  -0.68670  -0.67698
 Alpha  occ. eigenvalues --   -0.67428  -0.67256  -0.67061  -0.65361  -0.65116
 Alpha  occ. eigenvalues --   -0.64935  -0.64702  -0.64584  -0.64484  -0.64371
 Alpha  occ. eigenvalues --   -0.63994  -0.62376  -0.62112  -0.60479  -0.60172
 Alpha  occ. eigenvalues --   -0.59872  -0.59636  -0.59066  -0.58807  -0.58578
 Alpha  occ. eigenvalues --   -0.58246  -0.57660  -0.57385  -0.57380  -0.57053
 Alpha  occ. eigenvalues --   -0.56366  -0.56044  -0.56020  -0.55738  -0.55545
 Alpha  occ. eigenvalues --   -0.55437  -0.55298  -0.55054  -0.54621  -0.54305
 Alpha  occ. eigenvalues --   -0.53961  -0.53765  -0.53361  -0.53242  -0.53053
 Alpha  occ. eigenvalues --   -0.52993  -0.52981  -0.52757  -0.52741  -0.52588
 Alpha  occ. eigenvalues --   -0.52540  -0.52171  -0.51994  -0.51653  -0.51640
 Alpha  occ. eigenvalues --   -0.51515  -0.51282  -0.51016  -0.50545  -0.50346
 Alpha  occ. eigenvalues --   -0.50127  -0.49933  -0.49831  -0.49697  -0.49542
 Alpha  occ. eigenvalues --   -0.49341  -0.49264  -0.49153  -0.49044  -0.48936
 Alpha  occ. eigenvalues --   -0.48663  -0.48538  -0.48439  -0.48395  -0.48196
 Alpha  occ. eigenvalues --   -0.48188  -0.47751  -0.47432  -0.47343  -0.46955
 Alpha  occ. eigenvalues --   -0.46889  -0.46615  -0.46520  -0.46437  -0.46403
 Alpha  occ. eigenvalues --   -0.46248  -0.46083  -0.45898  -0.45895  -0.45633
 Alpha  occ. eigenvalues --   -0.45291  -0.45043  -0.44657  -0.44548  -0.44363
 Alpha  occ. eigenvalues --   -0.44298  -0.44234  -0.44150  -0.44039  -0.43972
 Alpha  occ. eigenvalues --   -0.43899  -0.43788  -0.43569  -0.43459  -0.43389
 Alpha  occ. eigenvalues --   -0.43222  -0.43105  -0.42817  -0.42775  -0.42757
 Alpha  occ. eigenvalues --   -0.42712  -0.42360  -0.42122  -0.41782  -0.41769
 Alpha  occ. eigenvalues --   -0.41602  -0.41492  -0.41294  -0.41209  -0.40960
 Alpha  occ. eigenvalues --   -0.40825  -0.40796  -0.40671  -0.40589  -0.40526
 Alpha  occ. eigenvalues --   -0.40284  -0.40280  -0.40100  -0.39601  -0.39194
 Alpha  occ. eigenvalues --   -0.38567  -0.38158  -0.37816  -0.37511  -0.37415
 Alpha  occ. eigenvalues --   -0.37333  -0.37064  -0.37032  -0.36800  -0.36619
 Alpha  occ. eigenvalues --   -0.36280  -0.36031  -0.34371  -0.34068  -0.33860
 Alpha  occ. eigenvalues --   -0.33715  -0.33267  -0.32987  -0.31310  -0.31136
 Alpha  occ. eigenvalues --   -0.31101  -0.30793  -0.30098  -0.29781  -0.29500
 Alpha  occ. eigenvalues --   -0.29393  -0.29157  -0.29020  -0.24166  -0.23846
 Alpha  occ. eigenvalues --   -0.21206  -0.20930
 Alpha virt. eigenvalues --   -0.08838  -0.08610  -0.01825  -0.01512  -0.00075
 Alpha virt. eigenvalues --    0.00123   0.02127   0.02380   0.02548   0.03403
 Alpha virt. eigenvalues --    0.04637   0.04894   0.05015   0.05310   0.06075

 Mulliken charges:
               1
     1  Mg   0.831781
     2  C   -0.002689
     3  C   -0.093269
     4  C   -0.045453
     5  C   -0.064147
     6  N   -0.256467
     7  C   -0.053244
     8  C   -0.013755
     9  C   -0.087117
    10  C    0.046278
    11  C    0.104743
    12  C    0.053253
    13  C   -0.071920
    14  H    0.036248
    15  N   -0.434049
    16  C    0.168789
    17  C   -0.176498
    18  C   -0.003107
    19  C    0.147996
    20  C    0.110205
    21  C    0.014324
    22  O   -0.248811
    23  C    0.061716
    24  N   -0.340523
    25  C    0.040517
    26  C   -0.028509
    27  C   -0.024713
    28  C    0.073580
    29  C    0.076136
    30  C    0.039545
    31  C   -0.016928
    32  N   -0.310307
    33  C    0.078902
    34  C   -0.170761
    35  C    0.008294
    36  C    0.081384
    37  C    0.127494
    38  C    0.045612
    39  O   -0.188317
    40  C   -0.005393
    41  C    0.213202
    42  O   -0.258189
    43  O   -0.304602
    44  C    0.157550
    45  H   -0.017283
    46  H   -0.016247
    47  H   -0.041833
    48  H    0.001079
    49  H   -0.003732
    50  H    0.025619
    51  H    0.016587
    52  H    0.016933
    53  H    0.011392
    54  H    0.043529
    55  H    0.018044
    56  H    0.018166
    57  H    0.005670
    58  H    0.027103
    59  H    0.041275
    60  H    0.036270
    61  H    0.037175
    62  H    0.034398
    63  H    0.016895
    64  H    0.010004
    65  H    0.023829
    66  H    0.012915
    67  H    0.004933
    68  H    0.007248
    69  H    0.004688
    70  H    0.010549
    71  H    0.018861
    72  H    0.034254
    73  H    0.047080
    74  H    0.008777
    75  H    0.046396
    76  H    0.035492
    77  H    0.043337
    78  H    0.046522
    79  H    0.053682
    80  Mg   0.837775
    81  C   -0.017191
    82  C   -0.088258
    83  C   -0.045765
    84  C   -0.062846
    85  N   -0.254600
    86  C   -0.049682
    87  C   -0.015109
    88  C   -0.090454
    89  C    0.045689
    90  C    0.114529
    91  C    0.062613
    92  C   -0.077660
    93  H    0.034520
    94  N   -0.423275
    95  C    0.162661
    96  C   -0.175392
    97  C   -0.008388
    98  C    0.151923
    99  C    0.099713
   100  C    0.014894
   101  O   -0.253499
   102  C    0.061261
   103  N   -0.349985
   104  C    0.037328
   105  C   -0.020313
   106  C   -0.037714
   107  C    0.088889
   108  C    0.064786
   109  C    0.032294
   110  C   -0.007786
   111  N   -0.324300
   112  C    0.078179
   113  C   -0.162228
   114  C    0.002155
   115  C    0.096474
   116  C    0.131812
   117  C    0.042654
   118  O   -0.187798
   119  C    0.000862
   120  C    0.211180
   121  O   -0.251179
   122  O   -0.305629
   123  C    0.152138
   124  H   -0.020493
   125  H   -0.015961
   126  H   -0.037564
   127  H   -0.000828
   128  H   -0.004789
   129  H    0.022506
   130  H    0.014355
   131  H    0.015616
   132  H    0.013843
   133  H    0.037644
   134  H    0.020646
   135  H    0.019339
   136  H    0.008378
   137  H    0.025012
   138  H    0.039266
   139  H    0.037428
   140  H    0.035831
   141  H    0.034008
   142  H    0.014705
   143  H    0.018536
   144  H    0.029884
   145  H    0.010968
   146  H    0.011795
   147  H    0.008464
   148  H    0.004908
   149  H    0.011124
   150  H    0.016364
   151  H    0.029588
   152  H    0.045350
   153  H    0.010054
   154  H    0.048935
   155  H    0.034972
   156  H    0.043747
   157  H    0.049266
   158  H    0.053439
 Sum of Mulliken charges =  -0.00000

 Dipole moment (field-independent basis, Debye):
    X=              1.6965    Y=              5.5126    Z=             -6.3324  Tot=              8.5654
 Quadrupole moment (field-independent basis, Debye-Ang):
   XX=           -463.2909   YY=           -552.7361   ZZ=           -467.6101
   XY=            -27.3373   XZ=             19.9141   YZ=            -10.4079

 Normal termination of Gaussian 16 at Sat Sep 11 01:21:04 2021.
