 Gaussian 16, Revision A.03,
 Gaussian 16:  ES64L-G16RevA.03 25-Dec-2016

 -----------------------------------
 #p cam-b3lyp/Def2SVP td=(nstates=5)
 -----------------------------------

 --------------------------------
 TDDFT excited states in gaussian
 --------------------------------
 Symbolic Z-matrix:
 Charge =  0 Multiplicity = 1

                         Standard orientation:
 ---------------------------------------------------------------------
 Center     Atomic      Atomic             Coordinates (Angstroms)
 Number     Number       Type             X           Y           Z
 ---------------------------------------------------------------------
      1         12           0        7.633536   -0.967571    0.308061
      2          6           0        8.011497    2.169376   -1.373878
      3          6           0        8.470471    0.648398    3.194452
      4          6           0        7.750376   -3.799023    1.731384
      5          6           0        7.945127   -2.505734   -2.803631
      6          7           0        8.151538    1.143127    0.729098
      7          6           0        8.201761    2.258069    0.006911
      8          6           0        8.400948    3.542322    0.866209
      9          6           0        9.086022    2.884571    2.146848
     10          6           0        8.508307    1.484368    2.039136
     11          6           0       10.605628    2.797885    2.047939
     12          6           0        7.042366    4.229198    1.232528
     13          6           0        7.158070    5.652687    1.785380
     14          1           0        6.129071    6.622796    1.442746
     15          7           0        7.569517   -1.441598    2.224843
     16          6           0        7.932727   -0.654886    3.266211
     17          6           0        7.700774   -1.459378    4.485093
     18          6           0        7.353049   -2.843038    4.057697
     19          6           0        7.572171   -2.755451    2.636539
     20          6           0        7.768677   -0.892942    5.870116
     21          6           0        6.905925   -4.055212    4.811917
     22          8           0        6.881546   -5.217162    4.279140
     23          6           0        6.577131   -3.858974    6.235444
     24          7           0        8.039587   -2.892371   -0.390439
     25          6           0        7.966546   -3.951430    0.423222
     26          6           0        8.016836   -5.236986   -0.347982
     27          6           0        7.894794   -4.833606   -1.888158
     28          6           0        7.876693   -3.293382   -1.727994
     29          6           0        9.274958   -6.091922   -0.142493
     30          6           0        6.760095   -5.503829   -2.702822
     31          6           0        5.416383   -5.020700   -2.204704
     32          7           0        7.749230   -0.313295   -1.758235
     33          6           0        7.898928   -1.124478   -2.892363
     34          6           0        8.036875   -0.224427   -4.052081
     35          6           0        7.974049    1.056261   -3.506428
     36          6           0        7.833762    0.962224   -2.092296
     37          6           0        8.253894   -0.628076   -5.399079
     38          6           0        8.017532    2.482302   -3.786378
     39          8           0        8.028998    3.164739   -4.811874
     40          6           0        8.165937    3.259882   -2.404650
     41          6           0        7.159184    4.377803   -2.401825
     42          8           0        5.935157    4.136340   -2.373160
     43          8           0        7.790115    5.543715   -2.194181
     44          6           0        6.844768    6.691134   -2.150538
     45          1           0        8.947099    0.995818    4.113182
     46          1           0        7.685905   -4.797510    2.168769
     47          1           0        7.961123   -2.913930   -3.815843
     48          1           0        9.068071    4.284184    0.426880
     49          1           0        8.759391    3.359129    3.071958
     50          1           0       10.957411    3.085093    1.057140
     51          1           0       10.851593    1.755585    2.251911
     52          1           0       11.079107    3.378092    2.840375
     53          1           0        6.608473    3.728683    2.098139
     54          1           0        6.366666    4.228706    0.376517
     55          1           0        8.150010    6.069499    1.608654
     56          1           0        7.073639    5.605318    2.871118
     57          1           0        8.207088    0.104217    5.873947
     58          1           0        8.477383   -1.503404    6.429385
     59          1           0        6.798680   -0.907228    6.367342
     60          1           0        7.451310   -3.467394    6.756043
     61          1           0        6.191929   -4.814512    6.589586
     62          1           0        5.803798   -3.094620    6.317094
     63          1           0        7.183429   -5.885719   -0.081518
     64          1           0        8.800097   -5.072857   -2.446602
     65          1           0        9.064751   -7.104203    0.203636
     66          1           0        9.928258   -5.568014    0.554651
     67          1           0        9.917281   -6.177883   -1.018535
     68          1           0        6.782981   -6.584522   -2.566713
     69          1           0        6.821714   -5.302893   -3.772439
     70          1           0        5.225654   -5.669662   -1.350712
     71          1           0        4.655127   -5.154017   -2.974072
     72          1           0        5.474616   -3.998408   -1.830518
     73          1           0        7.598790   -0.009334   -6.012240
     74          1           0        8.038750   -1.687790   -5.534444
     75          1           0        9.313786   -0.399671   -5.510057
     76          1           0        9.189561    3.630687   -2.362002
     77          1           0        7.178010    7.410220   -2.898935
     78          1           0        6.806801    7.022040   -1.112528
     79          1           0        5.829061    6.492205   -2.494205
     80         12           0       -8.225624   -0.367297   -0.244264
     81          6           0       -5.676061    2.095688    0.314745
     82          6           0      -10.341028    1.636915    1.528534
     83          6           0      -10.360910   -2.712607   -0.331096
     84          6           0       -5.680143   -2.639901   -0.952431
     85          7           0       -7.929843    1.589691    0.743136
     86          6           0       -6.935017    2.459130    0.836673
     87          6           0       -7.331319    3.825682    1.457181
     88          6           0       -8.615066    3.346336    2.294497
     89          6           0       -9.015377    2.134374    1.455704
     90          6           0       -8.274784    2.866169    3.695565
     91          6           0       -7.719222    4.886623    0.368176
     92          6           0       -7.817668    6.325839    0.878783
     93          1           0       -7.399857    7.408835   -0.007239
     94          7           0      -10.187549   -0.329493    0.052345
     95          6           0      -10.883276    0.568836    0.780532
     96          6           0      -12.290281    0.146341    0.703100
     97          6           0      -12.347878   -1.167456    0.006431
     98          6           0      -10.934908   -1.470650   -0.101711
     99          6           0      -13.424515    1.001264    1.188914
    100          6           0      -13.486588   -2.017150   -0.470589
    101          8           0      -13.312056   -3.232820   -0.837352
    102          6           0      -14.825923   -1.414102   -0.407351
    103          7           0       -8.045339   -2.433807   -0.383553
    104          6           0       -9.134147   -3.219457   -0.455465
    105          6           0       -8.761786   -4.635059   -0.826708
    106          6           0       -7.214513   -4.581266   -1.227474
    107          6           0       -6.924832   -3.095781   -0.919536
    108          6           0       -8.968377   -5.685227    0.264553
    109          6           0       -6.830403   -5.134516   -2.627139
    110          6           0       -7.402457   -4.245920   -3.708122
    111          7           0       -6.081792   -0.272937   -0.495544
    112          6           0       -5.206211   -1.348007   -0.763250
    113          6           0       -3.831527   -0.807901   -0.732613
    114          6           0       -4.002714    0.550021   -0.424028
    115          6           0       -5.385079    0.831724   -0.253106
    116          6           0       -2.637983   -1.559495   -0.924154
    117          6           0       -3.327609    1.806919   -0.193541
    118          8           0       -2.164945    2.198391   -0.286863
    119          6           0       -4.371891    2.836470    0.419558
    120          6           0       -4.240602    4.133526   -0.330734
    121          8           0       -4.539198    4.199430   -1.536178
    122          8           0       -3.994147    5.125634    0.544117
    123          6           0       -3.866792    6.434067   -0.151306
    124          1           0      -11.021308    2.077838    2.257701
    125          1           0      -11.062972   -3.536430   -0.479045
    126          1           0       -4.837948   -3.263609   -1.259645
    127          1           0       -6.591706    4.253792    2.123109
    128          1           0       -9.400382    4.097581    2.278089
    129          1           0       -7.208100    2.815372    3.856063
    130          1           0       -8.718142    1.883117    3.785407
    131          1           0       -8.775177    3.491674    4.440332
    132          1           0       -8.761237    4.723363    0.064377
    133          1           0       -7.043069    4.843704   -0.463450
    134          1           0       -7.363448    6.443467    1.870143
    135          1           0       -8.871747    6.566703    1.036646
    136          1           0      -13.064578    1.836652    1.802094
    137          1           0      -14.012236    0.389306    1.881703
    138          1           0      -14.073684    1.340034    0.378680
    139          1           0      -15.046461   -1.131146    0.619180
    140          1           0      -15.495392   -2.139614   -0.873530
    141          1           0      -14.821201   -0.489097   -0.994677
    142          1           0       -9.334530   -4.974162   -1.681150
    143          1           0       -6.594131   -5.171996   -0.537552
    144          1           0       -9.630807   -6.514569   -0.047607
    145          1           0       -9.364370   -5.192023    1.142317
    146          1           0       -8.055928   -6.139685    0.646792
    147          1           0       -7.267563   -6.124934   -2.775894
    148          1           0       -5.759860   -5.229490   -2.775139
    149          1           0       -8.430336   -4.607640   -3.806636
    150          1           0       -6.849937   -4.369010   -4.637430
    151          1           0       -7.450641   -3.202561   -3.375343
    152          1           0       -2.000090   -0.971430   -1.570512
    153          1           0       -2.848155   -2.536697   -1.353902
    154          1           0       -2.285530   -1.632269    0.108193
    155          1           0       -4.136529    2.950401    1.478418
    156          1           0       -2.895606    6.852461    0.130518
    157          1           0       -4.765999    7.012272    0.133016
    158          1           0       -3.786132    6.421547   -1.231944
 ---------------------------------------------------------------------

 SCF Done:  E(RCAM-B3LYP) =  -4069.81125653     A.U. after   19 cycles

 Excitation energies and oscillator strengths:

 Excited State   1:      Singlet-A      1.6746 eV  740.39 nm  f=0.3518  <S**2>=0.000
     309 -> 315        0.15764
     311 -> 313        0.62387
     312 -> 314       -0.28545
 This state for optimization and/or second-order correction.
 Total Energy, E(TD-HF/TD-DFT) =  -4069.74971695
 Copying the excited state density for this state as the 1-particle RhoCI density.

 Excited State   2:      Singlet-A      1.6809 eV  737.61 nm  f=0.4333  <S**2>=0.000
     310 -> 316        0.15949
     311 -> 313        0.28538
     312 -> 314        0.62345

 Excited State   3:      Singlet-A      2.1857 eV  567.25 nm  f=0.0363  <S**2>=0.000
     309 -> 313        0.60427
     310 -> 314       -0.21924
     311 -> 315       -0.25653

 Excited State   4:      Singlet-A      2.1919 eV  565.63 nm  f=0.1551  <S**2>=0.000
     309 -> 313        0.21805
     310 -> 314        0.60235
     312 -> 316       -0.26146

 Excited State   5:      Singlet-A      2.7337 eV  453.54 nm  f=0.0000  <S**2>=0.000
     312 -> 313        0.70676

 The electronic state is 1-A.
 Alpha  occ. eigenvalues --  -46.87578 -46.87560 -19.26235 -19.25990 -19.19037
 Alpha  occ. eigenvalues --  -19.18699 -19.18640 -19.18623 -19.17926 -19.17919
 Alpha  occ. eigenvalues --  -14.42419 -14.42216 -14.41277 -14.41227 -14.39269
 Alpha  occ. eigenvalues --  -14.39172 -14.38511 -14.38349 -10.38972 -10.38769
 Alpha  occ. eigenvalues --  -10.35319 -10.35259 -10.34143 -10.34100 -10.31644
 Alpha  occ. eigenvalues --  -10.31391 -10.31224 -10.31168 -10.30948 -10.30674
 Alpha  occ. eigenvalues --  -10.30335 -10.30309 -10.30280 -10.30269 -10.30067
 Alpha  occ. eigenvalues --  -10.30000 -10.29808 -10.29702 -10.29406 -10.29357
 Alpha  occ. eigenvalues --  -10.29311 -10.29035 -10.28652 -10.28593 -10.28500
 Alpha  occ. eigenvalues --  -10.28318 -10.28269 -10.28130 -10.28076 -10.27906
 Alpha  occ. eigenvalues --  -10.27885 -10.27591 -10.27567 -10.27501 -10.27445
 Alpha  occ. eigenvalues --  -10.27400 -10.27399 -10.27380 -10.27363 -10.27319
 Alpha  occ. eigenvalues --  -10.27304 -10.27282 -10.27269 -10.27167 -10.26946
 Alpha  occ. eigenvalues --  -10.26902 -10.26622 -10.26413 -10.26354 -10.26241
 Alpha  occ. eigenvalues --  -10.26064 -10.26029 -10.26017 -10.25977 -10.25851
 Alpha  occ. eigenvalues --  -10.25801 -10.25717 -10.25627 -10.25335 -10.25275
 Alpha  occ. eigenvalues --  -10.24775 -10.24654 -10.24607 -10.24601 -10.24568
 Alpha  occ. eigenvalues --  -10.24515  -3.16328  -3.16302  -1.91210  -1.91183
 Alpha  occ. eigenvalues --   -1.90799  -1.90771  -1.90635  -1.90613  -1.16527
 Alpha  occ. eigenvalues --   -1.16335  -1.08523  -1.08378  -1.07026  -1.06894
 Alpha  occ. eigenvalues --   -1.06822  -1.06328  -1.04415  -1.04347  -1.03581
 Alpha  occ. eigenvalues --   -1.03536  -1.03005  -1.02955  -1.02183  -1.02026
 Alpha  occ. eigenvalues --   -0.91895  -0.91733  -0.89413  -0.89315  -0.89083
 Alpha  occ. eigenvalues --   -0.88947  -0.88143  -0.88087  -0.87690  -0.87644
 Alpha  occ. eigenvalues --   -0.87604  -0.87443  -0.87064  -0.87043  -0.84926
 Alpha  occ. eigenvalues --   -0.84745  -0.83797  -0.83740  -0.82859  -0.82775
 Alpha  occ. eigenvalues --   -0.82577  -0.82419  -0.81499  -0.81335  -0.80361
 Alpha  occ. eigenvalues --   -0.80354  -0.78581  -0.78550  -0.77067  -0.77001
 Alpha  occ. eigenvalues --   -0.76818  -0.76699  -0.75756  -0.75688  -0.74725
 Alpha  occ. eigenvalues --   -0.74696  -0.72610  -0.72552  -0.71502  -0.71452
 Alpha  occ. eigenvalues --   -0.69719  -0.69682  -0.68751  -0.68643  -0.67515
 Alpha  occ. eigenvalues --   -0.67416  -0.67126  -0.66978  -0.65193  -0.65044
 Alpha  occ. eigenvalues --   -0.64685  -0.64621  -0.64568  -0.64389  -0.64123
 Alpha  occ. eigenvalues --   -0.64061  -0.62179  -0.62041  -0.60260  -0.60234
 Alpha  occ. eigenvalues --   -0.59720  -0.59568  -0.58907  -0.58762  -0.58336
 Alpha  occ. eigenvalues --   -0.58276  -0.57447  -0.57330  -0.57151  -0.57087
 Alpha  occ. eigenvalues --   -0.56114  -0.56087  -0.55792  -0.55715  -0.55365
 Alpha  occ. eigenvalues --   -0.55305  -0.55159  -0.55121  -0.54397  -0.54287
 Alpha  occ. eigenvalues --   -0.53841  -0.53652  -0.53143  -0.53084  -0.53058
 Alpha  occ. eigenvalues --   -0.52993  -0.52813  -0.52672  -0.52598  -0.52543
 Alpha  occ. eigenvalues --   -0.52321  -0.52245  -0.51768  -0.51688  -0.51582
 Alpha  occ. eigenvalues --   -0.51378  -0.51103  -0.50966  -0.50406  -0.50379
 Alpha  occ. eigenvalues --   -0.49908  -0.49840  -0.49790  -0.49708  -0.49411
 Alpha  occ. eigenvalues --   -0.49289  -0.49116  -0.49016  -0.48984  -0.48866
 Alpha  occ. eigenvalues --   -0.48466  -0.48357  -0.48291  -0.48261  -0.48252
 Alpha  occ. eigenvalues --   -0.48225  -0.47514  -0.47475  -0.47082  -0.47039
 Alpha  occ. eigenvalues --   -0.46627  -0.46578  -0.46481  -0.46315  -0.46185
 Alpha  occ. eigenvalues --   -0.46138  -0.45994  -0.45934  -0.45720  -0.45582
 Alpha  occ. eigenvalues --   -0.45132  -0.45003  -0.44427  -0.44391  -0.44341
 Alpha  occ. eigenvalues --   -0.44297  -0.44045  -0.43995  -0.43935  -0.43862
 Alpha  occ. eigenvalues --   -0.43851  -0.43789  -0.43459  -0.43302  -0.43250
 Alpha  occ. eigenvalues --   -0.43163  -0.42837  -0.42802  -0.42799  -0.42483
 Alpha  occ. eigenvalues --   -0.42476  -0.42397  -0.41885  -0.41793  -0.41572
 Alpha  occ. eigenvalues --   -0.41475  -0.41385  -0.41299  -0.40920  -0.40911
 Alpha  occ. eigenvalues --   -0.40651  -0.40648  -0.40627  -0.40618  -0.40416
 Alpha  occ. eigenvalues --   -0.40365  -0.40160  -0.39975  -0.39350  -0.39255
 Alpha  occ. eigenvalues --   -0.38277  -0.38266  -0.37581  -0.37497  -0.37188
 Alpha  occ. eigenvalues --   -0.37120  -0.37110  -0.37017  -0.36664  -0.36447
 Alpha  occ. eigenvalues --   -0.36130  -0.35943  -0.34167  -0.34055  -0.33745
 Alpha  occ. eigenvalues --   -0.33465  -0.33089  -0.32950  -0.31200  -0.31152
 Alpha  occ. eigenvalues --   -0.30890  -0.30807  -0.29823  -0.29783  -0.29241
 Alpha  occ. eigenvalues --   -0.29226  -0.29113  -0.29088  -0.23953  -0.23849
 Alpha  occ. eigenvalues --   -0.21033  -0.20902
 Alpha virt. eigenvalues --   -0.08705  -0.08549  -0.01604  -0.01527   0.00053
 Alpha virt. eigenvalues --    0.00160   0.02312   0.02432   0.03313   0.03428
 Alpha virt. eigenvalues --    0.04804   0.04953   0.05284   0.05396   0.06251

 Mulliken charges:
               1
     1  Mg   0.840248
     2  C   -0.002085
     3  C   -0.093943
     4  C   -0.046132
     5  C   -0.064222
     6  N   -0.256712
     7  C   -0.052062
     8  C   -0.014237
     9  C   -0.087081
    10  C    0.046642
    11  C    0.104952
    12  C    0.053418
    13  C   -0.071688
    14  H    0.036639
    15  N   -0.433004
    16  C    0.168633
    17  C   -0.177222
    18  C   -0.004208
    19  C    0.148802
    20  C    0.110306
    21  C    0.012162
    22  O   -0.250238
    23  C    0.062494
    24  N   -0.341194
    25  C    0.041197
    26  C   -0.028010
    27  C   -0.023934
    28  C    0.075002
    29  C    0.076340
    30  C    0.035225
    31  C   -0.004460
    32  N   -0.310621
    33  C    0.080885
    34  C   -0.169480
    35  C    0.008446
    36  C    0.083739
    37  C    0.127195
    38  C    0.046737
    39  O   -0.188316
    40  C   -0.005619
    41  C    0.212423
    42  O   -0.254867
    43  O   -0.305364
    44  C    0.157589
    45  H   -0.018057
    46  H   -0.017410
    47  H   -0.041831
    48  H    0.000605
    49  H   -0.004150
    50  H    0.025270
    51  H    0.016149
    52  H    0.016175
    53  H    0.011853
    54  H    0.045767
    55  H    0.017077
    56  H    0.017524
    57  H    0.005726
    58  H    0.026231
    59  H    0.039473
    60  H    0.037086
    61  H    0.035011
    62  H    0.031705
    63  H    0.016145
    64  H    0.009122
    65  H    0.022701
    66  H    0.012459
    67  H    0.004419
    68  H    0.005717
    69  H    0.004626
    70  H    0.008240
    71  H    0.017718
    72  H    0.030056
    73  H    0.048027
    74  H    0.008842
    75  H    0.045584
    76  H    0.034614
    77  H    0.042241
    78  H    0.046028
    79  H    0.054883
    80  Mg   0.837791
    81  C   -0.016758
    82  C   -0.087875
    83  C   -0.045562
    84  C   -0.064972
    85  N   -0.254485
    86  C   -0.049912
    87  C   -0.014994
    88  C   -0.090466
    89  C    0.045614
    90  C    0.114482
    91  C    0.062556
    92  C   -0.077776
    93  H    0.034992
    94  N   -0.423428
    95  C    0.162766
    96  C   -0.174827
    97  C   -0.007957
    98  C    0.152009
    99  C    0.099451
   100  C    0.015463
   101  O   -0.253380
   102  C    0.061238
   103  N   -0.350102
   104  C    0.037389
   105  C   -0.019761
   106  C   -0.034868
   107  C    0.089034
   108  C    0.073744
   109  C    0.034763
   110  C   -0.007665
   111  N   -0.324240
   112  C    0.078565
   113  C   -0.162855
   114  C    0.002673
   115  C    0.096289
   116  C    0.131395
   117  C    0.042548
   118  O   -0.185889
   119  C    0.000682
   120  C    0.211807
   121  O   -0.250581
   122  O   -0.305979
   123  C    0.151951
   124  H   -0.019975
   125  H   -0.015759
   126  H   -0.040284
   127  H   -0.000866
   128  H   -0.004484
   129  H    0.022211
   130  H    0.014350
   131  H    0.015929
   132  H    0.013912
   133  H    0.037984
   134  H    0.020471
   135  H    0.019406
   136  H    0.008564
   137  H    0.025863
   138  H    0.039631
   139  H    0.038108
   140  H    0.036216
   141  H    0.033873
   142  H    0.014318
   143  H    0.012375
   144  H    0.024973
   145  H    0.011502
   146  H    0.005567
   147  H    0.006082
   148  H    0.003741
   149  H    0.010806
   150  H    0.018029
   151  H    0.030262
   152  H    0.047564
   153  H    0.008380
   154  H    0.046763
   155  H    0.034534
   156  H    0.043900
   157  H    0.048931
   158  H    0.054253
 Sum of Mulliken charges =  -0.00000

 Dipole moment (field-independent basis, Debye):
    X=             -1.3624    Y=              1.5432    Z=              6.8309  Tot=              7.1344
 Quadrupole moment (field-independent basis, Debye-Ang):
   XX=           -451.6658   YY=           -482.5536   ZZ=           -506.0637
   XY=            -31.2456   XZ=              6.2344   YZ=             48.3565

 Normal termination of Gaussian 16 at Sun Sep 12 02:35:25 2021.
