 Gaussian 16, Revision A.03,
 Gaussian 16:  ES64L-G16RevA.03 25-Dec-2016

 -----------------------------------
 #p cam-b3lyp/Def2SVP td=(nstates=5)
 -----------------------------------

 --------------------------------
 TDDFT excited states in gaussian
 --------------------------------
 Symbolic Z-matrix:
 Charge =  0 Multiplicity = 1

                         Standard orientation:
 ---------------------------------------------------------------------
 Center     Atomic      Atomic             Coordinates (Angstroms)
 Number     Number       Type             X           Y           Z
 ---------------------------------------------------------------------
      1         12           0       15.608122   -0.884860    0.263564
      2          6           0       15.867584    2.423102   -1.078926
      3          6           0       16.454204    0.438577    3.292710
      4          6           0       15.829882   -3.847077    1.373840
      5          6           0       15.903540   -2.073123   -2.999322
      6          7           0       16.075434    1.183361    0.899746
      7          6           0       16.081248    2.369849    0.300260
      8          6           0       16.260995    3.560623    1.288755
      9          6           0       16.987934    2.790744    2.480747
     10          6           0       16.447203    1.393551    2.232989
     11          6           0       18.507228    2.759914    2.349223
     12          6           0       14.891082    4.164246    1.747785
     13          6           0       14.977785    5.523571    2.447836
     14          1           0       13.916117    6.493889    2.227177
     15          7           0       15.593269   -1.561951    2.119413
     16          6           0       15.954117   -0.880222    3.233110
     17          6           0       15.767435   -1.816401    4.362446
     18          6           0       15.450097   -3.156336    3.795028
     19          6           0       15.639960   -2.911516    2.388119
     20          6           0       15.845687   -1.398892    5.798870
     21          6           0       15.050892   -4.454571    4.422207
     22          8           0       15.048615   -5.553403    3.768650
     23          6           0       14.743621   -4.420789    5.863555
     24          7           0       16.053994   -2.711540   -0.643119
     25          6           0       16.025551   -3.852899    0.053641
     26          6           0       16.096833   -5.046994   -0.851342
     27          6           0       15.934761   -4.485700   -2.337422
     28          6           0       15.877126   -2.972490   -2.013163
     29          6           0       17.381736   -5.881489   -0.758311
     30          6           0       14.803897   -5.098531   -3.201137
     31          6           0       13.456952   -4.711003   -2.633108
     32          7           0       15.666830   -0.011181   -1.722458
     33          6           0       15.817536   -0.692237   -2.939062
     34          6           0       15.908737    0.329846   -3.997881
     35          6           0       15.820820    1.542747   -3.317450
     36          6           0       15.709794    1.294590   -1.919457
     37          6           0       16.111465    0.078479   -5.383575
     38          6           0       15.819617    2.991148   -3.443908
     39          8           0       15.792943    3.778930   -4.390577
     40          6           0       15.972431    3.621231   -1.989443
     41          6           0       14.935406    4.702332   -1.851208
     42          8           0       13.719274    4.423213   -1.829270
     43          8           0       15.537675    5.857598   -1.530003
     44          6           0       14.561975    6.965480   -1.349001
     45          1           0       16.938238    0.700103    4.235713
     46          1           0       15.801257   -4.887921    1.702874
     47          1           0       15.911775   -2.370579   -4.049515
     48          1           0       16.898990    4.364385    0.920852
     49          1           0       16.665766    3.154274    3.456337
     50          1           0       18.832253    3.161223    1.389415
     51          1           0       18.785686    1.709527    2.436638
     52          1           0       18.979309    3.266156    3.191621
     53          1           0       14.487532    3.561843    2.561615
     54          1           0       14.199680    4.234978    0.907376
     55          1           0       15.954333    5.985887    2.301115
     56          1           0       14.915120    5.358405    3.523473
     57          1           0       16.256375   -0.395322    5.902437
     58          1           0       16.581376   -2.044271    6.278407
     59          1           0       14.885973   -1.494623    6.306923
     60          1           0       15.616280   -4.061265    6.409227
     61          1           0       14.391693   -5.419539    6.119478
     62          1           0       13.951137   -3.692603    6.038660
     63          1           0       15.286824   -5.744693   -0.642711
     64          1           0       16.835670   -4.637343   -2.932435
     65          1           0       17.206121   -6.930622   -0.519179
     66          1           0       18.033302   -5.415755   -0.019498
     67          1           0       18.009606   -5.854719   -1.648523
     68          1           0       14.859188   -6.186426   -3.181781
     69          1           0       14.839823   -4.783128   -4.243961
     70          1           0       13.300314   -5.452539   -1.850535
     71          1           0       12.685341   -4.784030   -3.400243
     72          1           0       13.493942   -3.733091   -2.152684
     73          1           0       15.428105    0.739405   -5.916646
     74          1           0       15.923175   -0.966678   -5.628111
     75          1           0       17.162368    0.348545   -5.486157
     76          1           0       16.986040    4.015400   -1.923496
     77          1           0       14.861096    7.769669   -2.021341
     78          1           0       14.534401    7.182725   -0.281083
     79          1           0       13.545872    6.774419   -1.695942
     80         12           0      -16.143557   -0.518477   -0.201591
     81          6           0      -13.833743    2.227265   -0.132400
     82          6           0      -17.789489    0.995727    2.373811
     83          6           0      -17.925714   -3.130148    0.063945
     84          6           0      -13.724211   -2.329107   -1.937705
     85          7           0      -15.764171    1.365935    0.892619
     86          6           0      -14.892575    2.358008    0.790217
     87          6           0      -15.217282    3.593079    1.672671
     88          6           0      -16.106968    2.861781    2.791825
     89          6           0      -16.618779    1.683508    1.965755
     90          6           0      -15.287805    2.314024    3.948663
     91          6           0      -16.045283    4.678891    0.899721
     92          6           0      -16.132453    6.038211    1.597164
     93          1           0      -16.139547    7.243969    0.773424
     94          7           0      -17.900535   -0.790121    0.680340
     95          6           0      -18.421730   -0.069190    1.695165
     96          6           0      -19.725089   -0.681563    1.995839
     97          6           0      -19.857805   -1.923347    1.186468
     98          6           0      -18.528721   -2.009007    0.615264
     99          6           0      -20.731660   -0.045230    2.909800
    100          6           0      -20.989204   -2.882876    0.973267
    101          8           0      -20.808969   -4.023572    0.417256
    102          6           0      -22.296002   -2.487100    1.518347
    103          7           0      -15.792538   -2.517006   -0.654376
    104          6           0      -16.754878   -3.441955   -0.492157
    105          6           0      -16.367972   -4.750796   -1.138387
    106          6           0      -15.044608   -4.439449   -1.980616
    107          6           0      -14.835943   -2.960721   -1.586605
    108          6           0      -16.100196   -5.911862   -0.180999
    109          6           0      -15.068399   -4.805961   -3.489847
    110          6           0      -16.048426   -3.917270   -4.221385
    111          7           0      -14.215294   -0.094344   -1.079063
    112          6           0      -13.358753   -1.004165   -1.736830
    113          6           0      -12.113565   -0.276404   -2.056666
    114          6           0      -12.324715    1.010117   -1.538233
    115          6           0      -13.602645    1.073476   -0.919872
    116          6           0      -10.968685   -0.828279   -2.697602
    117          6           0      -11.752849    2.325929   -1.364111
    118          8           0      -10.730563    2.887564   -1.755574
    119          6           0      -12.653235    3.136116   -0.334900
    120          6           0      -12.910245    4.499594   -0.915726
    121          8           0      -13.582610    4.627803   -1.954043
    122          8           0      -12.507821    5.435817   -0.037147
    123          6           0      -12.752297    6.805114   -0.563534
    124          1           0      -18.245888    1.267976    3.325893
    125          1           0      -18.543949   -4.030272    0.031764
    126          1           0      -12.960970   -2.795380   -2.564393
    127          1           0      -14.355459    4.062910    2.131259
    128          1           0      -16.933668    3.490489    3.112222
    129          1           0      -14.226758    2.403526    3.768942
    130          1           0      -15.569323    1.273281    4.041641
    131          1           0      -15.590016    2.792746    4.884514
    132          1           0      -17.105385    4.394582    0.909090
    133          1           0      -15.668848    4.807364   -0.096478
    134          1           0      -15.401798    6.132189    2.409726
    135          1           0      -17.100976    6.109769    2.098025
    136          1           0      -20.288632    0.775950    3.486674
    137          1           0      -20.997539   -0.794190    3.663613
    138          1           0      -21.638011    0.266549    2.386350
    139          1           0      -22.207549   -2.330514    2.590780
    140          1           0      -22.995664   -3.257564    1.188578
    141          1           0      -22.579654   -1.522927    1.081861
    142          1           0      -17.142437   -5.092227   -1.814212
    143          1           0      -14.176183   -4.993106   -1.594442
    144          1           0      -16.732838   -6.797238   -0.380923
    145          1           0      -16.247292   -5.560232    0.831553
    146          1           0      -15.069660   -6.261990   -0.156542
    147          1           0      -15.419283   -5.832032   -3.624892
    148          1           0      -14.097170   -4.732236   -3.967598
    149          1           0      -17.008153   -4.413254   -4.048165
    150          1           0      -15.810778   -3.877019   -5.282490
    151          1           0      -16.101717   -2.925201   -3.758120
    152          1           0      -10.638164   -0.099746   -3.425949
    153          1           0      -11.196789   -1.783823   -3.165232
    154          1           0      -10.300012   -0.940245   -1.839940
    155          1           0      -12.106758    3.188947    0.607515
    156          1           0      -11.793738    7.332614   -0.539190
    157          1           0      -13.571549    7.220346    0.053044
    158          1           0      -13.019229    6.899687   -1.609594
 ---------------------------------------------------------------------

 SCF Done:  E(RCAM-B3LYP) =  -4069.81174135     A.U. after   19 cycles

 Excitation energies and oscillator strengths:

 Excited State   1:      Singlet-A      1.6755 eV  739.98 nm  f=0.3390  <S**2>=0.000
     309 -> 316        0.17158
     311 -> 313        0.67814
     312 -> 314       -0.10385
     309 <- 316        0.10342
 This state for optimization and/or second-order correction.
 Total Energy, E(TD-HF/TD-DFT) =  -4069.75016742
 Copying the excited state density for this state as the 1-particle RhoCI density.

 Excited State   2:      Singlet-A      1.6799 eV  738.03 nm  f=0.4418  <S**2>=0.000
     310 -> 315        0.17353
     311 -> 313        0.10383
     312 -> 314        0.67779
     310 <- 315        0.10391

 Excited State   3:      Singlet-A      2.1861 eV  567.14 nm  f=0.0944  <S**2>=0.000
     309 -> 313        0.64200
     311 -> 316       -0.27296

 Excited State   4:      Singlet-A      2.1925 eV  565.50 nm  f=0.1056  <S**2>=0.000
     310 -> 314        0.64025
     312 -> 315       -0.27808

 Excited State   5:      Singlet-A      3.0504 eV  406.46 nm  f=0.0000  <S**2>=0.000
     312 -> 313        0.70709

 The electronic state is 1-A.
 Alpha  occ. eigenvalues --  -46.87745 -46.87659 -19.26343 -19.26227 -19.19155
 Alpha  occ. eigenvalues --  -19.18962 -19.18766 -19.18714 -19.18117 -19.18046
 Alpha  occ. eigenvalues --  -14.42496 -14.42399 -14.41399 -14.41358 -14.39352
 Alpha  occ. eigenvalues --  -14.39351 -14.38598 -14.38535 -10.39085 -10.39022
 Alpha  occ. eigenvalues --  -10.35400 -10.35391 -10.34336 -10.34223 -10.31749
 Alpha  occ. eigenvalues --  -10.31620 -10.31354 -10.31307 -10.31023 -10.30858
 Alpha  occ. eigenvalues --  -10.30518 -10.30456 -10.30396 -10.30358 -10.30157
 Alpha  occ. eigenvalues --  -10.30140 -10.29893 -10.29870 -10.29580 -10.29436
 Alpha  occ. eigenvalues --  -10.29399 -10.29204 -10.28718 -10.28697 -10.28653
 Alpha  occ. eigenvalues --  -10.28484 -10.28403 -10.28314 -10.28140 -10.28066
 Alpha  occ. eigenvalues --  -10.27998 -10.27742 -10.27677 -10.27668 -10.27534
 Alpha  occ. eigenvalues --  -10.27517 -10.27482 -10.27467 -10.27464 -10.27452
 Alpha  occ. eigenvalues --  -10.27433 -10.27401 -10.27375 -10.27352 -10.27105
 Alpha  occ. eigenvalues --  -10.27046 -10.26691 -10.26650 -10.26416 -10.26364
 Alpha  occ. eigenvalues --  -10.26187 -10.26135 -10.26133 -10.26027 -10.25969
 Alpha  occ. eigenvalues --  -10.25933 -10.25843 -10.25792 -10.25398 -10.25390
 Alpha  occ. eigenvalues --  -10.24870 -10.24781 -10.24737 -10.24728 -10.24689
 Alpha  occ. eigenvalues --  -10.24633  -3.16488  -3.16409  -1.91369  -1.91291
 Alpha  occ. eigenvalues --   -1.90956  -1.90880  -1.90798  -1.90717  -1.16637
 Alpha  occ. eigenvalues --   -1.16575  -1.08652  -1.08574  -1.07168  -1.06967
 Alpha  occ. eigenvalues --   -1.06939  -1.06585  -1.04530  -1.04494  -1.03710
 Alpha  occ. eigenvalues --   -1.03662  -1.03183  -1.03037  -1.02360  -1.02110
 Alpha  occ. eigenvalues --   -0.91985  -0.91920  -0.89493  -0.89469  -0.89151
 Alpha  occ. eigenvalues --   -0.89137  -0.88237  -0.88219  -0.87819  -0.87790
 Alpha  occ. eigenvalues --   -0.87683  -0.87622  -0.87224  -0.87119  -0.84999
 Alpha  occ. eigenvalues --   -0.84931  -0.83886  -0.83875  -0.82931  -0.82918
 Alpha  occ. eigenvalues --   -0.82652  -0.82597  -0.81593  -0.81532  -0.80544
 Alpha  occ. eigenvalues --   -0.80440  -0.78747  -0.78634  -0.77167  -0.77143
 Alpha  occ. eigenvalues --   -0.76896  -0.76882  -0.75871  -0.75837  -0.74848
 Alpha  occ. eigenvalues --   -0.74802  -0.72723  -0.72697  -0.71622  -0.71580
 Alpha  occ. eigenvalues --   -0.69856  -0.69756  -0.68826  -0.68822  -0.67600
 Alpha  occ. eigenvalues --   -0.67590  -0.67199  -0.67168  -0.65270  -0.65234
 Alpha  occ. eigenvalues --   -0.64802  -0.64768  -0.64652  -0.64569  -0.64219
 Alpha  occ. eigenvalues --   -0.64202  -0.62274  -0.62243  -0.60392  -0.60339
 Alpha  occ. eigenvalues --   -0.59795  -0.59753  -0.58991  -0.58936  -0.58452
 Alpha  occ. eigenvalues --   -0.58423  -0.57550  -0.57531  -0.57258  -0.57235
 Alpha  occ. eigenvalues --   -0.56259  -0.56202  -0.55924  -0.55883  -0.55470
 Alpha  occ. eigenvalues --   -0.55450  -0.55288  -0.55245  -0.54485  -0.54470
 Alpha  occ. eigenvalues --   -0.53912  -0.53843  -0.53248  -0.53226  -0.53171
 Alpha  occ. eigenvalues --   -0.53140  -0.52900  -0.52862  -0.52706  -0.52668
 Alpha  occ. eigenvalues --   -0.52399  -0.52387  -0.51880  -0.51863  -0.51657
 Alpha  occ. eigenvalues --   -0.51565  -0.51198  -0.51144  -0.50524  -0.50475
 Alpha  occ. eigenvalues --   -0.49982  -0.49979  -0.49869  -0.49866  -0.49487
 Alpha  occ. eigenvalues --   -0.49464  -0.49200  -0.49163  -0.49102  -0.49045
 Alpha  occ. eigenvalues --   -0.48556  -0.48541  -0.48412  -0.48394  -0.48374
 Alpha  occ. eigenvalues --   -0.48337  -0.47644  -0.47593  -0.47247  -0.47117
 Alpha  occ. eigenvalues --   -0.46746  -0.46707  -0.46553  -0.46504  -0.46308
 Alpha  occ. eigenvalues --   -0.46269  -0.46111  -0.46083  -0.45818  -0.45769
 Alpha  occ. eigenvalues --   -0.45208  -0.45152  -0.44525  -0.44511  -0.44475
 Alpha  occ. eigenvalues --   -0.44457  -0.44126  -0.44093  -0.44076  -0.44037
 Alpha  occ. eigenvalues --   -0.43968  -0.43937  -0.43549  -0.43441  -0.43384
 Alpha  occ. eigenvalues --   -0.43335  -0.42976  -0.42927  -0.42898  -0.42645
 Alpha  occ. eigenvalues --   -0.42601  -0.42552  -0.41962  -0.41958  -0.41667
 Alpha  occ. eigenvalues --   -0.41652  -0.41482  -0.41458  -0.41091  -0.40989
 Alpha  occ. eigenvalues --   -0.40818  -0.40774  -0.40722  -0.40698  -0.40521
 Alpha  occ. eigenvalues --   -0.40492  -0.40226  -0.40181  -0.39424  -0.39390
 Alpha  occ. eigenvalues --   -0.38419  -0.38350  -0.37695  -0.37653  -0.37270
 Alpha  occ. eigenvalues --   -0.37265  -0.37211  -0.37198  -0.36766  -0.36658
 Alpha  occ. eigenvalues --   -0.36215  -0.36140  -0.34252  -0.34235  -0.33857
 Alpha  occ. eigenvalues --   -0.33713  -0.33174  -0.33135  -0.31296  -0.31273
 Alpha  occ. eigenvalues --   -0.30984  -0.30972  -0.29976  -0.29950  -0.29398
 Alpha  occ. eigenvalues --   -0.29326  -0.29270  -0.29209  -0.24035  -0.24029
 Alpha  occ. eigenvalues --   -0.21116  -0.21077
 Alpha virt. eigenvalues --   -0.08790  -0.08723  -0.01699  -0.01683  -0.00028
 Alpha virt. eigenvalues --   -0.00008   0.02210   0.02252   0.03178   0.03231
 Alpha virt. eigenvalues --    0.04730   0.04769   0.05155   0.05170   0.06184

 Mulliken charges:
               1
     1  Mg   0.838815
     2  C   -0.002926
     3  C   -0.094116
     4  C   -0.045877
     5  C   -0.063970
     6  N   -0.256786
     7  C   -0.052455
     8  C   -0.014011
     9  C   -0.086997
    10  C    0.046348
    11  C    0.104826
    12  C    0.053450
    13  C   -0.071823
    14  H    0.036242
    15  N   -0.433126
    16  C    0.168421
    17  C   -0.177165
    18  C   -0.004031
    19  C    0.148724
    20  C    0.110191
    21  C    0.012287
    22  O   -0.249662
    23  C    0.062469
    24  N   -0.341153
    25  C    0.041221
    26  C   -0.028165
    27  C   -0.023985
    28  C    0.074871
    29  C    0.076202
    30  C    0.035136
    31  C   -0.004507
    32  N   -0.310489
    33  C    0.080456
    34  C   -0.169686
    35  C    0.008374
    36  C    0.083023
    37  C    0.127296
    38  C    0.046149
    39  O   -0.188397
    40  C   -0.005343
    41  C    0.212870
    42  O   -0.256995
    43  O   -0.304840
    44  C    0.157665
    45  H   -0.017654
    46  H   -0.016879
    47  H   -0.041494
    48  H    0.000916
    49  H   -0.004039
    50  H    0.025452
    51  H    0.016412
    52  H    0.016606
    53  H    0.011237
    54  H    0.044202
    55  H    0.017809
    56  H    0.017925
    57  H    0.005854
    58  H    0.026753
    59  H    0.039563
    60  H    0.037296
    61  H    0.035605
    62  H    0.031549
    63  H    0.016555
    64  H    0.009415
    65  H    0.023164
    66  H    0.012509
    67  H    0.004707
    68  H    0.006316
    69  H    0.004737
    70  H    0.008764
    71  H    0.018216
    72  H    0.029033
    73  H    0.047644
    74  H    0.009118
    75  H    0.045958
    76  H    0.035103
    77  H    0.042932
    78  H    0.046383
    79  H    0.053800
    80  Mg   0.837912
    81  C   -0.016849
    82  C   -0.087817
    83  C   -0.045503
    84  C   -0.064872
    85  N   -0.254590
    86  C   -0.049842
    87  C   -0.015084
    88  C   -0.090514
    89  C    0.045759
    90  C    0.114396
    91  C    0.062532
    92  C   -0.077911
    93  H    0.034946
    94  N   -0.423511
    95  C    0.162930
    96  C   -0.174635
    97  C   -0.007825
    98  C    0.152101
    99  C    0.099369
   100  C    0.015557
   101  O   -0.253188
   102  C    0.061204
   103  N   -0.350079
   104  C    0.037483
   105  C   -0.019831
   106  C   -0.034817
   107  C    0.088908
   108  C    0.073658
   109  C    0.034741
   110  C   -0.007682
   111  N   -0.324134
   112  C    0.078473
   113  C   -0.163111
   114  C    0.002281
   115  C    0.096216
   116  C    0.131497
   117  C    0.042415
   118  O   -0.187737
   119  C    0.000946
   120  C    0.211274
   121  O   -0.250999
   122  O   -0.305640
   123  C    0.152005
   124  H   -0.019692
   125  H   -0.015582
   126  H   -0.040398
   127  H   -0.000646
   128  H   -0.004332
   129  H    0.022455
   130  H    0.014409
   131  H    0.016247
   132  H    0.013918
   133  H    0.037712
   134  H    0.020772
   135  H    0.019575
   136  H    0.008746
   137  H    0.026117
   138  H    0.039797
   139  H    0.038233
   140  H    0.036394
   141  H    0.033904
   142  H    0.014408
   143  H    0.012433
   144  H    0.025137
   145  H    0.011610
   146  H    0.005676
   147  H    0.006267
   148  H    0.003698
   149  H    0.010921
   150  H    0.017980
   151  H    0.030093
   152  H    0.046111
   153  H    0.008546
   154  H    0.046984
   155  H    0.035026
   156  H    0.043969
   157  H    0.049459
   158  H    0.053624
 Sum of Mulliken charges =  -0.00000

 Dipole moment (field-independent basis, Debye):
    X=             -0.3873    Y=              0.2577    Z=              7.9366  Tot=              7.9502
 Quadrupole moment (field-independent basis, Debye-Ang):
   XX=           -389.6755   YY=           -500.5861   ZZ=           -491.4384
   XY=            -27.3976   XZ=              1.4120   YZ=             57.7090

 Normal termination of Gaussian 16 at Sun Sep 12 17:31:51 2021.
