 Gaussian 16, Revision A.03,
 Gaussian 16:  ES64L-G16RevA.03 25-Dec-2016

 -----------------------------------
 #p cam-b3lyp/Def2SVP td=(nstates=5)
 -----------------------------------

 --------------------------------
 TDDFT excited states in gaussian
 --------------------------------
 Symbolic Z-matrix:
 Charge =  0 Multiplicity = 1

                         Standard orientation:
 ---------------------------------------------------------------------
 Center     Atomic      Atomic             Coordinates (Angstroms)
 Number     Number       Type             X           Y           Z
 ---------------------------------------------------------------------
      1         12           0       -3.619479    0.835414    0.384419
      2          6           0       -4.029081   -2.347561    1.969698
      3          6           0       -4.096074    2.256648    3.449711
      4          6           0       -3.714498    3.657344   -1.059293
      5          6           0       -4.303765   -0.749660   -2.642949
      6          7           0       -4.002948   -0.039914    2.381266
      7          6           0       -4.077268   -1.276150    2.864349
      8          6           0       -4.135352   -1.328964    4.420373
      9          6           0       -4.717113    0.128863    4.700185
     10          6           0       -4.212966    0.834906    3.453885
     11          6           0       -6.241331    0.184375    4.713530
     12          6           0       -2.719149   -1.513565    5.062263
     13          6           0       -2.718772   -1.900072    6.544143
     14          1           0       -1.688631   -2.804793    7.031623
     15          7           0       -3.385521    2.656334    1.114050
     16          6           0       -3.609714    3.052491    2.390014
     17          6           0       -3.292188    4.496179    2.430309
     18          6           0       -3.047744    4.947504    1.032223
     19          6           0       -3.403068    3.762378    0.294253
     20          6           0       -3.198015    5.282780    3.701584
     21          6           0       -2.579795    6.244857    0.452541
     22          8           0       -2.657857    6.498529   -0.798112
     23          6           0       -2.103149    7.258611    1.410743
     24          7           0       -4.174323    1.428739   -1.538534
     25          6           0       -4.065856    2.704530   -1.925283
     26          6           0       -4.247090    2.842950   -3.407826
     27          6           0       -4.261657    1.356941   -3.992050
     28          6           0       -4.162317    0.577687   -2.657447
     29          6           0       -5.513746    3.581954   -3.861108
     30          6           0       -3.243019    1.032179   -5.113355
     31          6           0       -1.837158    1.074682   -4.557615
     32          7           0       -3.912006   -1.209363   -0.282183
     33          6           0       -4.207975   -1.637467   -1.584414
     34          6           0       -4.422107   -3.094964   -1.521810
     35          6           0       -4.251027   -3.413037   -0.175925
     36          6           0       -3.975050   -2.225409    0.560056
     37          6           0       -4.788840   -3.931027   -2.613111
     38          6           0       -4.261491   -4.476410    0.815531
     39          8           0       -4.345791   -5.704510    0.769093
     40          6           0       -4.238707   -3.812393    2.262731
     41          6           0       -3.190077   -4.524469    3.073059
     42          8           0       -1.980628   -4.426919    2.781369
     43          8           0       -3.747152   -5.008981    4.193531
     44          6           0       -2.754260   -5.702127    5.057168
     45          1           0       -4.463867    2.819015    4.310183
     46          1           0       -3.649364    4.594592   -1.615855
     47          1           0       -4.437580   -1.324294   -3.561285
     48          1           0       -4.810705   -2.083214    4.824637
     49          1           0       -4.280316    0.576976    5.592443
     50          1           0       -6.677298   -0.764067    4.399982
     51          1           0       -6.509867    0.976466    4.014264
     52          1           0       -6.608653    0.507618    5.687884
     53          1           0       -2.223052   -0.544930    5.123045
     54          1           0       -2.132479   -2.240779    4.499854
     55          1           0       -3.704756   -2.233138    6.869429
     56          1           0       -2.528969   -1.001577    7.131408
     57          1           0       -3.591117    4.722715    4.549135
     58          1           0       -3.872935    6.132525    3.600965
     59          1           0       -2.184901    5.638300    3.890097
     60          1           0       -2.903848    7.496033    2.111501
     61          1           0       -1.725608    8.085685    0.810525
     62          1           0       -1.293760    6.831302    2.003404
     63          1           0       -3.419646    3.393769   -3.853202
     64          1           0       -5.227310    1.097849   -4.426861
     65          1           0       -5.313382    4.445690   -4.495553
     66          1           0       -6.071697    3.871505   -2.971085
     67          1           0       -6.243003    2.961958   -4.381883
     68          1           0       -3.298157    1.779822   -5.903884
     69          1           0       -3.402018    0.054949   -5.569415
     70          1           0       -1.590264    2.134874   -4.600837
     71          1           0       -1.162468    0.490824   -5.184603
     72          1           0       -1.814443    0.777311   -3.509025
     73          1           0       -4.172211   -4.826126   -2.532272
     74          1           0       -4.633424   -3.427778   -3.567150
     75          1           0       -5.843850   -4.096334   -2.395201
     76          1           0       -5.236347   -3.939754    2.681796
     77          1           0       -3.129364   -6.710610    5.231792
     78          1           0       -2.599322   -5.062381    5.926147
     79          1           0       -1.787099   -5.918249    4.601944
     80         12           0        4.237520    0.005229   -0.269109
     81          6           0        2.050170   -1.495671   -2.686092
     82          6           0        3.236718    3.037850   -1.467523
     83          6           0        6.479804    1.345596    1.531738
     84          6           0        5.881418   -3.060538   -0.058490
     85          7           0        2.820859    0.568687   -1.871552
     86          6           0        2.001672   -0.086046   -2.680623
     87          6           0        1.021635    0.819339   -3.473953
     88          6           0        1.871635    2.181404   -3.440035
     89          6           0        2.671741    1.938453   -2.161963
     90          6           0        2.847901    2.310547   -4.597432
     91          6           0       -0.359257    0.985771   -2.747698
     92          6           0       -1.467635    1.599005   -3.606289
     93          1           0       -2.836951    1.129154   -3.414718
     94          7           0        4.440220    1.881591    0.344689
     95          6           0        3.949865    2.989604   -0.249567
     96          6           0        4.391386    4.120575    0.581182
     97          6           0        5.320425    3.603264    1.622329
     98          6           0        5.469031    2.229940    1.184153
     99          6           0        3.871002    5.516675    0.398053
    100          6           0        5.977725    4.242570    2.807841
    101          8           0        6.934074    3.667925    3.438725
    102          6           0        5.532282    5.600977    3.151063
    103          7           0        6.062894   -0.680139    0.452426
    104          6           0        6.819722    0.086005    1.257514
    105          6           0        7.945263   -0.712637    1.870463
    106          6           0        7.642495   -2.238000    1.497426
    107          6           0        6.387525   -2.039479    0.619339
    108          6           0        9.353338   -0.344581    1.403297
    109          6           0        7.568759   -3.249043    2.674302
    110          6           0        6.360026   -2.954210    3.533044
    111          7           0        3.920802   -1.986031   -1.045408
    112          6           0        4.745222   -3.116677   -0.855537
    113          6           0        4.179380   -4.210117   -1.672016
    114          6           0        3.069461   -3.628614   -2.303214
    115          6           0        2.963641   -2.263220   -1.923737
    116          6           0        4.718637   -5.521745   -1.794343
    117          6           0        1.969491   -3.856476   -3.212521
    118          8           0        1.503297   -4.842308   -3.782208
    119          6           0        1.334426   -2.451724   -3.599493
    120          6           0       -0.159424   -2.564290   -3.464380
    121          8           0       -0.681173   -2.749225   -2.350736
    122          8           0       -0.734577   -2.219952   -4.630994
    123          6           0       -2.216774   -2.305171   -4.543538
    124          1           0        3.164542    4.028334   -1.917653
    125          1           0        7.217797    1.728066    2.240646
    126          1           0        6.278951   -4.073920    0.029283
    127          1           0        0.849690    0.513800   -4.499068
    128          1           0        1.225138    3.047706   -3.326283
    129          1           0        2.893392    1.408083   -5.188732
    130          1           0        3.810529    2.517703   -4.148576
    131          1           0        2.602010    3.188365   -5.201840
    132          1           0       -0.267299    1.761990   -1.977136
    133          1           0       -0.691936    0.049886   -2.342629
    134          1           0       -1.208533    1.603777   -4.672021
    135          1           0       -1.561227    2.656733   -3.348479
    136          1           0        3.328323    5.622636   -0.549399
    137          1           0        4.742577    6.170719    0.286476
    138          1           0        3.278004    5.860081    1.248405
    139          1           0        5.695064    6.259869    2.301468
    140          1           0        6.051685    5.853487    4.077531
    141          1           0        4.451544    5.579894    3.330453
    142          1           0        7.950588   -0.608913    2.948573
    143          1           0        8.420026   -2.659622    0.843582
    144          1           0       10.028643   -0.062347    2.232986
    145          1           0        9.275137    0.461349    0.685733
    146          1           0        9.865956   -1.115270    0.830178
    147          1           0        8.442824   -3.141487    3.321298
    148          1           0        7.531722   -4.284464    2.352546
    149          1           0        6.714484   -2.156302    4.192439
    150          1           0        6.069399   -3.835690    4.100984
    151          1           0        5.540232   -2.544822    2.931389
    152          1           0        3.884357   -6.208080   -1.735782
    153          1           0        5.455000   -5.722780   -1.019035
    154          1           0        5.174529   -5.453512   -2.785688
    155          1           0        1.637076   -2.226102   -4.622761
    156          1           0       -2.546725   -2.968552   -5.348986
    157          1           0       -2.578292   -1.260060   -4.571802
    158          1           0       -2.640137   -2.798484   -3.676449
 ---------------------------------------------------------------------

 SCF Done:  E(RCAM-B3LYP) =  -4068.63739845     A.U. after   27 cycles

 Excitation energies and oscillator strengths:

 Excited State   1:      Singlet-A      0.2748 eV 4512.23 nm  f=0.0002  <S**2>=0.000
     312 -> 313        0.70569
 This state for optimization and/or second-order correction.
 Total Energy, E(TD-HF/TD-DFT) =  -4068.62730070
 Copying the excited state density for this state as the 1-particle RhoCI density.

 Excited State   2:      Singlet-A      0.6882 eV 1801.63 nm  f=0.0409  <S**2>=0.000
     311 -> 315        0.15067
     312 -> 314       -0.39932
     312 -> 315        0.56248
     312 -> 316        0.11715
     312 <- 314        0.14538
     312 <- 315       -0.13963

 Excited State   3:      Singlet-A      0.8409 eV 1474.38 nm  f=0.0644  <S**2>=0.000
     312 -> 314        0.59145
     312 -> 315        0.37929
     312 <- 314       -0.11500

 Excited State   4:      Singlet-A      1.6821 eV  737.07 nm  f=0.2903  <S**2>=0.000
     308 -> 316       -0.17433
     310 -> 313        0.68270
     308 <- 316       -0.10489

 Excited State   5:      Singlet-A      1.9191 eV  646.05 nm  f=0.0810  <S**2>=0.000
     311 -> 313        0.27217
     311 -> 314        0.34191
     312 -> 316       -0.29354
     312 -> 317        0.11008
     312 -> 318        0.35263
     312 -> 319        0.14975

 The electronic state is 1-A.
 Alpha  occ. eigenvalues --  -46.88693 -46.84731 -19.28582 -19.24824 -19.20873
 Alpha  occ. eigenvalues --  -19.19399 -19.19015 -19.17413 -19.17084 -19.15255
 Alpha  occ. eigenvalues --  -14.43887 -14.42327 -14.40335 -14.39577 -14.38562
 Alpha  occ. eigenvalues --  -14.37260 -14.36414 -14.35706 -10.40785 -10.38205
 Alpha  occ. eigenvalues --  -10.37389 -10.36054 -10.35281 -10.34842 -10.33668
 Alpha  occ. eigenvalues --  -10.33371 -10.33165 -10.32777 -10.32749 -10.32716
 Alpha  occ. eigenvalues --  -10.32275 -10.31995 -10.31451 -10.31436 -10.31386
 Alpha  occ. eigenvalues --  -10.30968 -10.30874 -10.30854 -10.30473 -10.30424
 Alpha  occ. eigenvalues --  -10.30355 -10.30284 -10.29422 -10.29314 -10.28845
 Alpha  occ. eigenvalues --  -10.28835 -10.28834 -10.28798 -10.28515 -10.28368
 Alpha  occ. eigenvalues --  -10.28230 -10.28162 -10.28061 -10.27977 -10.27915
 Alpha  occ. eigenvalues --  -10.27562 -10.27507 -10.27348 -10.27028 -10.26975
 Alpha  occ. eigenvalues --  -10.26853 -10.26814 -10.26600 -10.26523 -10.26434
 Alpha  occ. eigenvalues --  -10.26375 -10.26359 -10.26098 -10.26016 -10.25999
 Alpha  occ. eigenvalues --  -10.25770 -10.25659 -10.25507 -10.25396 -10.25292
 Alpha  occ. eigenvalues --  -10.25084 -10.24882 -10.24121 -10.23928 -10.23925
 Alpha  occ. eigenvalues --  -10.23902 -10.23775 -10.23773 -10.23772 -10.22749
 Alpha  occ. eigenvalues --  -10.21194  -3.17436  -3.13487  -1.92314  -1.91912
 Alpha  occ. eigenvalues --   -1.91741  -1.88382  -1.87935  -1.87801  -1.36600
 Alpha  occ. eigenvalues --   -1.18751  -1.15137  -1.09715  -1.08631  -1.07635
 Alpha  occ. eigenvalues --   -1.07467  -1.06002  -1.05071  -1.04737  -1.03973
 Alpha  occ. eigenvalues --   -1.03873  -1.03616  -1.03086  -1.01856  -1.00723
 Alpha  occ. eigenvalues --   -1.00564  -0.99066  -0.94204  -0.93219  -0.90996
 Alpha  occ. eigenvalues --   -0.90339  -0.90247  -0.89120  -0.88846  -0.88569
 Alpha  occ. eigenvalues --   -0.87874  -0.87867  -0.87480  -0.86620  -0.86418
 Alpha  occ. eigenvalues --   -0.85349  -0.84773  -0.84629  -0.83771  -0.83448
 Alpha  occ. eigenvalues --   -0.83389  -0.83056  -0.82550  -0.81625  -0.81121
 Alpha  occ. eigenvalues --   -0.80087  -0.79814  -0.79747  -0.79473  -0.78458
 Alpha  occ. eigenvalues --   -0.78071  -0.77818  -0.76968  -0.76855  -0.75698
 Alpha  occ. eigenvalues --   -0.75601  -0.74665  -0.74269  -0.73689  -0.73357
 Alpha  occ. eigenvalues --   -0.72764  -0.71260  -0.70431  -0.69801  -0.69730
 Alpha  occ. eigenvalues --   -0.68603  -0.68478  -0.67315  -0.66993  -0.66395
 Alpha  occ. eigenvalues --   -0.66112  -0.65760  -0.65091  -0.64798  -0.64126
 Alpha  occ. eigenvalues --   -0.63869  -0.63737  -0.63020  -0.62734  -0.61871
 Alpha  occ. eigenvalues --   -0.61708  -0.61151  -0.60756  -0.60181  -0.59577
 Alpha  occ. eigenvalues --   -0.59173  -0.59002  -0.58154  -0.58036  -0.57546
 Alpha  occ. eigenvalues --   -0.57106  -0.56990  -0.56936  -0.56641  -0.56443
 Alpha  occ. eigenvalues --   -0.56302  -0.56009  -0.55891  -0.55490  -0.55447
 Alpha  occ. eigenvalues --   -0.54812  -0.54670  -0.54347  -0.54221  -0.54075
 Alpha  occ. eigenvalues --   -0.53795  -0.53653  -0.53423  -0.53274  -0.52943
 Alpha  occ. eigenvalues --   -0.52703  -0.52640  -0.52257  -0.51939  -0.51791
 Alpha  occ. eigenvalues --   -0.51678  -0.51553  -0.51023  -0.50975  -0.50665
 Alpha  occ. eigenvalues --   -0.50527  -0.50494  -0.50298  -0.50174  -0.49941
 Alpha  occ. eigenvalues --   -0.49784  -0.49631  -0.49271  -0.49219  -0.49057
 Alpha  occ. eigenvalues --   -0.48972  -0.48679  -0.48443  -0.48098  -0.47823
 Alpha  occ. eigenvalues --   -0.47725  -0.47577  -0.47516  -0.47388  -0.47228
 Alpha  occ. eigenvalues --   -0.47074  -0.46975  -0.46871  -0.46679  -0.46584
 Alpha  occ. eigenvalues --   -0.46390  -0.46325  -0.46224  -0.46037  -0.45633
 Alpha  occ. eigenvalues --   -0.45427  -0.45286  -0.45175  -0.45105  -0.44909
 Alpha  occ. eigenvalues --   -0.44758  -0.44692  -0.44649  -0.44548  -0.44279
 Alpha  occ. eigenvalues --   -0.44189  -0.43953  -0.43761  -0.43582  -0.43418
 Alpha  occ. eigenvalues --   -0.43305  -0.43056  -0.42890  -0.42749  -0.42487
 Alpha  occ. eigenvalues --   -0.42448  -0.42288  -0.42061  -0.41897  -0.41826
 Alpha  occ. eigenvalues --   -0.41314  -0.41269  -0.41214  -0.41090  -0.41035
 Alpha  occ. eigenvalues --   -0.40452  -0.40192  -0.40062  -0.39757  -0.39377
 Alpha  occ. eigenvalues --   -0.39349  -0.39033  -0.38829  -0.38663  -0.38466
 Alpha  occ. eigenvalues --   -0.38388  -0.38343  -0.38186  -0.37636  -0.37263
 Alpha  occ. eigenvalues --   -0.36169  -0.35830  -0.35443  -0.35375  -0.35263
 Alpha  occ. eigenvalues --   -0.34768  -0.34220  -0.34168  -0.33782  -0.32190
 Alpha  occ. eigenvalues --   -0.32087  -0.31901  -0.31889  -0.30984  -0.30620
 Alpha  occ. eigenvalues --   -0.30177  -0.30071  -0.29115  -0.28760  -0.28160
 Alpha  occ. eigenvalues --   -0.28029  -0.25370  -0.25117  -0.22225  -0.22194
 Alpha  occ. eigenvalues --   -0.20668  -0.14804
 Alpha virt. eigenvalues --   -0.09752  -0.06418  -0.03532  -0.02775  -0.01012
 Alpha virt. eigenvalues --    0.01145   0.01277   0.02040   0.02398   0.02698
 Alpha virt. eigenvalues --    0.03292   0.03750   0.04402   0.04971   0.05381

 Mulliken charges:
               1
     1  Mg   0.788145
     2  C   -0.034774
     3  C   -0.100413
     4  C   -0.088561
     5  C   -0.056882
     6  N   -0.272266
     7  C   -0.038201
     8  C   -0.016433
     9  C   -0.083203
    10  C    0.038667
    11  C    0.108691
    12  C    0.054485
    13  C   -0.067366
    14  H    0.026087
    15  N   -0.426866
    16  C    0.147914
    17  C   -0.198611
    18  C   -0.018953
    19  C    0.135628
    20  C    0.115908
    21  C   -0.010073
    22  O   -0.284693
    23  C    0.070181
    24  N   -0.341222
    25  C    0.032123
    26  C   -0.027196
    27  C    0.014331
    28  C    0.040742
    29  C    0.097216
    30  C    0.147105
    31  C    0.292543
    32  N   -0.315989
    33  C    0.096616
    34  C   -0.153541
    35  C   -0.001171
    36  C    0.107419
    37  C    0.134813
    38  C    0.044868
    39  O   -0.189557
    40  C   -0.001559
    41  C    0.211827
    42  O   -0.258879
    43  O   -0.305127
    44  C    0.159840
    45  H   -0.032073
    46  H   -0.045395
    47  H   -0.065722
    48  H   -0.005375
    49  H   -0.011843
    50  H    0.015438
    51  H    0.016139
    52  H    0.006917
    53  H    0.012011
    54  H    0.039953
    55  H    0.015952
    56  H    0.016414
    57  H   -0.006971
    58  H    0.008725
    59  H    0.017029
    60  H    0.034480
    61  H    0.016164
    62  H    0.019838
    63  H   -0.015058
    64  H    0.002908
    65  H    0.019522
    66  H    0.031042
    67  H    0.000545
    68  H   -0.008811
    69  H    0.036942
    70  H    0.119056
    71  H    0.102575
    72  H   -0.071844
    73  H    0.055962
    74  H   -0.013269
    75  H    0.051260
    76  H    0.027762
    77  H    0.038303
    78  H    0.045583
    79  H    0.049989
    80  Mg   0.847765
    81  C   -0.011680
    82  C   -0.082288
    83  C   -0.042569
    84  C   -0.060154
    85  N   -0.251714
    86  C   -0.039838
    87  C   -0.055277
    88  C   -0.089553
    89  C    0.039343
    90  C    0.112157
    91  C    0.105990
    92  C    0.232870
    93  H   -0.172062
    94  N   -0.424227
    95  C    0.164817
    96  C   -0.171328
    97  C   -0.004656
    98  C    0.153590
    99  C    0.098332
   100  C    0.018302
   101  O   -0.250478
   102  C    0.059736
   103  N   -0.349715
   104  C    0.038918
   105  C   -0.020729
   106  C   -0.035366
   107  C    0.088967
   108  C    0.072784
   109  C    0.033897
   110  C   -0.008470
   111  N   -0.324492
   112  C    0.079122
   113  C   -0.158014
   114  C    0.004024
   115  C    0.098235
   116  C    0.130252
   117  C    0.050364
   118  O   -0.183872
   119  C   -0.003464
   120  C    0.196980
   121  O   -0.225279
   122  O   -0.318675
   123  C    0.170774
   124  H   -0.015366
   125  H   -0.012082
   126  H   -0.036451
   127  H   -0.005613
   128  H   -0.003485
   129  H    0.022926
   130  H    0.023866
   131  H    0.020512
   132  H    0.050023
   133  H    0.081030
   134  H   -0.426484
   135  H    0.081285
   136  H    0.013379
   137  H    0.028034
   138  H    0.047377
   139  H    0.039294
   140  H    0.039119
   141  H    0.037786
   142  H    0.017238
   143  H    0.013765
   144  H    0.027603
   145  H    0.011443
   146  H    0.007312
   147  H    0.007859
   148  H    0.005298
   149  H    0.011524
   150  H    0.021413
   151  H    0.031140
   152  H    0.051102
   153  H    0.010916
   154  H    0.046821
   155  H    0.031362
   156  H    0.047960
   157  H    0.001737
   158  H    0.059275
 Sum of Mulliken charges =  -0.00000

 Dipole moment (field-independent basis, Debye):
    X=              5.9433    Y=              3.4954    Z=             -7.8898  Tot=             10.4780
 Quadrupole moment (field-independent basis, Debye-Ang):
   XX=           -505.9193   YY=           -561.7546   ZZ=           -451.1556
   XY=             -9.6222   XZ=             14.4992   YZ=            -23.6303

 Normal termination of Gaussian 16 at Wed Sep  8 21:53:59 2021.
