 Gaussian 16, Revision A.03,
 Gaussian 16:  ES64L-G16RevA.03 25-Dec-2016

 -----------------------------------
 #p cam-b3lyp/Def2SVP td=(nstates=5)
 -----------------------------------

 --------------------------------
 TDDFT excited states in gaussian
 --------------------------------
 Symbolic Z-matrix:
 Charge =  0 Multiplicity = 1

                         Standard orientation:
 ---------------------------------------------------------------------
 Center     Atomic      Atomic             Coordinates (Angstroms)
 Number     Number       Type             X           Y           Z
 ---------------------------------------------------------------------
      1         12           0       15.553991    0.872940    0.382290
      2          6           0       15.814397   -2.626963   -0.321328
      3          6           0       16.466480    1.440257   -2.856318
      4          6           0       15.773107    3.954573    1.097934
      5          6           0       15.779490    0.059565    3.763596
      6          7           0       16.049214   -0.501204   -1.281179
      7          6           0       16.053195   -1.821387   -1.436974
      8          6           0       16.260577   -2.268449   -2.914980
      9          6           0       17.003458   -0.970892   -3.468577
     10          6           0       16.447295    0.058817   -2.500948
     11          6           0       18.519761   -1.023519   -3.311869
     12          6           0       14.904188   -2.512865   -3.658082
     13          6           0       15.014512   -3.259431   -4.990682
     14          1           0       13.956565   -4.186162   -5.363868
     15          7           0       15.568276    2.462695   -0.790454
     16          6           0       15.955058    2.508426   -2.087988
     17          6           0       15.782038    3.913383   -2.515587
     18          6           0       15.443740    4.717926   -1.308790
     19          6           0       15.609374    3.735857   -0.267885
     20          6           0       15.890201    4.358701   -3.941681
     21          6           0       15.046086    6.148016   -1.122125
     22          8           0       15.023073    6.702832    0.029493
     23          6           0       14.765889    6.917331   -2.347966
     24          7           0       15.968638    1.892908    2.155808
     25          6           0       15.944191    3.229302    2.205164
     26          6           0       15.989311    3.724337    3.620383
     27          6           0       15.804090    2.436053    4.545461
     28          6           0       15.764338    1.354138    3.438144
     29          6           0       17.269143    4.466512    4.029306
     30          6           0       14.652628    2.473875    5.581377
     31          6           0       13.319532    2.469711    4.867279
     32          7           0       15.582675   -0.952755    1.555771
     33          6           0       15.705439   -1.057808    2.948814
     34          6           0       15.784978   -2.495051    3.268302
     35          6           0       15.719206   -3.129761    2.029487
     36          6           0       15.632202   -2.150130    0.999417
     37          6           0       15.959981   -3.051868    4.565901
     38          6           0       15.727002   -4.406883    1.334681
     39          8           0       15.688936   -5.586433    1.687818
     40          6           0       15.911711   -4.129058   -0.222407
     41          6           0       14.885930   -4.949934   -0.955378
     42          8           0       13.668265   -4.700635   -0.843535
     43          8           0       15.503087   -5.737644   -1.849342
     44          6           0       14.539622   -6.557441   -2.631532
     45          1           0       16.969964    1.741467   -3.777034
     46          1           0       15.742440    5.004023    1.398188
     47          1           0       15.765905   -0.272752    4.803227
     48          1           0       16.897911   -3.144033   -3.039806
     49          1           0       16.702307   -0.733696   -4.488758
     50          1           0       18.830052   -1.889508   -2.727316
     51          1           0       18.791558   -0.100750   -2.798921
     52          1           0       19.011344   -0.981821   -4.284178
     53          1           0       14.511104   -1.559620   -4.011453
     54          1           0       14.197885   -3.033562   -3.010521
     55          1           0       15.991760   -3.729476   -5.104491
     56          1           0       14.970527   -2.527254   -5.797020
     57          1           0       16.310589    3.577903   -4.574273
     58          1           0       16.629585    5.158830   -3.970185
     59          1           0       14.939361    4.722762   -4.331160
     60          1           0       15.651313    6.915890   -2.984025
     61          1           0       14.410958    7.892506   -2.016442
     62          1           0       13.982519    6.410074   -2.911854
     63          1           0       15.177873    4.424161    3.815934
     64          1           0       16.692587    2.230356    5.142902
     65          1           0       17.089784    5.473748    4.406148
     66          1           0       17.937935    4.484075    3.169249
     67          1           0       17.880576    3.950027    4.768773
     68          1           0       14.699745    3.391136    6.167345
     69          1           0       14.671664    1.634700    6.276845
     70          1           0       13.171640    3.520737    4.621708
     71          1           0       12.533270    2.109621    5.531612
     72          1           0       13.373090    1.919901    3.927424
     73          1           0       15.272045   -3.894729    4.631463
     74          1           0       15.759004   -2.315119    5.343340
     75          1           0       17.010883   -3.337561    4.522989
     76          1           0       16.929426   -4.424944   -0.475054
     77          1           0       14.832504   -7.600317   -2.509611
     78          1           0       14.533573   -6.148402   -3.642005
     79          1           0       13.515790   -6.586085   -2.256984
     80         12           0      -16.190232    0.433963   -0.068262
     81          6           0      -14.120849   -2.495369    0.056839
     82          6           0      -13.849298    1.817440   -2.127532
     83          6           0      -17.758420    3.182837    0.159688
     84          6           0      -17.743402   -0.708781    2.834750
     85          7           0      -14.275468   -0.338549   -0.861457
     86          6           0      -13.621533   -1.488475   -0.795387
     87          6           0      -12.405583   -1.592943   -1.754618
     88          6           0      -12.102442   -0.025723   -1.930154
     89          6           0      -13.500704    0.525575   -1.658846
     90          6           0      -11.158301    0.526484   -0.875159
     91          6           0      -12.779881   -2.262426   -3.123450
     92          6           0      -11.584804   -2.676818   -3.984739
     93          1           0      -11.692892   -3.892562   -4.786460
     94          7           0      -16.129374    2.046826   -1.223057
     95          6           0      -15.108873    2.445336   -2.011123
     96          6           0      -15.550744    3.701044   -2.637314
     97          6           0      -16.849494    4.097284   -2.028250
     98          6           0      -16.954876    3.113853   -0.969072
     99          6           0      -14.802127    4.357576   -3.760680
    100          6           0      -17.827721    5.189513   -2.338589
    101          8           0      -18.773716    5.495984   -1.529898
    102          6           0      -17.589574    5.951610   -3.573099
    103          7           0      -17.406856    1.244802    1.409810
    104          6           0      -18.007292    2.435122    1.235008
    105          6           0      -19.044473    2.685059    2.303733
    106          6           0      -19.186322    1.303281    3.096280
    107          6           0      -18.094235    0.484044    2.374063
    108          6           0      -18.725168    3.807342    3.291117
    109          6           0      -20.612703    0.698295    3.206347
    110          6           0      -21.093096    0.257712    1.842348
    111          7           0      -16.122518   -1.364409    1.127273
    112          6           0      -16.835793   -1.624497    2.317941
    113          6           0      -16.372630   -2.932039    2.826120
    114          6           0      -15.397732   -3.334479    1.900864
    115          6           0      -15.248418   -2.338133    0.898619
    116          6           0      -16.813615   -3.562738    4.023558
    117          6           0      -14.453404   -4.370738    1.549967
    118          8           0      -14.196517   -5.494110    1.980972
    119          6           0      -13.494559   -3.815796    0.410204
    120          6           0      -13.403724   -4.859380   -0.669239
    121          8           0      -14.404755   -5.160790   -1.342813
    122          8           0      -12.110733   -5.170317   -0.873842
    123          6           0      -11.968396   -6.193707   -1.943522
    124          1           0      -13.074132    2.427405   -2.592248
    125          1           0      -18.402141    4.062920    0.227137
    126          1           0      -18.248631   -1.179534    3.680809
    127          1           0      -11.540315   -2.094670   -1.338252
    128          1           0      -11.791981    0.205193   -2.945857
    129          1           0      -10.939458   -0.202500   -0.109113
    130          1           0      -11.662706    1.383658   -0.448694
    131          1           0      -10.251170    0.914628   -1.347154
    132          1           0      -13.231591   -1.507391   -3.779669
    133          1           0      -13.425302   -3.105595   -2.971315
    134          1           0      -10.646469   -2.673114   -3.416883
    135          1           0      -11.433866   -1.918388   -4.756759
    136          1           0      -13.800269    3.927468   -3.881925
    137          1           0      -14.617917    5.394426   -3.459237
    138          1           0      -15.362742    4.356289   -4.697893
    139          1           0      -16.603525    6.408125   -3.531132
    140          1           0      -18.441972    6.627007   -3.668610
    141          1           0      -17.577745    5.254095   -4.418053
    142          1           0      -20.001125    2.937086    1.862807
    143          1           0      -18.865557    1.399700    4.143971
    144          1           0      -19.504642    4.591680    3.327377
    145          1           0      -17.767786    4.234736    3.024123
    146          1           0      -18.556354    3.485437    4.317317
    147          1           0      -21.319402    1.455543    3.554639
    148          1           0      -20.674636   -0.139810    3.892442
    149          1           0      -21.479641    1.183568    1.405921
    150          1           0      -21.876454   -0.491733    1.935760
    151          1           0      -20.255457   -0.075985    1.218930
    152          1           0      -16.966751   -4.607311    3.787076
    153          1           0      -17.723535   -3.102756    4.403350
    154          1           0      -15.954976   -3.371023    4.672593
    155          1           0      -12.525018   -3.614058    0.867222
    156          1           0      -11.404269   -7.027730   -1.514719
    157          1           0      -11.512922   -5.666423   -2.802738
    158          1           0      -12.867820   -6.696864   -2.278653
 ---------------------------------------------------------------------

 SCF Done:  E(RCAM-B3LYP) =  -4069.81177321     A.U. after   19 cycles

 Excitation energies and oscillator strengths:

 Excited State   1:      Singlet-A      1.6753 eV  740.07 nm  f=0.2067  <S**2>=0.000
     310 -> 316        0.16822
     311 -> 314       -0.16802
     312 -> 313        0.66516
     310 <- 316        0.10142
 This state for optimization and/or second-order correction.
 Total Energy, E(TD-HF/TD-DFT) =  -4069.75020713
 Copying the excited state density for this state as the 1-particle RhoCI density.

 Excited State   2:      Singlet-A      1.6801 eV  737.96 nm  f=0.5705  <S**2>=0.000
     309 -> 315        0.17025
     311 -> 314        0.66479
     312 -> 313        0.16796
     309 <- 315        0.10193

 Excited State   3:      Singlet-A      2.1861 eV  567.15 nm  f=0.0996  <S**2>=0.000
     310 -> 313        0.64232
     312 -> 316       -0.27302

 Excited State   4:      Singlet-A      2.1925 eV  565.49 nm  f=0.1014  <S**2>=0.000
     309 -> 314        0.64055
     311 -> 315       -0.27822

 Excited State   5:      Singlet-A      3.0619 eV  404.93 nm  f=0.0000  <S**2>=0.000
     312 -> 314        0.70710

 The electronic state is 1-A.
 Alpha  occ. eigenvalues --  -46.87811 -46.87659 -19.26340 -19.26296 -19.19154
 Alpha  occ. eigenvalues --  -19.19032 -19.18832 -19.18715 -19.18182 -19.18047
 Alpha  occ. eigenvalues --  -14.42496 -14.42464 -14.41464 -14.41358 -14.39418
 Alpha  occ. eigenvalues --  -14.39351 -14.38601 -14.38598 -10.39092 -10.39083
 Alpha  occ. eigenvalues --  -10.35466 -10.35392 -10.34402 -10.34224 -10.31744
 Alpha  occ. eigenvalues --  -10.31690 -10.31419 -10.31306 -10.31021 -10.30924
 Alpha  occ. eigenvalues --  -10.30584 -10.30522 -10.30397 -10.30359 -10.30222
 Alpha  occ. eigenvalues --  -10.30141 -10.29935 -10.29894 -10.29645 -10.29436
 Alpha  occ. eigenvalues --  -10.29400 -10.29269 -10.28763 -10.28714 -10.28647
 Alpha  occ. eigenvalues --  -10.28554 -10.28403 -10.28379 -10.28135 -10.28130
 Alpha  occ. eigenvalues --  -10.27999 -10.27807 -10.27741 -10.27667 -10.27599
 Alpha  occ. eigenvalues --  -10.27519 -10.27515 -10.27498 -10.27482 -10.27467
 Alpha  occ. eigenvalues --  -10.27464 -10.27463 -10.27418 -10.27377 -10.27171
 Alpha  occ. eigenvalues --  -10.27045 -10.26720 -10.26687 -10.26430 -10.26417
 Alpha  occ. eigenvalues --  -10.26247 -10.26198 -10.26140 -10.26033 -10.26018
 Alpha  occ. eigenvalues --  -10.25934 -10.25854 -10.25849 -10.25449 -10.25400
 Alpha  occ. eigenvalues --  -10.24871 -10.24846 -10.24802 -10.24733 -10.24702
 Alpha  occ. eigenvalues --  -10.24689  -3.16554  -3.16409  -1.91435  -1.91291
 Alpha  occ. eigenvalues --   -1.91022  -1.90880  -1.90864  -1.90717  -1.16645
 Alpha  occ. eigenvalues --   -1.16635  -1.08654  -1.08639  -1.07233  -1.06968
 Alpha  occ. eigenvalues --   -1.06938  -1.06655  -1.04595  -1.04493  -1.03775
 Alpha  occ. eigenvalues --   -1.03662  -1.03248  -1.03038  -1.02425  -1.02110
 Alpha  occ. eigenvalues --   -0.91986  -0.91984  -0.89534  -0.89494  -0.89202
 Alpha  occ. eigenvalues --   -0.89147  -0.88301  -0.88220  -0.87883  -0.87792
 Alpha  occ. eigenvalues --   -0.87687  -0.87682  -0.87290  -0.87120  -0.84996
 Alpha  occ. eigenvalues --   -0.84996  -0.83950  -0.83876  -0.82984  -0.82932
 Alpha  occ. eigenvalues --   -0.82663  -0.82650  -0.81599  -0.81591  -0.80610
 Alpha  occ. eigenvalues --   -0.80439  -0.78812  -0.78635  -0.77233  -0.77142
 Alpha  occ. eigenvalues --   -0.76948  -0.76895  -0.75937  -0.75834  -0.74912
 Alpha  occ. eigenvalues --   -0.74802  -0.72788  -0.72698  -0.71686  -0.71579
 Alpha  occ. eigenvalues --   -0.69921  -0.69758  -0.68887  -0.68824  -0.67656
 Alpha  occ. eigenvalues --   -0.67600  -0.67235  -0.67197  -0.65300  -0.65268
 Alpha  occ. eigenvalues --   -0.64867  -0.64768  -0.64650  -0.64635  -0.64283
 Alpha  occ. eigenvalues --   -0.64203  -0.62310  -0.62273  -0.60457  -0.60339
 Alpha  occ. eigenvalues --   -0.59818  -0.59793  -0.59001  -0.58991  -0.58518
 Alpha  occ. eigenvalues --   -0.58423  -0.57597  -0.57550  -0.57323  -0.57235
 Alpha  occ. eigenvalues --   -0.56324  -0.56202  -0.55991  -0.55881  -0.55535
 Alpha  occ. eigenvalues --   -0.55449  -0.55353  -0.55246  -0.54537  -0.54485
 Alpha  occ. eigenvalues --   -0.53909  -0.53908  -0.53313  -0.53237  -0.53226
 Alpha  occ. eigenvalues --   -0.53139  -0.52928  -0.52899  -0.52772  -0.52667
 Alpha  occ. eigenvalues --   -0.52452  -0.52402  -0.51927  -0.51883  -0.51655
 Alpha  occ. eigenvalues --   -0.51631  -0.51209  -0.51198  -0.50590  -0.50476
 Alpha  occ. eigenvalues --   -0.50046  -0.49978  -0.49934  -0.49867  -0.49529
 Alpha  occ. eigenvalues --   -0.49486  -0.49229  -0.49199  -0.49110  -0.49100
 Alpha  occ. eigenvalues --   -0.48606  -0.48555  -0.48476  -0.48460  -0.48375
 Alpha  occ. eigenvalues --   -0.48338  -0.47709  -0.47592  -0.47311  -0.47117
 Alpha  occ. eigenvalues --   -0.46811  -0.46707  -0.46570  -0.46550  -0.46373
 Alpha  occ. eigenvalues --   -0.46269  -0.46176  -0.46084  -0.45834  -0.45818
 Alpha  occ. eigenvalues --   -0.45215  -0.45209  -0.44591  -0.44522  -0.44511
 Alpha  occ. eigenvalues --   -0.44473  -0.44159  -0.44124  -0.44102  -0.44077
 Alpha  occ. eigenvalues --   -0.44034  -0.43937  -0.43548  -0.43508  -0.43400
 Alpha  occ. eigenvalues --   -0.43383  -0.43041  -0.42925  -0.42897  -0.42712
 Alpha  occ. eigenvalues --   -0.42668  -0.42554  -0.42023  -0.41963  -0.41718
 Alpha  occ. eigenvalues --   -0.41667  -0.41548  -0.41456  -0.41155  -0.40987
 Alpha  occ. eigenvalues --   -0.40884  -0.40840  -0.40721  -0.40696  -0.40585
 Alpha  occ. eigenvalues --   -0.40493  -0.40249  -0.40223  -0.39455  -0.39427
 Alpha  occ. eigenvalues --   -0.38483  -0.38350  -0.37763  -0.37650  -0.37334
 Alpha  occ. eigenvalues --   -0.37278  -0.37265  -0.37196  -0.36765  -0.36726
 Alpha  occ. eigenvalues --   -0.36215  -0.36206  -0.34300  -0.34252  -0.33856
 Alpha  occ. eigenvalues --   -0.33783  -0.33200  -0.33174  -0.31362  -0.31274
 Alpha  occ. eigenvalues --   -0.31050  -0.30971  -0.30041  -0.29951  -0.29464
 Alpha  occ. eigenvalues --   -0.29336  -0.29326  -0.29210  -0.24095  -0.24035
 Alpha  occ. eigenvalues --   -0.21142  -0.21116
 Alpha virt. eigenvalues --   -0.08791  -0.08789  -0.01764  -0.01683  -0.00073
 Alpha virt. eigenvalues --   -0.00028   0.02187   0.02209   0.03105   0.03228
 Alpha virt. eigenvalues --    0.04704   0.04732   0.05086   0.05172   0.06163

 Mulliken charges:
               1
     1  Mg   0.838672
     2  C   -0.002967
     3  C   -0.094132
     4  C   -0.045853
     5  C   -0.063946
     6  N   -0.256782
     7  C   -0.052448
     8  C   -0.014023
     9  C   -0.086999
    10  C    0.046316
    11  C    0.104810
    12  C    0.053482
    13  C   -0.071804
    14  H    0.036113
    15  N   -0.433127
    16  C    0.168398
    17  C   -0.177166
    18  C   -0.004020
    19  C    0.148683
    20  C    0.110177
    21  C    0.012253
    22  O   -0.249640
    23  C    0.062492
    24  N   -0.341103
    25  C    0.041228
    26  C   -0.028192
    27  C   -0.023943
    28  C    0.074828
    29  C    0.076160
    30  C    0.035107
    31  C   -0.004498
    32  N   -0.310488
    33  C    0.080407
    34  C   -0.169686
    35  C    0.008367
    36  C    0.082993
    37  C    0.127306
    38  C    0.046135
    39  O   -0.188374
    40  C   -0.005345
    41  C    0.212900
    42  O   -0.257132
    43  O   -0.304788
    44  C    0.157682
    45  H   -0.017603
    46  H   -0.016849
    47  H   -0.041459
    48  H    0.000970
    49  H   -0.004050
    50  H    0.025495
    51  H    0.016453
    52  H    0.016668
    53  H    0.011165
    54  H    0.044113
    55  H    0.017908
    56  H    0.017929
    57  H    0.005877
    58  H    0.026829
    59  H    0.039486
    60  H    0.037365
    61  H    0.035610
    62  H    0.031445
    63  H    0.016530
    64  H    0.009490
    65  H    0.023207
    66  H    0.012554
    67  H    0.004780
    68  H    0.006376
    69  H    0.004767
    70  H    0.008745
    71  H    0.018151
    72  H    0.028968
    73  H    0.047608
    74  H    0.009130
    75  H    0.046043
    76  H    0.035179
    77  H    0.042994
    78  H    0.046386
    79  H    0.053685
    80  Mg   0.837821
    81  C   -0.016812
    82  C   -0.087778
    83  C   -0.045499
    84  C   -0.064926
    85  N   -0.254567
    86  C   -0.049835
    87  C   -0.015101
    88  C   -0.090508
    89  C    0.045762
    90  C    0.114367
    91  C    0.062517
    92  C   -0.077912
    93  H    0.034919
    94  N   -0.423461
    95  C    0.162898
    96  C   -0.174620
    97  C   -0.007813
    98  C    0.152096
    99  C    0.099374
   100  C    0.015549
   101  O   -0.253193
   102  C    0.061196
   103  N   -0.350040
   104  C    0.037505
   105  C   -0.019835
   106  C   -0.034813
   107  C    0.088940
   108  C    0.073654
   109  C    0.034740
   110  C   -0.007674
   111  N   -0.324131
   112  C    0.078477
   113  C   -0.163133
   114  C    0.002270
   115  C    0.096178
   116  C    0.131478
   117  C    0.042402
   118  O   -0.187785
   119  C    0.000932
   120  C    0.211252
   121  O   -0.251049
   122  O   -0.305588
   123  C    0.152015
   124  H   -0.019639
   125  H   -0.015589
   126  H   -0.040456
   127  H   -0.000562
   128  H   -0.004320
   129  H    0.022522
   130  H    0.014407
   131  H    0.016340
   132  H    0.013885
   133  H    0.037677
   134  H    0.020870
   135  H    0.019568
   136  H    0.008773
   137  H    0.026135
   138  H    0.039773
   139  H    0.038250
   140  H    0.036380
   141  H    0.033891
   142  H    0.014392
   143  H    0.012425
   144  H    0.025126
   145  H    0.011646
   146  H    0.005676
   147  H    0.006252
   148  H    0.003655
   149  H    0.010923
   150  H    0.017931
   151  H    0.030111
   152  H    0.046028
   153  H    0.008500
   154  H    0.046984
   155  H    0.035108
   156  H    0.044005
   157  H    0.049504
   158  H    0.053557
 Sum of Mulliken charges =  -0.00000

 Dipole moment (field-independent basis, Debye):
    X=              4.5701    Y=              5.5197    Z=             -5.1928  Tot=              8.8497
 Quadrupole moment (field-independent basis, Debye-Ang):
   XX=           -514.3741   YY=           -567.3536   ZZ=           -450.5891
   XY=             -8.5577   XZ=            -51.3311   YZ=             10.2428

 Normal termination of Gaussian 16 at Sun Sep 12 18:10:39 2021.
