 Gaussian 16, Revision A.03,
 Gaussian 16:  ES64L-G16RevA.03 25-Dec-2016

 -----------------------------------
 #p cam-b3lyp/Def2SVP td=(nstates=5)
 -----------------------------------

 --------------------------------
 TDDFT excited states in gaussian
 --------------------------------
 Symbolic Z-matrix:
 Charge =  0 Multiplicity = 1

                         Standard orientation:
 ---------------------------------------------------------------------
 Center     Atomic      Atomic             Coordinates (Angstroms)
 Number     Number       Type             X           Y           Z
 ---------------------------------------------------------------------
      1         12           0       15.696633   -0.738563    0.198498
      2          6           0       15.948068    2.122525   -1.937660
      3          6           0       16.545122    1.309249    2.792645
      4          6           0       15.925434   -3.323257    2.021581
      5          6           0       15.989029   -2.713211   -2.658236
      6          7           0       16.161251    1.423942    0.289859
      7          6           0       16.164000    2.420188   -0.590287
      8          6           0       16.343178    3.822533    0.064465
      9          6           0       17.073368    3.380208    1.411005
     10          6           0       16.534744    1.965067    1.525827
     11          6           0       18.592505    3.319128    1.288554
     12          6           0       14.972913    4.520822    0.358571
     13          6           0       15.058291    6.013142    0.691808
     14          1           0       13.994545    6.894665    0.234960
     15          7           0       15.685914   -0.924165    2.165294
     16          6           0       16.047298    0.017606    3.069592
     17          6           0       15.864069   -0.602674    4.399389
     18          6           0       15.548232   -2.042989    4.190023
     19          6           0       15.735440   -2.161793    2.766570
     20          6           0       15.943839    0.164737    5.683315
     21          6           0       15.152336   -3.140865    5.126007
     22          8           0       15.150992   -4.369291    4.771688
     23          6           0       14.847277   -2.743964    6.512532
     24          7           0       16.144338   -2.734600   -0.217473
     25          6           0       16.119032   -3.662608    0.745412
     26          6           0       16.191021   -5.046705    0.171799
     27          6           0       16.025604   -4.879825   -1.407613
     28          6           0       15.965777   -3.333884   -1.476588
     29          6           0       17.477557   -5.828812    0.470368
     30          6           0       14.894477   -5.692725   -2.085968
     31          6           0       13.547738   -5.175896   -1.631787
     32          7           0       15.750649   -0.395640   -1.944054
     33          6           0       15.900654   -1.362113   -2.949093
     34          6           0       15.988360   -0.641011   -4.232209
     35          6           0       15.899349    0.704452   -3.880569
     36          6           0       15.790970    0.817877   -2.465054
     37          6           0       16.189353   -1.234479   -5.509641
     38          6           0       15.895359    2.073746   -4.369317
     39          8           0       15.865785    2.596384   -5.484426
     40          6           0       16.049339    3.051481   -3.121859
     41          6           0       15.010603    4.131007   -3.259560
     42          8           0       13.795008    3.864901   -3.165323
     43          8           0       15.611314    5.330753   -3.242245
     44          6           0       14.633922    6.447089   -3.345466
     45          1           0       17.030173    1.801469    3.637858
     46          1           0       15.899187   -4.247044    2.603273
     47          1           0       15.996141   -3.266654   -3.599036
     48          1           0       16.979155    4.507927   -0.496062
     49          1           0       16.752089    3.978284    2.263534
     50          1           0       18.915300    3.465008    0.257805
     51          1           0       18.872978    2.325393    1.638295
     52          1           0       19.065008    4.022637    1.974552
     53          1           0       14.571723    4.143357    1.299118
     54          1           0       14.280062    4.375731   -0.471026
     55          1           0       16.033779    6.424601    0.430976
     56          1           0       14.997617    6.125375    1.774361
     57          1           0       16.352896    1.162410    5.528826
     58          1           0       16.681435   -0.337359    6.309062
     59          1           0       14.985100    0.199369    6.200957
     60          1           0       15.720151   -2.256932    6.947779
     61          1           0       14.497537   -3.645952    7.013482
     62          1           0       14.053770   -1.996221    6.499296
     63          1           0       15.382589   -5.670007    0.551744
     64          1           0       16.925844   -5.175862   -1.946690
     65          1           0       17.304194   -6.783558    0.967470
     66          1           0       18.129454   -5.190459    1.066042
     67          1           0       18.103975   -6.027279   -0.398900
     68          1           0       14.951742   -6.740262   -1.792143
     69          1           0       14.928195   -5.651342   -3.174729
     70          1           0       13.393659   -5.695548   -0.686772
     71          1           0       12.775052   -5.441640   -2.353969
     72          1           0       13.583739   -4.108210   -1.414449
     73          1           0       15.503974   -0.730813   -6.191217
     74          1           0       16.002544   -2.307750   -5.481454
     75          1           0       17.239609   -0.997751   -5.679282
     76          1           0       17.062345    3.450860   -3.159775
     77          1           0       14.930545    7.055431   -4.199965
     78          1           0       14.607643    6.927388   -2.367188
     79          1           0       13.617616    6.173124   -3.630780
     80         12           0      -16.047168   -0.543682   -0.284325
     81          6           0      -14.446596    1.789772    1.922991
     82          6           0      -18.286058    1.920936   -1.024376
     83          6           0      -17.739234   -2.698300   -1.884946
     84          6           0      -14.425765   -3.090183    1.456947
     85          7           0      -16.236866    1.543818    0.421819
     86          6           0      -15.534574    2.340014    1.213781
     87          6           0      -15.976807    3.827709    1.185981
     88          6           0      -17.493370    3.618731    0.700988
     89          6           0      -17.331096    2.296522   -0.046062
     90          6           0      -18.467524    3.403245    1.847264
     91          6           0      -15.155186    4.676310    0.153111
     92          6           0      -15.318485    6.191569    0.291200
     93          1           0      -14.163980    7.043634    0.019931
     94          7           0      -17.450164   -0.305492   -1.667596
     95          6           0      -18.250357    0.767692   -1.838669
     96          6           0      -19.123117    0.441396   -2.977077
     97          6           0      -18.884787   -0.976954   -3.359434
     98          6           0      -18.011495   -1.397241   -2.282021
     99          6           0      -20.008941    1.455790   -3.640212
    100          6           0      -19.373528   -1.819639   -4.498387
    101          8           0      -19.230414   -3.093345   -4.503448
    102          6           0      -20.107286   -1.120545   -5.563448
    103          7           0      -16.247963   -2.604161   -0.093410
    104          6           0      -17.006654   -3.307363   -0.952384
    105          6           0      -16.781278   -4.791702   -0.790146
    106          6           0      -15.529058   -4.930998    0.194807
    107          6           0      -15.292738   -3.438946    0.516258
    108          6           0      -17.960476   -5.586211   -0.229225
    109          6           0      -14.328257   -5.777781   -0.308892
    110          6           0      -13.658506   -5.082668   -1.472350
    111          7           0      -14.542974   -0.656866    1.262484
    112          6           0      -14.025815   -1.824305    1.865569
    113          6           0      -13.112633   -1.390028    2.942568
    114          6           0      -13.180098    0.010900    2.906132
    115          6           0      -14.087774    0.420442    1.892288
    116          6           0      -12.397545   -2.249232    3.823793
    117          6           0      -12.697956    1.236202    3.501855
    118          8           0      -11.846696    1.515947    4.344973
    119          6           0      -13.592674    2.440034    2.975883
    120          6           0      -12.672384    3.549075    2.545074
    121          8           0      -11.907812    3.395537    1.576321
    122          8           0      -12.999525    4.674733    3.205551
    123          6           0      -12.121677    5.806086    2.803985
    124          1           0      -19.169995    2.546147   -1.153443
    125          1           0      -18.213976   -3.481961   -2.479895
    126          1           0      -13.807122   -3.821911    1.980914
    127          1           0      -15.959386    4.324843    2.148442
    128          1           0      -17.802064    4.406667    0.018905
    129          1           0      -17.959360    3.308142    2.795352
    130          1           0      -19.002266    2.492454    1.611578
    131          1           0      -19.217932    4.198912    1.858860
    132          1           0      -15.581003    4.531921   -0.848181
    133          1           0      -14.114297    4.420026    0.191745
    134          1           0      -15.786936    6.470637    1.242837
    135          1           0      -16.026618    6.534793   -0.466940
    136          1           0      -20.097251    2.368031   -3.037369
    137          1           0      -21.021476    1.038002   -3.650581
    138          1           0      -19.705693    1.672927   -4.666638
    139          1           0      -20.975908   -0.623971   -5.137572
    140          1           0      -20.296751   -1.873744   -6.330693
    141          1           0      -19.464142   -0.333565   -5.972887
    142          1           0      -16.534636   -5.251432   -1.739317
    143          1           0      -15.807546   -5.416210    1.141823
    144          1           0      -18.285631   -6.410787   -0.891364
    145          1           0      -18.777435   -4.900990   -0.045983
    146          1           0      -17.797924   -6.020584    0.755711
    147          1           0      -14.676449   -6.743639   -0.683102
    148          1           0      -13.588387   -5.977660    0.458990
    149          1           0      -14.274408   -5.381247   -2.325928
    150          1           0      -12.632793   -5.427757   -1.585823
    151          1           0      -13.734049   -3.993296   -1.376378
    152          1           0      -11.395489   -1.849214    3.903585
    153          1           0      -12.389342   -3.274487    3.459694
    154          1           0      -12.997377   -2.140721    4.731366
    155          1           0      -14.245835    2.744783    3.794478
    156          1           0      -11.670064    6.200603    3.719462
    157          1           0      -12.766162    6.492930    2.223770
    158          1           0      -11.240939    5.573209    2.217033
 ---------------------------------------------------------------------

 SCF Done:  E(RCAM-B3LYP) =  -4069.81176662     A.U. after   19 cycles

 Excitation energies and oscillator strengths:

 Excited State   1:      Singlet-A      1.6755 eV  740.00 nm  f=0.3028  <S**2>=0.000
     309 -> 315       -0.17111
     311 -> 313        0.67624
     312 -> 314        0.11560
     309 <- 315       -0.10314
 This state for optimization and/or second-order correction.
 Total Energy, E(TD-HF/TD-DFT) =  -4069.75019434
 Copying the excited state density for this state as the 1-particle RhoCI density.

 Excited State   2:      Singlet-A      1.6800 eV  737.99 nm  f=0.4770  <S**2>=0.000
     310 -> 316        0.17308
     311 -> 313       -0.11556
     312 -> 314        0.67588
     310 <- 316        0.10364

 Excited State   3:      Singlet-A      2.1861 eV  567.15 nm  f=0.0950  <S**2>=0.000
     309 -> 313        0.64208
     311 -> 315        0.27296

 Excited State   4:      Singlet-A      2.1926 eV  565.48 nm  f=0.1050  <S**2>=0.000
     310 -> 314        0.64030
     312 -> 316       -0.27814

 Excited State   5:      Singlet-A      3.0491 eV  406.63 nm  f=0.0000  <S**2>=0.000
     312 -> 313        0.70710

 The electronic state is 1-A.
 Alpha  occ. eigenvalues --  -46.87728 -46.87661 -19.26350 -19.26216 -19.19160
 Alpha  occ. eigenvalues --  -19.18950 -19.18745 -19.18714 -19.18103 -19.18053
 Alpha  occ. eigenvalues --  -14.42499 -14.42382 -14.41382 -14.41360 -14.39353
 Alpha  occ. eigenvalues --  -14.39334 -14.38601 -14.38518 -10.39090 -10.39010
 Alpha  occ. eigenvalues --  -10.35391 -10.35378 -10.34323 -10.34230 -10.31757
 Alpha  occ. eigenvalues --  -10.31611 -10.31338 -10.31311 -10.31024 -10.30840
 Alpha  occ. eigenvalues --  -10.30502 -10.30439 -10.30399 -10.30362 -10.30142
 Alpha  occ. eigenvalues --  -10.30139 -10.29896 -10.29854 -10.29562 -10.29438
 Alpha  occ. eigenvalues --  -10.29402 -10.29186 -10.28720 -10.28681 -10.28653
 Alpha  occ. eigenvalues --  -10.28467 -10.28406 -10.28296 -10.28143 -10.28050
 Alpha  occ. eigenvalues --  -10.28002 -10.27725 -10.27671 -10.27659 -10.27519
 Alpha  occ. eigenvalues --  -10.27516 -10.27485 -10.27468 -10.27465 -10.27435
 Alpha  occ. eigenvalues --  -10.27411 -10.27384 -10.27377 -10.27335 -10.27091
 Alpha  occ. eigenvalues --  -10.27052 -10.26692 -10.26633 -10.26413 -10.26338
 Alpha  occ. eigenvalues --  -10.26171 -10.26136 -10.26116 -10.26030 -10.25952
 Alpha  occ. eigenvalues --  -10.25935 -10.25853 -10.25779 -10.25401 -10.25373
 Alpha  occ. eigenvalues --  -10.24874 -10.24765 -10.24727 -10.24720 -10.24691
 Alpha  occ. eigenvalues --  -10.24615  -3.16471  -3.16411  -1.91352  -1.91293
 Alpha  occ. eigenvalues --   -1.90939  -1.90882  -1.90781  -1.90719  -1.16644
 Alpha  occ. eigenvalues --   -1.16564  -1.08660  -1.08561  -1.07146  -1.06966
 Alpha  occ. eigenvalues --   -1.06945  -1.06573  -1.04513  -1.04496  -1.03693
 Alpha  occ. eigenvalues --   -1.03664  -1.03166  -1.03040  -1.02343  -1.02113
 Alpha  occ. eigenvalues --   -0.91989  -0.91904  -0.89495  -0.89452  -0.89153
 Alpha  occ. eigenvalues --   -0.89120  -0.88221  -0.88220  -0.87804  -0.87795
 Alpha  occ. eigenvalues --   -0.87685  -0.87605  -0.87204  -0.87120  -0.85001
 Alpha  occ. eigenvalues --   -0.84914  -0.83876  -0.83869  -0.82931  -0.82897
 Alpha  occ. eigenvalues --   -0.82653  -0.82580  -0.81597  -0.81518  -0.80528
 Alpha  occ. eigenvalues --   -0.80444  -0.78729  -0.78636  -0.77151  -0.77145
 Alpha  occ. eigenvalues --   -0.76899  -0.76867  -0.75856  -0.75840  -0.74832
 Alpha  occ. eigenvalues --   -0.74804  -0.72707  -0.72700  -0.71605  -0.71583
 Alpha  occ. eigenvalues --   -0.69839  -0.69757  -0.68828  -0.68805  -0.67603
 Alpha  occ. eigenvalues --   -0.67573  -0.67200  -0.67150  -0.65273  -0.65218
 Alpha  occ. eigenvalues --   -0.64786  -0.64771  -0.64655  -0.64553  -0.64204
 Alpha  occ. eigenvalues --   -0.64202  -0.62279  -0.62230  -0.60373  -0.60340
 Alpha  occ. eigenvalues --   -0.59798  -0.59736  -0.58994  -0.58920  -0.58436
 Alpha  occ. eigenvalues --   -0.58427  -0.57556  -0.57517  -0.57241  -0.57237
 Alpha  occ. eigenvalues --   -0.56242  -0.56205  -0.55910  -0.55887  -0.55453
 Alpha  occ. eigenvalues --   -0.55452  -0.55272  -0.55249  -0.54488  -0.54456
 Alpha  occ. eigenvalues --   -0.53914  -0.53827  -0.53231  -0.53228  -0.53153
 Alpha  occ. eigenvalues --   -0.53142  -0.52903  -0.52846  -0.52687  -0.52668
 Alpha  occ. eigenvalues --   -0.52400  -0.52370  -0.51887  -0.51849  -0.51659
 Alpha  occ. eigenvalues --   -0.51547  -0.51202  -0.51128  -0.50502  -0.50475
 Alpha  occ. eigenvalues --   -0.49981  -0.49964  -0.49868  -0.49850  -0.49488
 Alpha  occ. eigenvalues --   -0.49446  -0.49203  -0.49147  -0.49106  -0.49029
 Alpha  occ. eigenvalues --   -0.48560  -0.48526  -0.48394  -0.48377  -0.48377
 Alpha  occ. eigenvalues --   -0.48339  -0.47627  -0.47595  -0.47229  -0.47119
 Alpha  occ. eigenvalues --   -0.46729  -0.46710  -0.46555  -0.46487  -0.46291
 Alpha  occ. eigenvalues --   -0.46271  -0.46096  -0.46087  -0.45824  -0.45755
 Alpha  occ. eigenvalues --   -0.45210  -0.45135  -0.44515  -0.44510  -0.44477
 Alpha  occ. eigenvalues --   -0.44438  -0.44129  -0.44078  -0.44076  -0.44021
 Alpha  occ. eigenvalues --   -0.43951  -0.43940  -0.43554  -0.43427  -0.43387
 Alpha  occ. eigenvalues --   -0.43318  -0.42960  -0.42931  -0.42902  -0.42631
 Alpha  occ. eigenvalues --   -0.42587  -0.42554  -0.41964  -0.41941  -0.41671
 Alpha  occ. eigenvalues --   -0.41636  -0.41465  -0.41459  -0.41074  -0.40991
 Alpha  occ. eigenvalues --   -0.40801  -0.40753  -0.40722  -0.40699  -0.40504
 Alpha  occ. eigenvalues --   -0.40494  -0.40227  -0.40164  -0.39425  -0.39373
 Alpha  occ. eigenvalues --   -0.38402  -0.38351  -0.37678  -0.37654  -0.37267
 Alpha  occ. eigenvalues --   -0.37253  -0.37200  -0.37195  -0.36771  -0.36645
 Alpha  occ. eigenvalues --   -0.36218  -0.36125  -0.34255  -0.34218  -0.33861
 Alpha  occ. eigenvalues --   -0.33701  -0.33177  -0.33118  -0.31275  -0.31273
 Alpha  occ. eigenvalues --   -0.30974  -0.30967  -0.29962  -0.29958  -0.29380
 Alpha  occ. eigenvalues --   -0.29328  -0.29254  -0.29213  -0.24037  -0.24012
 Alpha  occ. eigenvalues --   -0.21118  -0.21060
 Alpha virt. eigenvalues --   -0.08793  -0.08706  -0.01685  -0.01682  -0.00029
 Alpha virt. eigenvalues --    0.00011   0.02206   0.02268   0.03195   0.03230
 Alpha virt. eigenvalues --    0.04728   0.04786   0.05165   0.05167   0.06182

 Mulliken charges:
               1
     1  Mg   0.838761
     2  C   -0.002948
     3  C   -0.094101
     4  C   -0.045851
     5  C   -0.063955
     6  N   -0.256786
     7  C   -0.052432
     8  C   -0.014051
     9  C   -0.086979
    10  C    0.046343
    11  C    0.104827
    12  C    0.053449
    13  C   -0.071828
    14  H    0.036221
    15  N   -0.433116
    16  C    0.168455
    17  C   -0.177149
    18  C   -0.003974
    19  C    0.148735
    20  C    0.110194
    21  C    0.012330
    22  O   -0.249632
    23  C    0.062447
    24  N   -0.341135
    25  C    0.041248
    26  C   -0.028180
    27  C   -0.023969
    28  C    0.074847
    29  C    0.076209
    30  C    0.035133
    31  C   -0.004509
    32  N   -0.310451
    33  C    0.080403
    34  C   -0.169722
    35  C    0.008346
    36  C    0.083008
    37  C    0.127309
    38  C    0.046114
    39  O   -0.188505
    40  C   -0.005328
    41  C    0.212869
    42  O   -0.257005
    43  O   -0.304846
    44  C    0.157687
    45  H   -0.017634
    46  H   -0.016854
    47  H   -0.041539
    48  H    0.000879
    49  H   -0.004006
    50  H    0.025426
    51  H    0.016413
    52  H    0.016610
    53  H    0.011290
    54  H    0.044185
    55  H    0.017780
    56  H    0.017975
    57  H    0.005862
    58  H    0.026768
    59  H    0.039666
    60  H    0.037289
    61  H    0.035677
    62  H    0.031628
    63  H    0.016592
    64  H    0.009382
    65  H    0.023182
    66  H    0.012506
    67  H    0.004680
    68  H    0.006315
    69  H    0.004690
    70  H    0.008813
    71  H    0.018194
    72  H    0.029045
    73  H    0.047571
    74  H    0.009094
    75  H    0.045920
    76  H    0.035074
    77  H    0.042869
    78  H    0.046411
    79  H    0.053761
    80  Mg   0.837881
    81  C   -0.016780
    82  C   -0.087787
    83  C   -0.045487
    84  C   -0.064877
    85  N   -0.254548
    86  C   -0.049868
    87  C   -0.015086
    88  C   -0.090513
    89  C    0.045763
    90  C    0.114378
    91  C    0.062509
    92  C   -0.077913
    93  H    0.034967
    94  N   -0.423496
    95  C    0.162941
    96  C   -0.174629
    97  C   -0.007773
    98  C    0.152123
    99  C    0.099372
   100  C    0.015586
   101  O   -0.253166
   102  C    0.061190
   103  N   -0.350080
   104  C    0.037529
   105  C   -0.019845
   106  C   -0.034810
   107  C    0.088923
   108  C    0.073663
   109  C    0.034726
   110  C   -0.007690
   111  N   -0.324095
   112  C    0.078457
   113  C   -0.163117
   114  C    0.002232
   115  C    0.096192
   116  C    0.131477
   117  C    0.042410
   118  O   -0.187900
   119  C    0.000887
   120  C    0.211275
   121  O   -0.250957
   122  O   -0.305663
   123  C    0.152018
   124  H   -0.019665
   125  H   -0.015559
   126  H   -0.040446
   127  H   -0.000679
   128  H   -0.004300
   129  H    0.022431
   130  H    0.014410
   131  H    0.016274
   132  H    0.013957
   133  H    0.037719
   134  H    0.020741
   135  H    0.019610
   136  H    0.008761
   137  H    0.026139
   138  H    0.039850
   139  H    0.038238
   140  H    0.036433
   141  H    0.033943
   142  H    0.014444
   143  H    0.012384
   144  H    0.025158
   145  H    0.011610
   146  H    0.005648
   147  H    0.006271
   148  H    0.003659
   149  H    0.010952
   150  H    0.018016
   151  H    0.030113
   152  H    0.046048
   153  H    0.008540
   154  H    0.046882
   155  H    0.034975
   156  H    0.043871
   157  H    0.049498
   158  H    0.053650
 Sum of Mulliken charges =  -0.00000

 Dipole moment (field-independent basis, Debye):
    X=             -2.0063    Y=              2.8196    Z=              3.0089  Tot=              4.5857
 Quadrupole moment (field-independent basis, Debye-Ang):
   XX=           -338.0718   YY=           -463.2991   ZZ=           -529.9933
   XY=            -30.5427   XZ=             69.8143   YZ=             18.1429

 Normal termination of Gaussian 16 at Sun Sep 12 14:35:45 2021.
