 Gaussian 16, Revision A.03,
 Gaussian 16:  ES64L-G16RevA.03 25-Dec-2016

 -----------------------------------
 #p cam-b3lyp/Def2SVP td=(nstates=5)
 -----------------------------------

 --------------------------------
 TDDFT excited states in gaussian
 --------------------------------
 Symbolic Z-matrix:
 Charge =  0 Multiplicity = 1

                         Standard orientation:
 ---------------------------------------------------------------------
 Center     Atomic      Atomic             Coordinates (Angstroms)
 Number     Number       Type             X           Y           Z
 ---------------------------------------------------------------------
      1         12           0       -3.935933   -0.451306   -0.071511
      2          6           0       -3.894155    3.020347    0.799174
      3          6           0       -4.613130    0.512876   -3.273826
      4          6           0       -4.426479   -3.505076   -0.771850
      5          6           0       -4.384885   -1.143503    3.314485
      6          7           0       -4.194901    1.543331   -0.996176
      7          6           0       -4.094561    2.796741   -0.564821
      8          6           0       -4.146940    3.850659   -1.711070
      9          6           0       -4.929231    2.994218   -2.804928
     10          6           0       -4.528009    1.600564   -2.354738
     11          6           0       -6.446024    3.123566   -2.709483
     12          6           0       -2.719828    4.254629   -2.212957
     13          6           0       -2.667080    5.506013   -3.094212
     14          1           0       -1.520196    6.394381   -2.981046
     15          7           0       -3.962657   -1.377300   -1.816409
     16          6           0       -4.242484   -0.825755   -3.021723
     17          6           0       -4.132151   -1.922594   -4.007346
     18          6           0       -3.951815   -3.194715   -3.254163
     19          6           0       -4.135045   -2.740798   -1.899259
     20          6           0       -4.151954   -1.702584   -5.488883
     21          6           0       -3.670963   -4.598785   -3.687567
     22          8           0       -3.782198   -5.591905   -2.890125
     23          6           0       -3.343749   -4.793714   -5.111638
     24          7           0       -4.566140   -2.085261    1.064564
     25          6           0       -4.638408   -3.309754    0.531293
     26          6           0       -4.835151   -4.355128    1.588849
     27          6           0       -4.638768   -3.610997    2.987940
     28          6           0       -4.432346   -2.169288    2.461502
     29          6           0       -6.192820   -5.071106    1.577776
     30          6           0       -3.582782   -4.200962    3.956059
     31          6           0       -2.197862   -4.023011    3.375175
     32          7           0       -3.935662    0.690632    1.774301
     33          6           0       -4.166227    0.201656    3.068294
     34          6           0       -4.172408    1.364534    3.974795
     35          6           0       -3.960133    2.457999    3.137466
     36          6           0       -3.855804    2.009371    1.789824
     37          6           0       -4.415713    1.327483    5.376174
     38          6           0       -3.821761    3.903483    3.064775
     39          8           0       -3.731654    4.808835    3.895264
     40          6           0       -3.895185    4.337534    1.534403
     41          6           0       -2.757696    5.287722    1.276389
     42          8           0       -1.573720    4.896192    1.324041
     43          8           0       -3.242422    6.438404    0.784949
     44          6           0       -2.162868    7.414787    0.479348
     45          1           0       -5.057973    0.685228   -4.255840
     46          1           0       -4.493565   -4.579554   -0.954700
     47          1           0       -4.434800   -1.290578    4.394915
     48          1           0       -4.709575    4.753530   -1.472974
     49          1           0       -4.561461    3.187527   -3.812450
     50          1           0       -6.743163    3.682447   -1.822195
     51          1           0       -6.822714    2.101746   -2.659645
     52          1           0       -6.856791    3.550019   -3.625008
     53          1           0       -2.365636    3.510376   -2.926187
     54          1           0       -2.035464    4.376350   -1.372626
     55          1           0       -3.596613    6.073134   -3.037178
     56          1           0       -2.606993    5.188361   -4.135214
     57          1           0       -4.463269   -0.689176   -5.739148
     58          1           0       -4.939996   -2.336788   -5.894449
     59          1           0       -3.199509   -1.956735   -5.954271
     60          1           0       -4.171011   -4.433510   -5.723553
     61          1           0       -3.085933   -5.846680   -5.219538
     62          1           0       -2.483004   -4.173816   -5.364211
     63          1           0       -4.093150   -5.147390    1.498400
     64          1           0       -5.557480   -3.594185    3.574761
     65          1           0       -6.115530   -6.155000    1.488862
     66          1           0       -6.787416   -4.653526    0.765758
     67          1           0       -6.826393   -4.862936    2.439557
     68          1           0       -3.741798   -5.271126    4.084154
     69          1           0       -3.601449   -3.742215    4.944722
     70          1           0       -2.103150   -4.877116    2.705573
     71          1           0       -1.446516   -4.060652    4.164652
     72          1           0       -2.134941   -3.121905    2.764818
     73          1           0       -3.678940    1.989305    5.831285
     74          1           0       -4.331514    0.313312    5.766010
     75          1           0       -5.437115    1.705864    5.413862
     76          1           0       -4.865457    4.811464    1.389197
     77          1           0       -2.392005    8.328673    1.027566
     78          1           0       -2.101165    7.478520   -0.607177
     79          1           0       -1.174191    7.179799    0.875123
     80         12           0        3.977971   -1.085451    0.227419
     81          6           0        4.075160    2.469502   -0.254150
     82          6           0        3.203346   -1.362470   -3.082837
     83          6           0        3.442849   -4.174976    0.713131
     84          6           0        3.626562   -0.473825    3.640355
     85          7           0        3.703554    0.430299   -1.359863
     86          6           0        3.826299    1.746709   -1.439499
     87          6           0        3.753467    2.313325   -2.882836
     88          6           0        2.921559    1.122258   -3.567061
     89          6           0        3.323440   -0.021591   -2.638194
     90          6           0        1.416263    1.307912   -3.472504
     91          6           0        5.171766    2.471812   -3.535021
     92          6           0        5.199829    3.303947   -4.818971
     93          1           0        6.363440    4.147962   -5.076098
     94          7           0        3.890708   -2.591912   -1.061590
     95          6           0        3.582811   -2.523297   -2.373747
     96          6           0        3.636284   -3.906291   -2.872392
     97          6           0        3.839370   -4.815759   -1.712078
     98          6           0        3.708514   -3.877351   -0.615553
     99          6           0        3.579395   -4.247352   -4.333164
    100          6           0        4.094708   -6.288786   -1.606328
    101          8           0        4.002468   -6.909645   -0.488795
    102          6           0        4.364277   -6.999428   -2.864819
    103          7           0        3.379291   -2.166990    1.899000
    104          6           0        3.273700   -3.506680    1.854221
    105          6           0        3.098886   -4.086624    3.237514
    106          6           0        3.352424   -2.872810    4.247443
    107          6           0        3.550813   -1.731197    3.226293
    108          6           0        1.735790   -4.714101    3.528390
    109          6           0        4.434779   -3.082096    5.341698
    110          6           0        5.802748   -3.170430    4.704321
    111          7           0        4.052067    0.649966    1.512300
    112          6           0        3.852564    0.685739    2.909797
    113          6           0        3.886278    2.105071    3.318201
    114          6           0        4.081620    2.803602    2.117202
    115          6           0        4.143656    1.885808    1.034018
    116          6           0        3.698500    2.594606    4.641526
    117          6           0        4.238824    4.109393    1.518134
    118          8           0        4.356218    5.255177    1.950738
    119          6           0        4.115121    3.959843   -0.059437
    120          6           0        5.251559    4.718385   -0.688440
    121          8           0        6.427480    4.351269   -0.518032
    122          8           0        4.754042    5.615769   -1.558816
    123          6           0        5.843491    6.385394   -2.216547
    124          1           0        2.735413   -1.548427   -4.049965
    125          1           0        3.360289   -5.238075    0.950785
    126          1           0        3.622635   -0.206699    4.699271
    127          1           0        3.212225    3.247061   -2.977509
    128          1           0        3.266716    0.930341   -4.579677
    129          1           0        1.152642    2.153795   -2.855150
    130          1           0        1.033297    0.391703   -3.042467
    131          1           0        0.981186    1.375791   -4.473726
    132          1           0        5.493235    1.500864   -3.933334
    133          1           0        5.873030    2.872682   -2.829212
    134          1           0        4.273189    3.873102   -4.961626
    135          1           0        5.230387    2.623139   -5.673124
    136          1           0        3.262103   -3.386877   -4.935084
    137          1           0        2.774057   -4.979010   -4.459570
    138          1           0        4.511752   -4.680957   -4.701093
    139          1           0        3.522604   -6.868703   -3.540806
    140          1           0        4.610014   -8.023057   -2.575554
    141          1           0        5.231573   -6.536818   -3.348972
    142          1           0        3.831908   -4.860964    3.427677
    143          1           0        2.448188   -2.625981    4.823006
    144          1           0        1.801182   -5.771422    3.847553
    145          1           0        1.121419   -4.621564    2.642655
    146          1           0        1.139692   -4.196616    4.278114
    147          1           0        4.271663   -4.030637    5.859206
    148          1           0        4.443828   -2.301580    6.095150
    149          1           0        5.862707   -4.217561    4.392824
    150          1           0        6.578777   -2.928803    5.427795
    151          1           0        5.855931   -2.553814    3.799546
    152          1           0        4.447691    3.358875    4.800001
    153          1           0        3.782009    1.796507    5.376265
    154          1           0        2.677085    2.976850    4.564988
    155          1           0        3.143860    4.361080   -0.351370
    156          1           0        5.636909    7.445601   -2.040540
    157          1           0        5.858264    6.042927   -3.268325
    158          1           0        6.841579    6.293164   -1.804534
 ---------------------------------------------------------------------

 SCF Done:  E(RCAM-B3LYP) =  -4069.81131806     A.U. after   19 cycles

 Excitation energies and oscillator strengths:

 Excited State   1:      Singlet-A      1.6396 eV  756.21 nm  f=0.0256  <S**2>=0.000
     309 -> 315       -0.11493
     310 -> 316        0.11788
     311 -> 313       -0.47846
     312 -> 314        0.49443
 This state for optimization and/or second-order correction.
 Total Energy, E(TD-HF/TD-DFT) =  -4069.75106544
 Copying the excited state density for this state as the 1-particle RhoCI density.

 Excited State   2:      Singlet-A      1.7088 eV  725.55 nm  f=0.6450  <S**2>=0.000
     309 -> 315        0.13164
     310 -> 316        0.12702
     311 -> 313        0.49123
     312 -> 314        0.47554

 Excited State   3:      Singlet-A      2.1796 eV  568.84 nm  f=0.0124  <S**2>=0.000
     309 -> 313       -0.39296
     310 -> 314        0.51215
     311 -> 315        0.16211
     312 -> 316       -0.21260

 Excited State   4:      Singlet-A      2.1961 eV  564.58 nm  f=0.1602  <S**2>=0.000
     309 -> 313        0.50674
     310 -> 314        0.38732
     311 -> 315       -0.22437
     312 -> 316       -0.17299

 Excited State   5:      Singlet-A      2.2346 eV  554.85 nm  f=0.0000  <S**2>=0.000
     312 -> 313        0.70707

 The electronic state is 1-A.
 Alpha  occ. eigenvalues --  -46.87907 -46.87394 -19.26235 -19.26160 -19.18991
 Alpha  occ. eigenvalues --  -19.18950 -19.18938 -19.18453 -19.18234 -19.17689
 Alpha  occ. eigenvalues --  -14.42569 -14.42247 -14.41557 -14.41100 -14.39519
 Alpha  occ. eigenvalues --  -14.39084 -14.38692 -14.38302 -10.39061 -10.38855
 Alpha  occ. eigenvalues --  -10.35589 -10.35135 -10.34451 -10.33865 -10.31631
 Alpha  occ. eigenvalues --  -10.31558 -10.31519 -10.31044 -10.31031 -10.30791
 Alpha  occ. eigenvalues --  -10.30685 -10.30612 -10.30328 -10.30097 -10.30061
 Alpha  occ. eigenvalues --  -10.30013 -10.29913 -10.29749 -10.29612 -10.29379
 Alpha  occ. eigenvalues --  -10.29174 -10.29100 -10.28886 -10.28701 -10.28589
 Alpha  occ. eigenvalues --  -10.28547 -10.28474 -10.28250 -10.28117 -10.27984
 Alpha  occ. eigenvalues --  -10.27907 -10.27852 -10.27712 -10.27690 -10.27687
 Alpha  occ. eigenvalues --  -10.27606 -10.27529 -10.27507 -10.27433 -10.27328
 Alpha  occ. eigenvalues --  -10.27290 -10.27209 -10.27207 -10.27178 -10.27173
 Alpha  occ. eigenvalues --  -10.26893 -10.26698 -10.26625 -10.26563 -10.26347
 Alpha  occ. eigenvalues --  -10.26303 -10.26198 -10.26137 -10.25972 -10.25951
 Alpha  occ. eigenvalues --  -10.25907 -10.25669 -10.25503 -10.25388 -10.25236
 Alpha  occ. eigenvalues --  -10.24938 -10.24887 -10.24829 -10.24565 -10.24540
 Alpha  occ. eigenvalues --  -10.24418  -3.16649  -3.16145  -1.91530  -1.91117
 Alpha  occ. eigenvalues --   -1.91027  -1.90959  -1.90616  -1.90451  -1.16589
 Alpha  occ. eigenvalues --   -1.16444  -1.08682  -1.08290  -1.07350  -1.06720
 Alpha  occ. eigenvalues --   -1.06707  -1.06614  -1.04698  -1.04240  -1.03871
 Alpha  occ. eigenvalues --   -1.03397  -1.03345  -1.02764  -1.02520  -1.01831
 Alpha  occ. eigenvalues --   -0.92064  -0.91689  -0.89627  -0.89322  -0.89254
 Alpha  occ. eigenvalues --   -0.88976  -0.88388  -0.88000  -0.87982  -0.87798
 Alpha  occ. eigenvalues --   -0.87474  -0.87426  -0.87412  -0.86868  -0.85113
 Alpha  occ. eigenvalues --   -0.84804  -0.84033  -0.83662  -0.83126  -0.82761
 Alpha  occ. eigenvalues --   -0.82705  -0.82448  -0.81629  -0.81357  -0.80682
 Alpha  occ. eigenvalues --   -0.80198  -0.78935  -0.78362  -0.77342  -0.77026
 Alpha  occ. eigenvalues --   -0.76927  -0.76700  -0.76006  -0.75618  -0.74987
 Alpha  occ. eigenvalues --   -0.74589  -0.72887  -0.72417  -0.71770  -0.71352
 Alpha  occ. eigenvalues --   -0.70022  -0.69559  -0.68999  -0.68620  -0.67747
 Alpha  occ. eigenvalues --   -0.67371  -0.67341  -0.67003  -0.65406  -0.65063
 Alpha  occ. eigenvalues --   -0.64942  -0.64707  -0.64523  -0.64434  -0.64371
 Alpha  occ. eigenvalues --   -0.63976  -0.62315  -0.62054  -0.60574  -0.60090
 Alpha  occ. eigenvalues --   -0.59930  -0.59579  -0.59087  -0.58735  -0.58599
 Alpha  occ. eigenvalues --   -0.58165  -0.57639  -0.57396  -0.57248  -0.56979
 Alpha  occ. eigenvalues --   -0.56426  -0.56004  -0.55934  -0.55683  -0.55638
 Alpha  occ. eigenvalues --   -0.55412  -0.55209  -0.55021  -0.54577  -0.54278
 Alpha  occ. eigenvalues --   -0.54025  -0.53735  -0.53425  -0.53346  -0.52995
 Alpha  occ. eigenvalues --   -0.52974  -0.52919  -0.52901  -0.52686  -0.52549
 Alpha  occ. eigenvalues --   -0.52455  -0.52203  -0.52016  -0.51751  -0.51490
 Alpha  occ. eigenvalues --   -0.51447  -0.51284  -0.50937  -0.50760  -0.50266
 Alpha  occ. eigenvalues --   -0.50161  -0.50064  -0.49779  -0.49656  -0.49640
 Alpha  occ. eigenvalues --   -0.49317  -0.49261  -0.49209  -0.48968  -0.48851
 Alpha  occ. eigenvalues --   -0.48666  -0.48584  -0.48523  -0.48317  -0.48152
 Alpha  occ. eigenvalues --   -0.48089  -0.47810  -0.47403  -0.47384  -0.46929
 Alpha  occ. eigenvalues --   -0.46886  -0.46682  -0.46484  -0.46467  -0.46368
 Alpha  occ. eigenvalues --   -0.46238  -0.46033  -0.45888  -0.45823  -0.45547
 Alpha  occ. eigenvalues --   -0.45292  -0.44987  -0.44673  -0.44634  -0.44318
 Alpha  occ. eigenvalues --   -0.44265  -0.44222  -0.44211  -0.44105  -0.43899
 Alpha  occ. eigenvalues --   -0.43849  -0.43680  -0.43545  -0.43502  -0.43339
 Alpha  occ. eigenvalues --   -0.43176  -0.43116  -0.42810  -0.42697  -0.42655
 Alpha  occ. eigenvalues --   -0.42606  -0.42334  -0.42099  -0.41799  -0.41760
 Alpha  occ. eigenvalues --   -0.41659  -0.41387  -0.41266  -0.41243  -0.40998
 Alpha  occ. eigenvalues --   -0.40967  -0.40768  -0.40672  -0.40527  -0.40497
 Alpha  occ. eigenvalues --   -0.40395  -0.40284  -0.40063  -0.39527  -0.39230
 Alpha  occ. eigenvalues --   -0.38575  -0.38151  -0.37883  -0.37494  -0.37427
 Alpha  occ. eigenvalues --   -0.37389  -0.37039  -0.36970  -0.36731  -0.36565
 Alpha  occ. eigenvalues --   -0.36245  -0.35997  -0.34394  -0.33985  -0.33769
 Alpha  occ. eigenvalues --   -0.33625  -0.33283  -0.32904  -0.31476  -0.31141
 Alpha  occ. eigenvalues --   -0.31016  -0.30707  -0.30089  -0.29596  -0.29573
 Alpha  occ. eigenvalues --   -0.29427  -0.29044  -0.28867  -0.24188  -0.23760
 Alpha  occ. eigenvalues --   -0.21244  -0.20844
 Alpha virt. eigenvalues --   -0.08891  -0.08503  -0.01863  -0.01423  -0.00187
 Alpha virt. eigenvalues --    0.00238   0.02102   0.02403   0.02634   0.03598
 Alpha virt. eigenvalues --    0.04598   0.04964   0.05098   0.05409   0.06022

 Mulliken charges:
               1
     1  Mg   0.838554
     2  C   -0.002716
     3  C   -0.095245
     4  C   -0.044971
     5  C   -0.064208
     6  N   -0.256674
     7  C   -0.052828
     8  C   -0.013676
     9  C   -0.086865
    10  C    0.046052
    11  C    0.104807
    12  C    0.052193
    13  C   -0.072075
    14  H    0.037065
    15  N   -0.433242
    16  C    0.168101
    17  C   -0.178429
    18  C   -0.004290
    19  C    0.149203
    20  C    0.110405
    21  C    0.012398
    22  O   -0.248414
    23  C    0.062924
    24  N   -0.341093
    25  C    0.041042
    26  C   -0.028828
    27  C   -0.023829
    28  C    0.074977
    29  C    0.076019
    30  C    0.037863
    31  C   -0.013491
    32  N   -0.310703
    33  C    0.080983
    34  C   -0.170015
    35  C    0.008636
    36  C    0.083503
    37  C    0.127348
    38  C    0.046464
    39  O   -0.187059
    40  C   -0.005493
    41  C    0.213183
    42  O   -0.256423
    43  O   -0.305354
    44  C    0.156053
    45  H   -0.017943
    46  H   -0.016304
    47  H   -0.041682
    48  H    0.001735
    49  H   -0.004871
    50  H    0.025861
    51  H    0.016611
    52  H    0.016657
    53  H    0.009839
    54  H    0.044375
    55  H    0.018858
    56  H    0.016609
    57  H    0.005598
    58  H    0.027247
    59  H    0.036789
    60  H    0.037653
    61  H    0.035662
    62  H    0.028606
    63  H    0.017702
    64  H    0.009748
    65  H    0.023760
    66  H    0.012503
    67  H    0.004824
    68  H    0.006759
    69  H    0.003166
    70  H    0.013877
    71  H    0.018918
    72  H    0.030213
    73  H    0.047633
    74  H    0.008748
    75  H    0.046515
    76  H    0.035292
    77  H    0.043784
    78  H    0.045377
    79  H    0.057680
    80  Mg   0.837048
    81  C   -0.015080
    82  C   -0.088029
    83  C   -0.044965
    84  C   -0.064135
    85  N   -0.254374
    86  C   -0.049016
    87  C   -0.014881
    88  C   -0.091338
    89  C    0.045378
    90  C    0.112757
    91  C    0.062797
    92  C   -0.077164
    93  H    0.034311
    94  N   -0.423436
    95  C    0.162494
    96  C   -0.175117
    97  C   -0.007522
    98  C    0.151287
    99  C    0.099566
   100  C    0.015888
   101  O   -0.253672
   102  C    0.061278
   103  N   -0.349984
   104  C    0.036704
   105  C   -0.018144
   106  C   -0.036614
   107  C    0.089545
   108  C    0.067817
   109  C    0.034605
   110  C   -0.006910
   111  N   -0.325089
   112  C    0.079458
   113  C   -0.160059
   114  C    0.005734
   115  C    0.096012
   116  C    0.129571
   117  C    0.047237
   118  O   -0.187131
   119  C   -0.000946
   120  C    0.210477
   121  O   -0.251674
   122  O   -0.305679
   123  C    0.152312
   124  H   -0.022401
   125  H   -0.016006
   126  H   -0.040220
   127  H   -0.000962
   128  H   -0.005987
   129  H    0.026480
   130  H    0.015635
   131  H    0.011903
   132  H    0.013746
   133  H    0.037873
   134  H    0.019594
   135  H    0.018757
   136  H    0.006552
   137  H    0.025277
   138  H    0.038930
   139  H    0.038388
   140  H    0.035847
   141  H    0.033069
   142  H    0.013424
   143  H    0.012148
   144  H    0.023325
   145  H    0.016340
   146  H    0.007608
   147  H    0.005278
   148  H    0.003685
   149  H    0.010599
   150  H    0.017578
   151  H    0.030415
   152  H    0.044947
   153  H    0.006830
   154  H    0.055129
   155  H    0.040335
   156  H    0.042941
   157  H    0.048559
   158  H    0.053418
 Sum of Mulliken charges =  -0.00000

 Dipole moment (field-independent basis, Debye):
    X=             -4.0101    Y=             -1.5628    Z=             -7.1391  Tot=              8.3361
 Quadrupole moment (field-independent basis, Debye-Ang):
   XX=           -519.9039   YY=           -545.9224   ZZ=           -452.7300
   XY=            -10.5387   XZ=             -3.7289   YZ=            -43.8788

 Normal termination of Gaussian 16 at Thu Sep  9 06:32:30 2021.
