 Gaussian 16, Revision A.03,
 Gaussian 16:  ES64L-G16RevA.03 25-Dec-2016

 -----------------------------------
 #p cam-b3lyp/Def2SVP td=(nstates=5)
 -----------------------------------

 --------------------------------
 TDDFT excited states in gaussian
 --------------------------------
 Symbolic Z-matrix:
 Charge =  0 Multiplicity = 1

                         Standard orientation:
 ---------------------------------------------------------------------
 Center     Atomic      Atomic             Coordinates (Angstroms)
 Number     Number       Type             X           Y           Z
 ---------------------------------------------------------------------
      1         12           0        5.272638   -0.613419    0.644926
      2          6           0        5.753561    2.020390   -1.730780
      3          6           0        5.838235    1.694055    3.094156
      4          6           0        5.302951   -2.998778    2.734366
      5          6           0        5.869577   -2.862643   -1.949359
      6          7           0        5.725715    1.552023    0.565992
      7          6           0        5.823520    2.454510   -0.405152
      8          6           0        5.931899    3.917474    0.119602
      9          6           0        6.512892    3.620697    1.574376
     10          6           0        5.964408    2.218775    1.773633
     11          6           0        8.036361    3.563461    1.621999
     12          6           0        4.538271    4.627491    0.193156
     13          6           0        4.588000    6.146599    0.380753
     14          1           0        3.579931    6.966458   -0.274210
     15          7           0        5.050448   -0.600046    2.607909
     16          6           0        5.312941    0.431754    3.445627
     17          6           0        4.987529   -0.053288    4.804127
     18          6           0        4.695383   -1.510587    4.709121
     19          6           0        5.034487   -1.770222    3.333267
     20          6           0        4.929147    0.840351    6.004856
     21          6           0        4.200660   -2.512662    5.703720
     22          8           0        4.236863   -3.770479    5.477535
     23          6           0        3.748483   -1.981312    7.002275
     24          7           0        5.761570   -2.636421    0.483553
     25          6           0        5.632474   -3.462922    1.527208
     26          6           0        5.765091   -4.896935    1.107736
     27          6           0        5.770510   -4.891749   -0.489041
     28          6           0        5.719142   -3.361330   -0.720235
     29          6           0        7.011720   -5.631508    1.619919
     30          6           0        4.718503   -5.780618   -1.198698
     31          6           0        3.330974   -5.234757   -0.945921
     32          7           0        5.556841   -0.487533   -1.503196
     33          6           0        5.813592   -1.548715   -2.383334
     34          6           0        6.039062   -0.959664   -3.716095
     35          6           0        5.913367    0.413375   -3.514081
     36          6           0        5.653486    0.667681   -2.137098
     37          6           0        6.375958   -1.676669   -4.897974
     38          6           0        5.962562    1.726351   -4.136601
     39          8           0        6.053280    2.133657   -5.295637
     40          6           0        5.981976    2.826333   -2.985302
     41          6           0        4.964551    3.875589   -3.341979
     42          8           0        3.745750    3.607650   -3.351891
     43          8           0        5.560458    5.077183   -3.382083
     44          6           0        4.600332    6.167174   -3.701820
     45          1           0        6.229829    2.273955    3.932196
     46          1           0        5.213902   -3.859491    3.400461
     47          1           0        5.977544   -3.507940   -2.823080
     48          1           0        6.624760    4.549519   -0.436173
     49          1           0        6.102089    4.298226    2.322652
     50          1           0        8.468166    3.608125    0.622263
     51          1           0        8.277160    2.612997    2.098577
     52          1           0        8.432691    4.337393    2.279820
     53          1           0        4.038119    4.342527    1.118739
     54          1           0        3.938561    4.392338   -0.686831
     55          1           0        5.586061    6.539854    0.185475
     56          1           0        4.411343    6.366676    1.433634
     57          1           0        5.352892    1.821602    5.794781
     58          1           0        5.594969    0.411576    6.753549
     59          1           0        3.920330    0.916939    6.410754
     60          1           0        4.569724   -1.443823    7.476845
     61          1           0        3.346507   -2.831849    7.551686
     62          1           0        2.961335   -1.247033    6.828547
     63          1           0        4.920217   -5.487200    1.460156
     64          1           0        6.723355   -5.231168   -0.895926
     65          1           0        6.785488   -6.533078    2.189740
     66          1           0        7.596085   -4.929623    2.214196
     67          1           0        7.727872   -5.909982    0.847264
     68          1           0        4.743375   -6.792571   -0.795861
     69          1           0        4.869097   -5.848776   -2.276161
     70          1           0        3.075956   -5.658146    0.024923
     71          1           0        2.640288   -5.579954   -1.715987
     72          1           0        3.343881   -4.150290   -0.835235
     73          1           0        5.768055   -1.251411   -5.696459
     74          1           0        6.186719   -2.743533   -4.781385
     75          1           0        7.438472   -1.447279   -4.977360
     76          1           0        6.993367    3.230417   -2.954859
     77          1           0        4.987376    6.689405   -4.576866
     78          1           0        4.469247    6.743279   -2.785673
     79          1           0        3.620467    5.855262   -4.065020
     80         12           0       -5.223286   -0.670911   -0.652504
     81          6           0       -5.981567    1.865526    1.770421
     82          6           0       -5.599869    1.721480   -3.054429
     83          6           0       -5.004565   -2.966076   -2.832359
     84          6           0       -6.025219   -3.036478    1.777867
     85          7           0       -5.725693    1.479793   -0.532786
     86          6           0       -5.931848    2.348041    0.445979
     87          6           0       -6.013962    3.828306   -0.014047
     88          6           0       -6.453445    3.582213   -1.538894
     89          6           0       -5.862248    2.188660   -1.741790
     90          6           0       -7.959134    3.493939   -1.724490
     91          6           0       -4.628275    4.559199    0.073552
     92          6           0       -4.694516    6.081854   -0.063931
     93          1           0       -3.762705    6.892277    0.715432
     94          7           0       -4.811041   -0.565957   -2.590958
     95          6           0       -5.006075    0.490025   -3.408343
     96          6           0       -4.560961    0.054692   -4.741204
     97          6           0       -4.241329   -1.397383   -4.677924
     98          6           0       -4.703177   -1.710915   -3.340581
     99          6           0       -4.397482    1.002038   -5.894136
    100          6           0       -3.633796   -2.349399   -5.663208
    101          8           0       -3.667539   -3.617886   -5.482584
    102          6           0       -3.080998   -1.758369   -6.890634
    103          7           0       -5.679127   -2.699002   -0.615154
    104          6           0       -5.439308   -3.481233   -1.682167
    105          6           0       -5.586994   -4.942590   -1.331415
    106          6           0       -5.740006   -4.989158    0.259807
    107          6           0       -5.743925   -3.473773    0.558108
    108          6           0       -6.768619   -5.665646   -1.977439
    109          6           0       -4.743606   -5.892817    1.036494
    110          6           0       -3.345558   -5.326897    0.933542
    111          7           0       -5.705515   -0.635436    1.453268
    112          6           0       -6.033384   -1.738314    2.271935
    113          6           0       -6.395478   -1.202242    3.600071
    114          6           0       -6.274406    0.187913    3.454122
    115          6           0       -5.885264    0.497600    2.122890
    116          6           0       -6.819638   -1.971365    4.720187
    117          6           0       -6.397602    1.464395    4.120536
    118          8           0       -6.612350    1.823090    5.277673
    119          6           0       -6.336162    2.614402    3.025041
    120          6           0       -5.375301    3.665765    3.508688
    121          8           0       -4.165260    3.406981    3.632957
    122          8           0       -6.001855    4.856172    3.536120
    123          6           0       -5.086459    5.933077    3.998887
    124          1           0       -5.916235    2.336906   -3.897070
    125          1           0       -4.837835   -3.803285   -3.514088
    126          1           0       -6.192259   -3.714961    2.617177
    127          1           0       -6.762098    4.422082    0.497330
    128          1           0       -5.980786    4.297838   -2.206598
    129          1           0       -8.482171    3.493332   -0.779724
    130          1           0       -8.136274    2.567884   -2.255597
    131          1           0       -8.304698    4.292386   -2.387355
    132          1           0       -4.037840    4.315469   -0.819045
    133          1           0       -4.117551    4.300151    0.980566
    134          1           0       -5.717785    6.461407    0.044743
    135          1           0       -4.416156    6.350433   -1.085890
    136          1           0       -4.865418    1.972348   -5.686940
    137          1           0       -4.977645    0.593354   -6.728549
    138          1           0       -3.356582    1.109581   -6.206607
    139          1           0       -3.863628   -1.213678   -7.413391
    140          1           0       -2.612579   -2.585307   -7.427886
    141          1           0       -2.318034   -1.022964   -6.611955
    142          1           0       -4.702881   -5.499839   -1.615890
    143          1           0       -6.725572   -5.371735    0.563340
    144          1           0       -6.468172   -6.551653   -2.568029
    145          1           0       -7.303608   -4.958797   -2.597663
    146          1           0       -7.541254   -5.997183   -1.285830
    147          1           0       -4.708703   -6.889418    0.589590
    148          1           0       -4.999794   -6.018061    2.083238
    149          1           0       -2.995775   -5.707246   -0.030858
    150          1           0       -2.724295   -5.689876    1.749825
    151          1           0       -3.367669   -4.232879    0.868035
    152          1           0       -6.304696   -1.573086    5.584303
    153          1           0       -6.604699   -3.028773    4.580751
    154          1           0       -7.893136   -1.764971    4.703244
    155          1           0       -7.346591    3.007189    2.905387
    156          1           0       -5.568531    6.416520    4.854207
    157          1           0       -4.890644    6.561303    3.109657
    158          1           0       -4.138905    5.633917    4.431424
 ---------------------------------------------------------------------

 SCF Done:  E(RCAM-B3LYP) =  -4069.81227223     A.U. after   19 cycles

 Excitation energies and oscillator strengths:

 Excited State   1:      Singlet-A      1.6578 eV  747.88 nm  f=0.0070  <S**2>=0.000
     309 -> 315        0.11327
     310 -> 316        0.12624
     311 -> 314       -0.45782
     312 -> 313        0.51239
 This state for optimization and/or second-order correction.
 Total Energy, E(TD-HF/TD-DFT) =  -4069.75134875
 Copying the excited state density for this state as the 1-particle RhoCI density.

 Excited State   2:      Singlet-A      1.6967 eV  730.76 nm  f=0.7163  <S**2>=0.000
     309 -> 315       -0.13419
     310 -> 316        0.11938
     311 -> 314        0.51054
     312 -> 313        0.45626

 Excited State   3:      Singlet-A      2.1854 eV  567.34 nm  f=0.0227  <S**2>=0.000
     309 -> 314       -0.27893
     310 -> 313        0.57986
     311 -> 315       -0.11720
     312 -> 316       -0.24506

 Excited State   4:      Singlet-A      2.1952 eV  564.81 nm  f=0.1602  <S**2>=0.000
     309 -> 314        0.57682
     310 -> 313        0.27642
     311 -> 315        0.25265
     312 -> 316       -0.12164

 Excited State   5:      Singlet-A      2.5885 eV  478.99 nm  f=0.0000  <S**2>=0.000
     311 -> 313        0.70708

 The electronic state is 1-A.
 Alpha  occ. eigenvalues --  -46.87647 -46.87511 -19.26327 -19.26273 -19.19127
 Alpha  occ. eigenvalues --  -19.18998 -19.18632 -19.18527 -19.18078 -19.17951
 Alpha  occ. eigenvalues --  -14.42351 -14.42306 -14.41303 -14.41219 -14.39248
 Alpha  occ. eigenvalues --  -14.39196 -14.38459 -14.38447 -10.39050 -10.39050
 Alpha  occ. eigenvalues --  -10.35261 -10.35198 -10.34301 -10.34132 -10.31770
 Alpha  occ. eigenvalues --  -10.31705 -10.31275 -10.31178 -10.30872 -10.30763
 Alpha  occ. eigenvalues --  -10.30432 -10.30366 -10.30258 -10.30222 -10.30046
 Alpha  occ. eigenvalues --  -10.29984 -10.29788 -10.29770 -10.29484 -10.29274
 Alpha  occ. eigenvalues --  -10.29250 -10.29095 -10.28629 -10.28594 -10.28564
 Alpha  occ. eigenvalues --  -10.28451 -10.28258 -10.28222 -10.28012 -10.27991
 Alpha  occ. eigenvalues --  -10.27856 -10.27652 -10.27580 -10.27519 -10.27426
 Alpha  occ. eigenvalues --  -10.27390 -10.27354 -10.27347 -10.27313 -10.27304
 Alpha  occ. eigenvalues --  -10.27271 -10.27265 -10.27258 -10.27222 -10.27076
 Alpha  occ. eigenvalues --  -10.26962 -10.26583 -10.26563 -10.26170 -10.26152
 Alpha  occ. eigenvalues --  -10.26123 -10.26025 -10.26010 -10.25915 -10.25871
 Alpha  occ. eigenvalues --  -10.25791 -10.25751 -10.25740 -10.25314 -10.25296
 Alpha  occ. eigenvalues --  -10.24736 -10.24701 -10.24645 -10.24588 -10.24552
 Alpha  occ. eigenvalues --  -10.24505  -3.16389  -3.16261  -1.91271  -1.91143
 Alpha  occ. eigenvalues --   -1.90858  -1.90732  -1.90700  -1.90569  -1.16618
 Alpha  occ. eigenvalues --   -1.16617  -1.08569  -1.08546  -1.07032  -1.06910
 Alpha  occ. eigenvalues --   -1.06778  -1.06620  -1.04439  -1.04351  -1.03615
 Alpha  occ. eigenvalues --   -1.03518  -1.03088  -1.02895  -1.02267  -1.01969
 Alpha  occ. eigenvalues --   -0.91862  -0.91850  -0.89374  -0.89360  -0.89064
 Alpha  occ. eigenvalues --   -0.89024  -0.88144  -0.88091  -0.87743  -0.87667
 Alpha  occ. eigenvalues --   -0.87543  -0.87532  -0.87093  -0.86926  -0.84869
 Alpha  occ. eigenvalues --   -0.84854  -0.83799  -0.83754  -0.82783  -0.82747
 Alpha  occ. eigenvalues --   -0.82514  -0.82504  -0.81509  -0.81503  -0.80474
 Alpha  occ. eigenvalues --   -0.80321  -0.78635  -0.78469  -0.77080  -0.77007
 Alpha  occ. eigenvalues --   -0.76828  -0.76793  -0.75815  -0.75725  -0.74769
 Alpha  occ. eigenvalues --   -0.74684  -0.72636  -0.72561  -0.71545  -0.71456
 Alpha  occ. eigenvalues --   -0.69756  -0.69627  -0.68741  -0.68695  -0.67506
 Alpha  occ. eigenvalues --   -0.67467  -0.67080  -0.67051  -0.65165  -0.65149
 Alpha  occ. eigenvalues --   -0.64736  -0.64648  -0.64537  -0.64499  -0.64128
 Alpha  occ. eigenvalues --   -0.64076  -0.62225  -0.62199  -0.60276  -0.60170
 Alpha  occ. eigenvalues --   -0.59674  -0.59663  -0.58864  -0.58857  -0.58377
 Alpha  occ. eigenvalues --   -0.58302  -0.57502  -0.57468  -0.57175  -0.57099
 Alpha  occ. eigenvalues --   -0.56179  -0.56071  -0.55912  -0.55801  -0.55371
 Alpha  occ. eigenvalues --   -0.55312  -0.55228  -0.55140  -0.54428  -0.54393
 Alpha  occ. eigenvalues --   -0.53785  -0.53772  -0.53158  -0.53090  -0.53081
 Alpha  occ. eigenvalues --   -0.53008  -0.52808  -0.52786  -0.52583  -0.52472
 Alpha  occ. eigenvalues --   -0.52287  -0.52271  -0.51803  -0.51777  -0.51514
 Alpha  occ. eigenvalues --   -0.51481  -0.51087  -0.51079  -0.50366  -0.50262
 Alpha  occ. eigenvalues --   -0.49878  -0.49824  -0.49758  -0.49725  -0.49375
 Alpha  occ. eigenvalues --   -0.49333  -0.49087  -0.49066  -0.48990  -0.48982
 Alpha  occ. eigenvalues --   -0.48492  -0.48451  -0.48343  -0.48284  -0.48266
 Alpha  occ. eigenvalues --   -0.48166  -0.47557  -0.47455  -0.47154  -0.46969
 Alpha  occ. eigenvalues --   -0.46662  -0.46580  -0.46434  -0.46423  -0.46224
 Alpha  occ. eigenvalues --   -0.46134  -0.46046  -0.45973  -0.45733  -0.45730
 Alpha  occ. eigenvalues --   -0.45085  -0.45064  -0.44476  -0.44406  -0.44351
 Alpha  occ. eigenvalues --   -0.44342  -0.44009  -0.44007  -0.43963  -0.43945
 Alpha  occ. eigenvalues --   -0.43880  -0.43775  -0.43473  -0.43408  -0.43263
 Alpha  occ. eigenvalues --   -0.43252  -0.42902  -0.42861  -0.42784  -0.42650
 Alpha  occ. eigenvalues --   -0.42515  -0.42411  -0.41877  -0.41838  -0.41581
 Alpha  occ. eigenvalues --   -0.41550  -0.41408  -0.41331  -0.41013  -0.40864
 Alpha  occ. eigenvalues --   -0.40737  -0.40648  -0.40585  -0.40530  -0.40435
 Alpha  occ. eigenvalues --   -0.40369  -0.40104  -0.40083  -0.39292  -0.39285
 Alpha  occ. eigenvalues --   -0.38330  -0.38225  -0.37631  -0.37535  -0.37178
 Alpha  occ. eigenvalues --   -0.37135  -0.37135  -0.37065  -0.36717  -0.36656
 Alpha  occ. eigenvalues --   -0.36106  -0.36087  -0.34148  -0.34119  -0.33808
 Alpha  occ. eigenvalues --   -0.33728  -0.33050  -0.33036  -0.31166  -0.31091
 Alpha  occ. eigenvalues --   -0.30897  -0.30833  -0.29942  -0.29861  -0.29295
 Alpha  occ. eigenvalues --   -0.29183  -0.29168  -0.29070  -0.23940  -0.23896
 Alpha  occ. eigenvalues --   -0.20982  -0.20970
 Alpha virt. eigenvalues --   -0.08642  -0.08626  -0.01600  -0.01536   0.00101
 Alpha virt. eigenvalues --    0.00138   0.02320   0.02330   0.03259   0.03462
 Alpha virt. eigenvalues --    0.04847   0.04858   0.05138   0.05216   0.06273

 Mulliken charges:
               1
     1  Mg   0.839542
     2  C   -0.003134
     3  C   -0.093368
     4  C   -0.045849
     5  C   -0.063829
     6  N   -0.256804
     7  C   -0.052555
     8  C   -0.014167
     9  C   -0.087157
    10  C    0.046656
    11  C    0.104834
    12  C    0.053218
    13  C   -0.071363
    14  H    0.034665
    15  N   -0.433253
    16  C    0.169123
    17  C   -0.176202
    18  C   -0.003435
    19  C    0.149048
    20  C    0.110011
    21  C    0.012886
    22  O   -0.250011
    23  C    0.061913
    24  N   -0.341205
    25  C    0.041466
    26  C   -0.028164
    27  C   -0.023858
    28  C    0.074727
    29  C    0.076288
    30  C    0.035156
    31  C   -0.004644
    32  N   -0.310256
    33  C    0.080094
    34  C   -0.170160
    35  C    0.007772
    36  C    0.082758
    37  C    0.127499
    38  C    0.045411
    39  O   -0.189882
    40  C   -0.005168
    41  C    0.212708
    42  O   -0.257865
    43  O   -0.304534
    44  C    0.158227
    45  H   -0.017555
    46  H   -0.016913
    47  H   -0.041694
    48  H    0.000369
    49  H   -0.003682
    50  H    0.025187
    51  H    0.016488
    52  H    0.016519
    53  H    0.012831
    54  H    0.043608
    55  H    0.017469
    56  H    0.018558
    57  H    0.005846
    58  H    0.026510
    59  H    0.041969
    60  H    0.036994
    61  H    0.035605
    62  H    0.033873
    63  H    0.016530
    64  H    0.009107
    65  H    0.022998
    66  H    0.012452
    67  H    0.004550
    68  H    0.005930
    69  H    0.004755
    70  H    0.008329
    71  H    0.019318
    72  H    0.029148
    73  H    0.046569
    74  H    0.009271
    75  H    0.045630
    76  H    0.034910
    77  H    0.042417
    78  H    0.046621
    79  H    0.052340
    80  Mg   0.838507
    81  C   -0.016968
    82  C   -0.086813
    83  C   -0.045530
    84  C   -0.064882
    85  N   -0.254569
    86  C   -0.049991
    87  C   -0.015245
    88  C   -0.090699
    89  C    0.046112
    90  C    0.114414
    91  C    0.062186
    92  C   -0.077403
    93  H    0.033326
    94  N   -0.423637
    95  C    0.163879
    96  C   -0.173479
    97  C   -0.007086
    98  C    0.152409
    99  C    0.099147
   100  C    0.016206
   101  O   -0.253856
   102  C    0.060433
   103  N   -0.350040
   104  C    0.037697
   105  C   -0.019800
   106  C   -0.034649
   107  C    0.088695
   108  C    0.073806
   109  C    0.034819
   110  C   -0.007706
   111  N   -0.323829
   112  C    0.078000
   113  C   -0.163651
   114  C    0.001747
   115  C    0.095925
   116  C    0.131651
   117  C    0.041744
   118  O   -0.189238
   119  C    0.001069
   120  C    0.211131
   121  O   -0.251631
   122  O   -0.305440
   123  C    0.152504
   124  H   -0.019560
   125  H   -0.015764
   126  H   -0.040838
   127  H   -0.001252
   128  H   -0.003879
   129  H    0.022140
   130  H    0.014425
   131  H    0.016113
   132  H    0.015840
   133  H    0.037188
   134  H    0.020308
   135  H    0.020209
   136  H    0.008716
   137  H    0.025688
   138  H    0.043155
   139  H    0.037886
   140  H    0.036155
   141  H    0.037127
   142  H    0.014231
   143  H    0.012014
   144  H    0.024834
   145  H    0.011597
   146  H    0.005427
   147  H    0.005753
   148  H    0.003530
   149  H    0.010469
   150  H    0.018608
   151  H    0.030389
   152  H    0.045149
   153  H    0.008437
   154  H    0.046497
   155  H    0.034711
   156  H    0.043361
   157  H    0.049626
   158  H    0.052445
 Sum of Mulliken charges =  -0.00000

 Dipole moment (field-independent basis, Debye):
    X=              0.4415    Y=              3.0890    Z=              0.0833  Tot=              3.1216
 Quadrupole moment (field-independent basis, Debye-Ang):
   XX=           -490.6512   YY=           -461.1970   ZZ=           -535.3482
   XY=              1.4414   XZ=             46.7312   YZ=              1.9071

 Normal termination of Gaussian 16 at Fri Sep 10 13:05:51 2021.
