 Gaussian 16, Revision A.03,
 Gaussian 16:  ES64L-G16RevA.03 25-Dec-2016

 -----------------------------------
 #p cam-b3lyp/Def2SVP td=(nstates=5)
 -----------------------------------

 --------------------------------
 TDDFT excited states in gaussian
 --------------------------------
 Symbolic Z-matrix:
 Charge =  0 Multiplicity = 1

                         Standard orientation:
 ---------------------------------------------------------------------
 Center     Atomic      Atomic             Coordinates (Angstroms)
 Number     Number       Type             X           Y           Z
 ---------------------------------------------------------------------
      1         12           0       -6.537029   -0.690102    0.265852
      2          6           0       -6.705281    2.869191   -0.073766
      3          6           0       -7.510272   -0.898400   -2.997961
      4          6           0       -6.835726   -3.821506    0.667977
      5          6           0       -6.692061   -0.220391    3.715635
      6          7           0       -7.015028    0.859836   -1.240752
      7          6           0       -6.982783    2.188635   -1.261402
      8          6           0       -7.197477    2.789832   -2.682614
      9          6           0       -7.985339    1.576523   -3.352802
     10          6           0       -7.446031    0.438473   -2.504325
     11          6           0       -9.497162    1.654564   -3.166248
     12          6           0       -5.844951    3.071450   -3.419563
     13          6           0       -5.951922    3.952952   -4.667306
     14          1           0       -4.872739    4.883492   -4.961939
     15          7           0       -6.613719   -2.150783   -1.062070
     16          6           0       -7.019553   -2.053111   -2.350885
     17          6           0       -6.893370   -3.411280   -2.921967
     18          6           0       -6.561964   -4.343858   -1.809060
     19          6           0       -6.684587   -3.469040   -0.671064
     20          6           0       -7.034120   -3.705489   -4.383946
     21          6           0       -6.203509   -5.795930   -1.775456
     22          8           0       -6.180730   -6.465872   -0.686773
     23          6           0       -5.962754   -6.443453   -3.077682
     24          7           0       -6.956613   -1.874058    1.933135
     25          6           0       -6.970345   -3.208670    1.845923
     26          6           0       -7.010283   -3.844212    3.204020
     27          6           0       -6.774931   -2.662720    4.252084
     28          6           0       -6.719044   -1.474885    3.260018
     29          6           0       -8.305378   -4.588776    3.556674
     30          6           0       -5.610855   -2.837796    5.259405
     31          6           0       -4.288193   -2.797404    4.527264
     32          7           0       -6.496417    1.006305    1.619219
     33          6           0       -6.596822    0.971884    3.017578
     34          6           0       -6.630127    2.370628    3.482847
     35          6           0       -6.563051    3.126479    2.314072
     36          6           0       -6.518798    2.255143    1.188414
     37          6           0       -6.770930    2.796623    4.833083
     38          6           0       -6.543315    4.467608    1.752965
     39          8           0       -6.466103    5.603432    2.223534
     40          6           0       -6.757513    4.355436    0.179001
     41          6           0       -5.718526    5.218342   -0.483728
     42          8           0       -4.507194    4.925522   -0.418172
     43          8           0       -6.324814    6.109905   -1.282522
     44          6           0       -5.348822    6.978479   -1.993277
     45          1           0       -8.034969   -1.090045   -3.935994
     46          1           0       -6.831435   -4.896577    0.859403
     47          1           0       -6.654463    0.003518    4.783297
     48          1           0       -7.810753    3.690786   -2.707092
     49          1           0       -7.705331    1.436556   -4.396702
     50          1           0       -9.774045    2.464537   -2.491562
     51          1           0       -9.788557    0.692064   -2.745326
     52          1           0      -10.003134    1.725918   -4.129409
     53          1           0       -5.484661    2.148825   -3.874552
     54          1           0       -5.114932    3.503666   -2.734297
     55          1           0       -6.916573    4.458867   -4.716387
     56          1           0       -5.940382    3.306016   -5.544541
     57          1           0       -7.440331   -2.852904   -4.926749
     58          1           0       -7.796774   -4.477880   -4.481312
     59          1           0       -6.099735   -4.053891   -4.824256
     60          1           0       -6.856463   -6.352706   -3.695418
     61          1           0       -5.631775   -7.456778   -2.853017
     62          1           0       -5.172833   -5.903005   -3.600071
     63          1           0       -6.216907   -4.582403    3.313811
     64          1           0       -7.648736   -2.494746    4.882103
     65          1           0       -8.150186   -5.633782    3.826088
     66          1           0       -8.986215   -4.500012    2.710581
     67          1           0       -8.891266   -4.133884    4.354938
     68          1           0       -5.676518   -3.808457    5.749764
     69          1           0       -5.595881   -2.073827    6.036823
     70          1           0       -4.174322   -3.821525    4.173651
     71          1           0       -3.482695   -2.528806    5.211543
     72          1           0       -4.338723   -2.153224    3.649218
     73          1           0       -6.057943    3.609136    4.972514
     74          1           0       -6.580735    1.979084    5.528107
     75          1           0       -7.813575    3.114006    4.837006
     76          1           0       -7.769589    4.703460   -0.025212
     77          1           0       -5.609552    8.011112   -1.761063
     78          1           0       -5.368623    6.674760   -3.040066
     79          1           0       -4.319513    6.940548   -1.634913
     80         12           0        6.692856   -0.850588   -0.125936
     81          6           0        6.553019    2.647866    0.661681
     82          6           0        5.733383   -0.023306   -3.292895
     83          6           0        6.369485   -3.948516   -0.730668
     84          6           0        6.517176   -1.486102    3.296193
     85          7           0        6.233450    1.095165   -1.072113
     86          6           0        6.274182    2.363103   -0.691314
     87          6           0        6.079769    3.386783   -1.841903
     88          6           0        5.278103    2.446411   -2.867516
     89          6           0        5.802328    1.085937   -2.412593
     90          6           0        3.773219    2.472864   -2.657805
     91          6           0        7.443588    3.868475   -2.450180
     92          6           0        7.344052    5.092982   -3.362544
     93          1           0        8.438501    6.059699   -3.351915
     94          7           0        6.614297   -1.820053   -1.855829
     95          6           0        6.222734   -1.325339   -3.048819
     96          6           0        6.325869   -2.442084   -4.000883
     97          6           0        6.652610   -3.678570   -3.239933
     98          6           0        6.535067   -3.190312   -1.880558
     99          6           0        6.199124   -2.259980   -5.485530
    100          6           0        6.999326   -5.073262   -3.665151
    101          8           0        7.012363   -6.047502   -2.832376
    102          6           0        7.231848   -5.281940   -5.101776
    103          7           0        6.262208   -2.485839    1.083553
    104          6           0        6.232265   -3.731192    0.577489
    105          6           0        6.177004   -4.765397    1.676472
    106          6           0        6.421108   -3.960412    3.036614
    107          6           0        6.489438   -2.524451    2.472043
    108          6           0        4.873253   -5.556468    1.780556
    109          6           0        7.579112   -4.452413    3.947462
    110          6           0        8.908070   -4.210502    3.268673
    111          7           0        6.744701    0.333411    1.680582
    112          6           0        6.629862   -0.131787    3.008919
    113          6           0        6.605932    1.056783    3.885932
    114          6           0        6.685966    2.140380    2.998301
    115          6           0        6.734558    1.661567    1.661185
    116          6           0        6.471779    1.042478    5.302940
    117          6           0        6.729681    3.580717    2.887799
    118          8           0        6.806555    4.511468    3.688753
    119          6           0        6.518033    3.977247    1.363210
    120          6           0        7.567478    4.990623    0.996835
    121          8           0        8.771047    4.677766    0.984096
    122          8           0        6.965915    6.093120    0.514122
    123          6           0        7.966138    7.123224    0.126493
    124          1           0        5.218433    0.101809   -4.245808
    125          1           0        6.363761   -5.031185   -0.876526
    126          1           0        6.562881   -1.602941    4.381054
    127          1           0        5.480268    4.251588   -1.584040
    128          1           0        5.570859    2.643519   -3.895528
    129          1           0        3.499287    3.030278   -1.774404
    130          1           0        3.471465    1.438164   -2.560990
    131          1           0        3.274136    2.849646   -3.555178
    132          1           0        7.795924    3.122725   -3.174372
    133          1           0        8.162429    4.052471   -1.675560
    134          1           0        6.378816    5.604130   -3.262569
    135          1           0        7.361572    4.754148   -4.401250
    136          1           0        5.795813   -1.271171   -5.736541
    137          1           0        5.431509   -2.961695   -5.829381
    138          1           0        7.130736   -2.467284   -6.016378
    139          1           0        6.343979   -4.989808   -5.657482
    140          1           0        7.554122   -6.320591   -5.197809
    141          1           0        8.039279   -4.615883   -5.425866
    142          1           0        6.964197   -5.499589    1.556525
    143          1           0        5.541173   -3.997459    3.695548
    144          1           0        5.019633   -6.650684    1.707482
    145          1           0        4.201188   -5.210202    1.006629
    146          1           0        4.295322   -5.377229    2.685587
    147          1           0        7.503677   -5.530895    4.106645
    148          1           0        7.589051   -3.982477    4.925239
    149          1           0        9.009615   -5.077402    2.608943
    150          1           0        9.711768   -4.175834    4.001415
    151          1           0        8.869457   -3.316800    2.635073
    152          1           0        7.183527    1.759322    5.690316
    153          1           0        6.646699    0.048277    5.708843
    154          1           0        5.427066    1.348763    5.403051
    155          1           0        5.508922    4.379627    1.266416
    156          1           0        7.709393    8.038094    0.669430
    157          1           0        7.936058    7.167955   -0.978429
    158          1           0        8.991374    6.970316    0.442660
 ---------------------------------------------------------------------

 SCF Done:  E(RCAM-B3LYP) =  -4069.81166540     A.U. after   19 cycles

 Excitation energies and oscillator strengths:

 Excited State   1:      Singlet-A      1.6660 eV  744.22 nm  f=0.0223  <S**2>=0.000
     309 -> 315       -0.10908
     310 -> 316        0.13225
     311 -> 313       -0.43511
     312 -> 314        0.53113
 This state for optimization and/or second-order correction.
 Total Energy, E(TD-HF/TD-DFT) =  -4069.75044238
 Copying the excited state density for this state as the 1-particle RhoCI density.

 Excited State   2:      Singlet-A      1.6886 eV  734.24 nm  f=0.7210  <S**2>=0.000
     309 -> 315        0.13769
     310 -> 316        0.11189
     311 -> 313        0.52996
     312 -> 314        0.43423

 Excited State   3:      Singlet-A      2.1844 eV  567.60 nm  f=0.0457  <S**2>=0.000
     309 -> 313       -0.18921
     310 -> 314        0.61470
     312 -> 316       -0.25966

 Excited State   4:      Singlet-A      2.1936 eV  565.21 nm  f=0.1437  <S**2>=0.000
     309 -> 313        0.61216
     310 -> 314        0.18747
     311 -> 315       -0.26694

 Excited State   5:      Singlet-A      2.6485 eV  468.13 nm  f=0.0000  <S**2>=0.000
     312 -> 313        0.70710

 The electronic state is 1-A.
 Alpha  occ. eigenvalues --  -46.87854 -46.87547 -19.26362 -19.26210 -19.19096
 Alpha  occ. eigenvalues --  -19.19029 -19.18862 -19.18633 -19.18216 -19.17918
 Alpha  occ. eigenvalues --  -14.42511 -14.42380 -14.41504 -14.41247 -14.39459
 Alpha  occ. eigenvalues --  -14.39242 -14.38642 -14.38483 -10.39154 -10.38956
 Alpha  occ. eigenvalues --  -10.35495 -10.35313 -10.34438 -10.34093 -10.31767
 Alpha  occ. eigenvalues --  -10.31624 -10.31466 -10.31183 -10.30975 -10.30907
 Alpha  occ. eigenvalues --  -10.30625 -10.30559 -10.30286 -10.30260 -10.30244
 Alpha  occ. eigenvalues --  -10.30040 -10.29970 -10.29781 -10.29683 -10.29332
 Alpha  occ. eigenvalues --  -10.29308 -10.29294 -10.28833 -10.28667 -10.28584
 Alpha  occ. eigenvalues --  -10.28549 -10.28422 -10.28289 -10.28192 -10.27998
 Alpha  occ. eigenvalues --  -10.27888 -10.27844 -10.27787 -10.27638 -10.27556
 Alpha  occ. eigenvalues --  -10.27546 -10.27545 -10.27493 -10.27463 -10.27423
 Alpha  occ. eigenvalues --  -10.27401 -10.27365 -10.27364 -10.27277 -10.27218
 Alpha  occ. eigenvalues --  -10.26904 -10.26817 -10.26579 -10.26456 -10.26363
 Alpha  occ. eigenvalues --  -10.26301 -10.26226 -10.26071 -10.26056 -10.25870
 Alpha  occ. eigenvalues --  -10.25836 -10.25826 -10.25731 -10.25473 -10.25295
 Alpha  occ. eigenvalues --  -10.24883 -10.24841 -10.24756 -10.24734 -10.24654
 Alpha  occ. eigenvalues --  -10.24579  -3.16597  -3.16296  -1.91479  -1.91179
 Alpha  occ. eigenvalues --   -1.91065  -1.90907  -1.90767  -1.90604  -1.16710
 Alpha  occ. eigenvalues --   -1.16505  -1.08675  -1.08522  -1.07262  -1.06887
 Alpha  occ. eigenvalues --   -1.06813  -1.06718  -1.04642  -1.04377  -1.03816
 Alpha  occ. eigenvalues --   -1.03550  -1.03288  -1.02928  -1.02466  -1.01998
 Alpha  occ. eigenvalues --   -0.92030  -0.91863  -0.89570  -0.89390  -0.89266
 Alpha  occ. eigenvalues --   -0.89018  -0.88336  -0.88118  -0.87916  -0.87736
 Alpha  occ. eigenvalues --   -0.87677  -0.87571  -0.87328  -0.87033  -0.85057
 Alpha  occ. eigenvalues --   -0.84879  -0.83985  -0.83775  -0.83018  -0.82852
 Alpha  occ. eigenvalues --   -0.82717  -0.82538  -0.81652  -0.81473  -0.80658
 Alpha  occ. eigenvalues --   -0.80328  -0.78851  -0.78536  -0.77279  -0.77032
 Alpha  occ. eigenvalues --   -0.77005  -0.76778  -0.75990  -0.75710  -0.74949
 Alpha  occ. eigenvalues --   -0.74694  -0.72827  -0.72586  -0.71730  -0.71460
 Alpha  occ. eigenvalues --   -0.69955  -0.69662  -0.68943  -0.68710  -0.67698
 Alpha  occ. eigenvalues --   -0.67492  -0.67300  -0.67096  -0.65360  -0.65148
 Alpha  occ. eigenvalues --   -0.64913  -0.64684  -0.64656  -0.64535  -0.64321
 Alpha  occ. eigenvalues --   -0.64099  -0.62364  -0.62155  -0.60495  -0.60244
 Alpha  occ. eigenvalues --   -0.59873  -0.59670  -0.59044  -0.58878  -0.58560
 Alpha  occ. eigenvalues --   -0.58310  -0.57645  -0.57422  -0.57362  -0.57130
 Alpha  occ. eigenvalues --   -0.56364  -0.56095  -0.56053  -0.55764  -0.55576
 Alpha  occ. eigenvalues --   -0.55393  -0.55347  -0.55136  -0.54583  -0.54374
 Alpha  occ. eigenvalues --   -0.53973  -0.53784  -0.53353  -0.53288  -0.53124
 Alpha  occ. eigenvalues --   -0.53029  -0.52979  -0.52819  -0.52787  -0.52576
 Alpha  occ. eigenvalues --   -0.52486  -0.52310  -0.51954  -0.51765  -0.51690
 Alpha  occ. eigenvalues --   -0.51546  -0.51253  -0.51084  -0.50628  -0.50398
 Alpha  occ. eigenvalues --   -0.50083  -0.49976  -0.49870  -0.49768  -0.49579
 Alpha  occ. eigenvalues --   -0.49381  -0.49272  -0.49163  -0.49084  -0.48972
 Alpha  occ. eigenvalues --   -0.48654  -0.48510  -0.48499  -0.48435  -0.48272
 Alpha  occ. eigenvalues --   -0.48241  -0.47756  -0.47486  -0.47353  -0.47018
 Alpha  occ. eigenvalues --   -0.46855  -0.46632  -0.46598  -0.46435  -0.46414
 Alpha  occ. eigenvalues --   -0.46215  -0.46165  -0.45971  -0.45878  -0.45697
 Alpha  occ. eigenvalues --   -0.45251  -0.45102  -0.44634  -0.44569  -0.44395
 Alpha  occ. eigenvalues --   -0.44361  -0.44199  -0.44157  -0.44076  -0.44003
 Alpha  occ. eigenvalues --   -0.43979  -0.43834  -0.43556  -0.43450  -0.43432
 Alpha  occ. eigenvalues --   -0.43267  -0.43083  -0.42809  -0.42776  -0.42765
 Alpha  occ. eigenvalues --   -0.42710  -0.42456  -0.42068  -0.41858  -0.41761
 Alpha  occ. eigenvalues --   -0.41609  -0.41546  -0.41344  -0.41201  -0.40940
 Alpha  occ. eigenvalues --   -0.40882  -0.40866  -0.40630  -0.40625  -0.40589
 Alpha  occ. eigenvalues --   -0.40385  -0.40329  -0.40116  -0.39490  -0.39333
 Alpha  occ. eigenvalues --   -0.38525  -0.38245  -0.37838  -0.37541  -0.37374
 Alpha  occ. eigenvalues --   -0.37337  -0.37158  -0.37082  -0.36781  -0.36645
 Alpha  occ. eigenvalues --   -0.36255  -0.36103  -0.34342  -0.34138  -0.33843
 Alpha  occ. eigenvalues --   -0.33734  -0.33243  -0.33062  -0.31392  -0.31191
 Alpha  occ. eigenvalues --   -0.31092  -0.30858  -0.30077  -0.29820  -0.29502
 Alpha  occ. eigenvalues --   -0.29372  -0.29224  -0.29095  -0.24137  -0.23920
 Alpha  occ. eigenvalues --   -0.21183  -0.21004
 Alpha virt. eigenvalues --   -0.08828  -0.08681  -0.01805  -0.01574  -0.00113
 Alpha virt. eigenvalues --    0.00073   0.02151   0.02328   0.03052   0.03327
 Alpha virt. eigenvalues --    0.04646   0.04849   0.05026   0.05298   0.06077

 Mulliken charges:
               1
     1  Mg   0.838509
     2  C   -0.003130
     3  C   -0.094451
     4  C   -0.045764
     5  C   -0.063767
     6  N   -0.256747
     7  C   -0.052601
     8  C   -0.013957
     9  C   -0.086945
    10  C    0.046176
    11  C    0.104795
    12  C    0.053596
    13  C   -0.071451
    14  H    0.035132
    15  N   -0.433149
    16  C    0.168334
    17  C   -0.177308
    18  C   -0.003954
    19  C    0.148643
    20  C    0.110216
    21  C    0.012344
    22  O   -0.249442
    23  C    0.062488
    24  N   -0.341100
    25  C    0.041215
    26  C   -0.028216
    27  C   -0.023975
    28  C    0.074771
    29  C    0.076123
    30  C    0.035095
    31  C   -0.004512
    32  N   -0.310521
    33  C    0.080420
    34  C   -0.169435
    35  C    0.008502
    36  C    0.083008
    37  C    0.127242
    38  C    0.046265
    39  O   -0.188047
    40  C   -0.005448
    41  C    0.213021
    42  O   -0.257389
    43  O   -0.304688
    44  C    0.157711
    45  H   -0.017676
    46  H   -0.016708
    47  H   -0.041230
    48  H    0.001044
    49  H   -0.004347
    50  H    0.025588
    51  H    0.016615
    52  H    0.016632
    53  H    0.010755
    54  H    0.043839
    55  H    0.018261
    56  H    0.017700
    57  H    0.005667
    58  H    0.026958
    59  H    0.039211
    60  H    0.037317
    61  H    0.035936
    62  H    0.031293
    63  H    0.016586
    64  H    0.009617
    65  H    0.023310
    66  H    0.012568
    67  H    0.004868
    68  H    0.006422
    69  H    0.004942
    70  H    0.008704
    71  H    0.018124
    72  H    0.028951
    73  H    0.048019
    74  H    0.009290
    75  H    0.046116
    76  H    0.035254
    77  H    0.043263
    78  H    0.046045
    79  H    0.053460
    80  Mg   0.837975
    81  C   -0.016669
    82  C   -0.087803
    83  C   -0.045662
    84  C   -0.064858
    85  N   -0.254581
    86  C   -0.049316
    87  C   -0.015190
    88  C   -0.090645
    89  C    0.045941
    90  C    0.114376
    91  C    0.062564
    92  C   -0.077714
    93  H    0.034499
    94  N   -0.423437
    95  C    0.162865
    96  C   -0.174942
    97  C   -0.008060
    98  C    0.152097
    99  C    0.099566
   100  C    0.015325
   101  O   -0.253389
   102  C    0.061305
   103  N   -0.350012
   104  C    0.037580
   105  C   -0.019843
   106  C   -0.034795
   107  C    0.089046
   108  C    0.073675
   109  C    0.034764
   110  C   -0.007612
   111  N   -0.324219
   112  C    0.078707
   113  C   -0.162995
   114  C    0.002661
   115  C    0.096198
   116  C    0.131371
   117  C    0.042757
   118  O   -0.187410
   119  C    0.000747
   120  C    0.211152
   121  O   -0.251402
   122  O   -0.305201
   123  C    0.152143
   124  H   -0.020083
   125  H   -0.015819
   126  H   -0.040598
   127  H    0.000160
   128  H   -0.004937
   129  H    0.024420
   130  H    0.014408
   131  H    0.015917
   132  H    0.013588
   133  H    0.037572
   134  H    0.021142
   135  H    0.019182
   136  H    0.008484
   137  H    0.025434
   138  H    0.039425
   139  H    0.037836
   140  H    0.036070
   141  H    0.033795
   142  H    0.014145
   143  H    0.012422
   144  H    0.024929
   145  H    0.011882
   146  H    0.005707
   147  H    0.006078
   148  H    0.003542
   149  H    0.010815
   150  H    0.017729
   151  H    0.030198
   152  H    0.045912
   153  H    0.008188
   154  H    0.047666
   155  H    0.036554
   156  H    0.044112
   157  H    0.049296
   158  H    0.053268
 Sum of Mulliken charges =  -0.00000

 Dipole moment (field-independent basis, Debye):
    X=             -4.3339    Y=             -2.2425    Z=             -7.3415  Tot=              8.8152
 Quadrupole moment (field-independent basis, Debye-Ang):
   XX=           -517.7918   YY=           -549.0518   ZZ=           -450.2425
   XY=              2.1967   XZ=             -0.6780   YZ=            -46.2559

 Normal termination of Gaussian 16 at Sat Sep 11 07:24:41 2021.
