 Gaussian 16, Revision A.03,
 Gaussian 16:  ES64L-G16RevA.03 25-Dec-2016

 -----------------------------------
 #p cam-b3lyp/Def2SVP td=(nstates=5)
 -----------------------------------

 --------------------------------
 TDDFT excited states in gaussian
 --------------------------------
 Symbolic Z-matrix:
 Charge =  0 Multiplicity = 1

                         Standard orientation:
 ---------------------------------------------------------------------
 Center     Atomic      Atomic             Coordinates (Angstroms)
 Number     Number       Type             X           Y           Z
 ---------------------------------------------------------------------
      1         12           0       -4.330549    0.612783    0.831805
      2          6           0       -5.077846   -1.937649   -1.565914
      3          6           0       -4.742043   -1.753432    3.255597
      4          6           0       -4.123078    2.934898    2.981539
      5          6           0       -5.090819    2.951102   -1.637996
      6          7           0       -4.842341   -1.538674    0.732055
      7          6           0       -5.045102   -2.409408   -0.251754
      8          6           0       -5.144565   -3.884571    0.239546
      9          6           0       -5.591653   -3.618363    1.746611
     10          6           0       -4.993515   -2.235615    1.936774
     11          6           0       -7.103597   -3.528525    1.926766
     12          6           0       -3.767809   -4.627444    0.173118
     13          6           0       -3.839041   -6.149976    0.322037
     14          1           0       -2.911257   -6.972286   -0.439784
     15          7           0       -3.941938    0.535954    2.767245
     16          6           0       -4.157472   -0.514225    3.595468
     17          6           0       -3.705292   -0.077278    4.933860
     18          6           0       -3.386231    1.375308    4.854570
     19          6           0       -3.835039    1.683345    3.520755
     20          6           0       -3.566792   -1.007385    6.099823
     21          6           0       -2.783649    2.335988    5.830337
     22          8           0       -2.807792    3.600481    5.643129
     23          6           0       -2.235564    1.756199    7.069890
     24          7           0       -4.781092    2.650121    0.769365
     25          6           0       -4.542859    3.442060    1.820584
     26          6           0       -4.675165    4.890544    1.454073
     27          6           0       -4.817052    4.933066   -0.135836
     28          6           0       -4.823633    3.409451   -0.413008
     29          6           0       -5.854874    5.637215    2.091866
     30          6           0       -3.807746    5.818946   -0.908453
     31          6           0       -2.417682    5.234910   -0.791309
     32          7           0       -4.800197    0.557352   -1.286544
     33          6           0       -5.104743    1.649767   -2.111502
     34          6           0       -5.457760    1.105882   -3.435751
     35          6           0       -5.349406   -0.275034   -3.283518
     36          6           0       -4.979278   -0.576008   -1.941612
     37          6           0       -5.876448    1.865141   -4.563874
     38          6           0       -5.484170   -1.567447   -3.935717
     39          8           0       -5.683622   -1.937903   -5.093506
     40          6           0       -5.432502   -2.700541   -2.818016
     41          6           0       -4.475622   -3.761186   -3.289950
     42          8           0       -3.255844   -3.520386   -3.397293
     43          8           0       -5.102429   -4.947428   -3.311967
     44          6           0       -4.200478   -6.048600   -3.743312
     45          1           0       -5.074917   -2.349148    4.107804
     46          1           0       -3.956127    3.773173    3.661143
     47          1           0       -5.256949    3.624402   -2.480919
     48          1           0       -5.897838   -4.484124   -0.271863
     49          1           0       -5.135400   -4.326905    2.437642
     50          1           0       -7.620175   -3.533712    0.967057
     51          1           0       -7.279142   -2.587539    2.448516
     52          1           0       -7.461397   -4.312662    2.594512
     53          1           0       -3.183520   -4.381443    1.059770
     54          1           0       -3.239785   -4.379639   -0.748353
     55          1           0       -4.859588   -6.514825    0.202550
     56          1           0       -3.578635   -6.405226    1.349284
     57          1           0       -4.031163   -1.972221    5.899832
     58          1           0       -4.155391   -0.586332    6.914669
     59          1           0       -2.529211   -1.118570    6.415093
     60          1           0       -3.026370    1.223302    7.598279
     61          1           0       -1.767144    2.580786    7.606069
     62          1           0       -1.484604    1.010009    6.808724
     63          1           0       -3.788886    5.451008    1.748717
     64          1           0       -5.792441    5.305678   -0.449607
     65          1           0       -5.558491    6.516120    2.664917
     66          1           0       -6.403602    4.931171    2.714515
     67          1           0       -6.627257    5.954532    1.391758
     68          1           0       -3.772990    6.818748   -0.477021
     69          1           0       -4.048064    5.922533   -1.966644
     70          1           0       -2.070254    5.623372    0.165364
     71          1           0       -1.786924    5.587374   -1.608085
     72          1           0       -2.448014    4.148186   -0.710084
     73          1           0       -5.349701    1.450383   -5.423224
     74          1           0       -5.651511    2.923560   -4.434422
     75          1           0       -6.947226    1.662032   -4.557845
     76          1           0       -6.447319   -3.082640   -2.711861
     77          1           0       -4.673683   -6.535738   -4.595959
     78          1           0       -4.005980   -6.654537   -2.858204
     79          1           0       -3.247767   -5.747988   -4.180706
     80         12           0        4.478142    0.503842   -1.026554
     81          6           0        4.749754   -2.118193    1.408656
     82          6           0        4.160596    2.684968    1.576605
     83          6           0        3.786686    2.768787   -3.138274
     84          6           0        3.677061   -1.946547   -3.371675
     85          7           0        4.472376    0.201839    1.164566
     86          6           0        4.645192   -0.830935    1.975647
     87          6           0        4.790022   -0.454401    3.474575
     88          6           0        4.024655    0.957014    3.443008
     89          6           0        4.259028    1.329495    1.980470
     90          6           0        2.527135    0.834786    3.670677
     91          6           0        6.289055   -0.285414    3.906284
     92          6           0        6.519844   -0.222774    5.417757
     93          1           0        7.733121   -0.826126    5.962188
     94          7           0        4.523902    2.480152   -0.851468
     95          6           0        4.402647    3.199499    0.283936
     96          6           0        4.482212    4.610813   -0.123519
     97          6           0        4.494954    4.669751   -1.610491
     98          6           0        4.242517    3.279327   -1.931586
     99          6           0        4.617443    5.735678    0.861263
    100          6           0        4.688013    5.793988   -2.582611
    101          8           0        4.423170    5.659024   -3.829399
    102          6           0        5.107140    7.084812   -2.017287
    103          7           0        3.621252    0.452034   -2.920074
    104          6           0        3.481911    1.574704   -3.646787
    105          6           0        3.099829    1.257456   -5.072891
    106          6           0        3.248314   -0.328546   -5.214780
    107          6           0        3.620850   -0.679216   -3.757517
    108          6           0        1.691040    1.676055   -5.492982
    109          6           0        4.162032   -0.850435   -6.357326
    110          6           0        5.601642   -0.486208   -6.074047
    111          7           0        4.426932   -1.655802   -1.063914
    112          6           0        4.037290   -2.481271   -2.141351
    113          6           0        4.057632   -3.874882   -1.651601
    114          6           0        4.438460   -3.760671   -0.306086
    115          6           0        4.621570   -2.390922    0.025201
    116          6           0        3.703747   -5.027665   -2.407894
    117          6           0        4.716893   -4.486615    0.912191
    118          8           0        4.808350   -5.676108    1.213016
    119          6           0        4.808005   -3.446518    2.110630
    120          6           0        6.043183   -3.763901    2.908211
    121          8           0        7.172447   -3.628701    2.405142
    122          8           0        5.698506   -3.964160    4.193307
    123          6           0        6.891469   -4.271369    5.026533
    124          1           0        3.825418    3.421144    2.307753
    125          1           0        3.639557    3.501760   -3.934879
    126          1           0        3.534922   -2.775656   -4.068132
    127          1           0        4.295904   -1.130008    4.162467
    128          1           0        4.500482    1.679175    4.101359
    129          1           0        2.206696   -0.196068    3.698696
    130          1           0        2.060526    1.353683    2.843588
    131          1           0        2.236972    1.382140    4.572086
    132          1           0        6.632640    0.717524    3.622033
    133          1           0        6.897922   -1.058559    3.479499
    134          1           0        5.639696   -0.552376    5.983130
    135          1           0        6.647373    0.823414    5.706258
    136          1           0        4.412925    5.400362    1.885538
    137          1           0        3.815310    6.449226    0.643794
    138          1           0        5.578007    6.249567    0.784434
    139          1           0        4.371422    7.415646   -1.288086
    140          1           0        5.279068    7.737597   -2.875301
    141          1           0        6.046803    6.939659   -1.472685
    142          1           0        3.775468    1.737439   -5.770191
    143          1           0        2.281154   -0.811874   -5.416893
    144          1           0        1.679275    2.349029   -6.371071
    145          1           0        1.208174    2.146551   -4.646803
    146          1           0        1.013128    0.854597   -5.718453
    147          1           0        3.899968   -0.367960   -7.302154
    148          1           0        4.090689   -1.921841   -6.512196
    149          1           0        5.672020    0.543119   -6.438222
    150          1           0        6.277205   -1.144060   -6.617081
    151          1           0        5.798276   -0.468544   -4.995778
    152          1           0        4.446862   -5.783175   -2.190004
    153          1           0        3.660385   -4.806897   -3.472396
    154          1           0        2.714906   -5.237988   -1.991690
    155          1           0        3.899178   -3.550647    2.704579
    156          1           0        6.695090   -5.224928    5.526383
    157          1           0        7.041058   -3.385629    5.672161
    158          1           0        7.819704   -4.489725    4.511605
 ---------------------------------------------------------------------

 SCF Done:  E(RCAM-B3LYP) =  -4069.81229965     A.U. after   19 cycles

 Excitation energies and oscillator strengths:

 Excited State   1:      Singlet-A      1.6702 eV  742.34 nm  f=0.3338  <S**2>=0.000
     310 -> 316       -0.15625
     311 -> 313       -0.28830
     312 -> 314        0.62234
 This state for optimization and/or second-order correction.
 Total Energy, E(TD-HF/TD-DFT) =  -4069.75092194
 Copying the excited state density for this state as the 1-particle RhoCI density.

 Excited State   2:      Singlet-A      1.6758 eV  739.84 nm  f=0.3366  <S**2>=0.000
     309 -> 315       -0.15752
     311 -> 313        0.62199
     312 -> 314        0.28848

 Excited State   3:      Singlet-A      2.1841 eV  567.67 nm  f=0.1015  <S**2>=0.000
     310 -> 314        0.63719
     312 -> 316        0.26972

 Excited State   4:      Singlet-A      2.1904 eV  566.03 nm  f=0.0962  <S**2>=0.000
     309 -> 313        0.63552
     311 -> 315        0.27389

 Excited State   5:      Singlet-A      2.3482 eV  528.00 nm  f=0.0000  <S**2>=0.000
     312 -> 313        0.70706

 The electronic state is 1-A.
 Alpha  occ. eigenvalues --  -46.87907 -46.87455 -19.26369 -19.26318 -19.19125
 Alpha  occ. eigenvalues --  -19.19099 -19.19019 -19.18554 -19.18290 -19.17925
 Alpha  occ. eigenvalues --  -14.42550 -14.42305 -14.41560 -14.41129 -14.39524
 Alpha  occ. eigenvalues --  -14.39154 -14.38698 -14.38397 -10.39182 -10.39025
 Alpha  occ. eigenvalues --  -10.35656 -10.35235 -10.34507 -10.34105 -10.31756
 Alpha  occ. eigenvalues --  -10.31745 -10.31492 -10.31125 -10.31011 -10.30858
 Alpha  occ. eigenvalues --  -10.30675 -10.30632 -10.30327 -10.30192 -10.30161
 Alpha  occ. eigenvalues --  -10.30035 -10.29885 -10.29757 -10.29653 -10.29379
 Alpha  occ. eigenvalues --  -10.29224 -10.29206 -10.28796 -10.28618 -10.28614
 Alpha  occ. eigenvalues --  -10.28488 -10.28483 -10.28226 -10.28168 -10.28015
 Alpha  occ. eigenvalues --  -10.27916 -10.27826 -10.27814 -10.27720 -10.27613
 Alpha  occ. eigenvalues --  -10.27606 -10.27572 -10.27511 -10.27466 -10.27302
 Alpha  occ. eigenvalues --  -10.27287 -10.27277 -10.27261 -10.27164 -10.27054
 Alpha  occ. eigenvalues --  -10.26946 -10.26709 -10.26667 -10.26611 -10.26287
 Alpha  occ. eigenvalues --  -10.26284 -10.26269 -10.26127 -10.25949 -10.25923
 Alpha  occ. eigenvalues --  -10.25827 -10.25681 -10.25625 -10.25555 -10.24992
 Alpha  occ. eigenvalues --  -10.24954 -10.24911 -10.24761 -10.24690 -10.24477
 Alpha  occ. eigenvalues --  -10.24474  -3.16650  -3.16205  -1.91531  -1.91118
 Alpha  occ. eigenvalues --   -1.91087  -1.90960  -1.90676  -1.90513  -1.16721
 Alpha  occ. eigenvalues --   -1.16604  -1.08746  -1.08543  -1.07427  -1.06885
 Alpha  occ. eigenvalues --   -1.06809  -1.06745  -1.04682  -1.04311  -1.03872
 Alpha  occ. eigenvalues --   -1.03459  -1.03351  -1.02817  -1.02525  -1.01901
 Alpha  occ. eigenvalues --   -0.92080  -0.91817  -0.89627  -0.89251  -0.89241
 Alpha  occ. eigenvalues --   -0.89018  -0.88396  -0.87982  -0.87948  -0.87765
 Alpha  occ. eigenvalues --   -0.87594  -0.87484  -0.87426  -0.86942  -0.85053
 Alpha  occ. eigenvalues --   -0.84854  -0.84042  -0.83615  -0.83143  -0.82744
 Alpha  occ. eigenvalues --   -0.82741  -0.82504  -0.81678  -0.81469  -0.80705
 Alpha  occ. eigenvalues --   -0.80289  -0.78928  -0.78446  -0.77312  -0.77003
 Alpha  occ. eigenvalues --   -0.76978  -0.76727  -0.76004  -0.75699  -0.75003
 Alpha  occ. eigenvalues --   -0.74543  -0.72882  -0.72494  -0.71772  -0.71377
 Alpha  occ. eigenvalues --   -0.70004  -0.69479  -0.68959  -0.68679  -0.67764
 Alpha  occ. eigenvalues --   -0.67420  -0.67292  -0.67072  -0.65357  -0.65136
 Alpha  occ. eigenvalues --   -0.64956  -0.64712  -0.64586  -0.64490  -0.64376
 Alpha  occ. eigenvalues --   -0.63953  -0.62393  -0.62146  -0.60583  -0.60138
 Alpha  occ. eigenvalues --   -0.59881  -0.59649  -0.59094  -0.58792  -0.58614
 Alpha  occ. eigenvalues --   -0.58241  -0.57690  -0.57434  -0.57429  -0.57026
 Alpha  occ. eigenvalues --   -0.56427  -0.56063  -0.56031  -0.55776  -0.55654
 Alpha  occ. eigenvalues --   -0.55443  -0.55312  -0.55035  -0.54622  -0.54285
 Alpha  occ. eigenvalues --   -0.53954  -0.53786  -0.53434  -0.53325  -0.53042
 Alpha  occ. eigenvalues --   -0.53027  -0.52990  -0.52882  -0.52759  -0.52537
 Alpha  occ. eigenvalues --   -0.52522  -0.52138  -0.52026  -0.51704  -0.51677
 Alpha  occ. eigenvalues --   -0.51530  -0.51293  -0.51030  -0.50743  -0.50302
 Alpha  occ. eigenvalues --   -0.50136  -0.50061  -0.49824  -0.49621  -0.49604
 Alpha  occ. eigenvalues --   -0.49337  -0.49332  -0.49169  -0.49061  -0.48961
 Alpha  occ. eigenvalues --   -0.48689  -0.48616  -0.48564  -0.48419  -0.48193
 Alpha  occ. eigenvalues --   -0.48111  -0.47801  -0.47420  -0.47415  -0.46915
 Alpha  occ. eigenvalues --   -0.46893  -0.46621  -0.46517  -0.46470  -0.46395
 Alpha  occ. eigenvalues --   -0.46269  -0.46066  -0.45914  -0.45863  -0.45668
 Alpha  occ. eigenvalues --   -0.45311  -0.44947  -0.44690  -0.44623  -0.44375
 Alpha  occ. eigenvalues --   -0.44308  -0.44258  -0.44159  -0.44136  -0.43981
 Alpha  occ. eigenvalues --   -0.43873  -0.43796  -0.43595  -0.43472  -0.43423
 Alpha  occ. eigenvalues --   -0.43212  -0.43130  -0.42829  -0.42802  -0.42750
 Alpha  occ. eigenvalues --   -0.42711  -0.42312  -0.42097  -0.41813  -0.41765
 Alpha  occ. eigenvalues --   -0.41597  -0.41499  -0.41294  -0.41238  -0.41005
 Alpha  occ. eigenvalues --   -0.40927  -0.40808  -0.40667  -0.40581  -0.40541
 Alpha  occ. eigenvalues --   -0.40264  -0.40237  -0.40126  -0.39536  -0.39144
 Alpha  occ. eigenvalues --   -0.38564  -0.38098  -0.37796  -0.37531  -0.37423
 Alpha  occ. eigenvalues --   -0.37331  -0.37057  -0.37010  -0.36811  -0.36672
 Alpha  occ. eigenvalues --   -0.36289  -0.36002  -0.34394  -0.34057  -0.33880
 Alpha  occ. eigenvalues --   -0.33772  -0.33300  -0.32968  -0.31546  -0.31148
 Alpha  occ. eigenvalues --   -0.31111  -0.30779  -0.30146  -0.29834  -0.29587
 Alpha  occ. eigenvalues --   -0.29443  -0.29142  -0.29023  -0.24190  -0.23829
 Alpha  occ. eigenvalues --   -0.21240  -0.20911
 Alpha virt. eigenvalues --   -0.08897  -0.08596  -0.01870  -0.01471  -0.00205
 Alpha virt. eigenvalues --    0.00136   0.02076   0.02377   0.02840   0.03481
 Alpha virt. eigenvalues --    0.04643   0.04910   0.04997   0.05240   0.06154

 Mulliken charges:
               1
     1  Mg   0.838801
     2  C   -0.002895
     3  C   -0.093577
     4  C   -0.046509
     5  C   -0.063806
     6  N   -0.256866
     7  C   -0.051931
     8  C   -0.014157
     9  C   -0.087061
    10  C    0.046381
    11  C    0.104739
    12  C    0.053265
    13  C   -0.072547
    14  H    0.037761
    15  N   -0.433017
    16  C    0.168123
    17  C   -0.177276
    18  C   -0.004702
    19  C    0.148534
    20  C    0.110088
    21  C    0.010826
    22  O   -0.250616
    23  C    0.062697
    24  N   -0.341212
    25  C    0.041488
    26  C   -0.027978
    27  C   -0.024053
    28  C    0.075101
    29  C    0.076199
    30  C    0.035107
    31  C   -0.004609
    32  N   -0.310496
    33  C    0.080647
    34  C   -0.169811
    35  C    0.008189
    36  C    0.083108
    37  C    0.127382
    38  C    0.045780
    39  O   -0.188421
    40  C   -0.005171
    41  C    0.212986
    42  O   -0.257879
    43  O   -0.304517
    44  C    0.157844
    45  H   -0.017216
    46  H   -0.017523
    47  H   -0.041101
    48  H    0.001091
    49  H   -0.003279
    50  H    0.025472
    51  H    0.016227
    52  H    0.017097
    53  H    0.011910
    54  H    0.043741
    55  H    0.017588
    56  H    0.019042
    57  H    0.006759
    58  H    0.026880
    59  H    0.038775
    60  H    0.038454
    61  H    0.034381
    62  H    0.030095
    63  H    0.015531
    64  H    0.009700
    65  H    0.022789
    66  H    0.012671
    67  H    0.005080
    68  H    0.005988
    69  H    0.005500
    70  H    0.006572
    71  H    0.020766
    72  H    0.029075
    73  H    0.047244
    74  H    0.009604
    75  H    0.046321
    76  H    0.035537
    77  H    0.043101
    78  H    0.047328
    79  H    0.052781
    80  Mg   0.837903
    81  C   -0.017348
    82  C   -0.088267
    83  C   -0.045625
    84  C   -0.060917
    85  N   -0.254559
    86  C   -0.050078
    87  C   -0.015023
    88  C   -0.090419
    89  C    0.045249
    90  C    0.114196
    91  C    0.062684
    92  C   -0.077444
    93  H    0.034339
    94  N   -0.423455
    95  C    0.162731
    96  C   -0.174653
    97  C   -0.008197
    98  C    0.152257
    99  C    0.099439
   100  C    0.015039
   101  O   -0.253490
   102  C    0.061337
   103  N   -0.349965
   104  C    0.038258
   105  C   -0.020475
   106  C   -0.035690
   107  C    0.088982
   108  C    0.072452
   109  C    0.034511
   110  C   -0.007499
   111  N   -0.324219
   112  C    0.078110
   113  C   -0.162016
   114  C    0.001508
   115  C    0.096578
   116  C    0.131818
   117  C    0.041944
   118  O   -0.189457
   119  C    0.001050
   120  C    0.211147
   121  O   -0.250865
   122  O   -0.306188
   123  C    0.152146
   124  H   -0.018826
   125  H   -0.015754
   126  H   -0.038794
   127  H   -0.002430
   128  H   -0.004424
   129  H    0.020359
   130  H    0.016512
   131  H    0.015795
   132  H    0.014228
   133  H    0.037573
   134  H    0.019543
   135  H    0.019764
   136  H    0.009207
   137  H    0.025864
   138  H    0.039195
   139  H    0.037871
   140  H    0.035839
   141  H    0.033842
   142  H    0.013532
   143  H    0.017944
   144  H    0.023650
   145  H    0.011218
   146  H    0.011503
   147  H    0.006547
   148  H    0.004062
   149  H    0.010467
   150  H    0.017213
   151  H    0.029425
   152  H    0.044663
   153  H    0.009260
   154  H    0.048090
   155  H    0.033305
   156  H    0.043059
   157  H    0.049282
   158  H    0.053674
 Sum of Mulliken charges =  -0.00000

 Dipole moment (field-independent basis, Debye):
    X=             -2.9738    Y=              1.8371    Z=              5.8589  Tot=              6.8224
 Quadrupole moment (field-independent basis, Debye-Ang):
   XX=           -520.3628   YY=           -502.4166   ZZ=           -496.6114
   XY=             27.9347   XZ=             -4.9460   YZ=             -4.6910

 Normal termination of Gaussian 16 at Fri Sep  3 22:11:16 2021.
