 Gaussian 16, Revision A.03,
 Gaussian 16:  ES64L-G16RevA.03 25-Dec-2016

 -----------------------------------
 #p cam-b3lyp/Def2SVP td=(nstates=5)
 -----------------------------------

 --------------------------------
 TDDFT excited states in gaussian
 --------------------------------
 Symbolic Z-matrix:
 Charge =  0 Multiplicity = 1

                         Standard orientation:
 ---------------------------------------------------------------------
 Center     Atomic      Atomic             Coordinates (Angstroms)
 Number     Number       Type             X           Y           Z
 ---------------------------------------------------------------------
      1         12           0       -7.873855   -0.694976   -0.295286
      2          6           0       -8.187455    1.939894    2.107073
      3          6           0       -8.669905    1.598191   -2.693360
      4          6           0       -8.048870   -3.086740   -2.370245
      5          6           0       -8.224837   -2.943512    2.344138
      6          7           0       -8.345354    1.465059   -0.183103
      7          6           0       -8.372972    2.369187    0.791042
      8          6           0       -8.542673    3.829165    0.274283
      9          6           0       -9.239189    3.521059   -1.126408
     10          6           0       -8.692031    2.125279   -1.367946
     11          6           0      -10.760508    3.445278   -1.046748
     12          6           0       -7.168854    4.555747    0.083413
     13          6           0       -7.252707    6.073577   -0.102364
     14          1           0       -6.203716    6.907504    0.464672
     15          7           0       -7.816205   -0.684766   -2.269982
     16          6           0       -8.160256    0.341288   -3.084922
     17          6           0       -7.943250   -0.143831   -4.464868
     18          6           0       -7.626316   -1.597204   -4.391691
     19          6           0       -7.846368   -1.856818   -2.991849
     20          6           0       -7.996120    0.746868   -5.668034
     21          6           0       -7.203922   -2.596187   -5.422103
     22          8           0       -7.205691   -3.853670   -5.191221
     23          6           0       -6.868098   -2.063282   -6.754873
     24          7           0       -8.322741   -2.723249   -0.089749
     25          6           0       -8.270920   -3.551234   -1.138910
     26          6           0       -8.350487   -4.985489   -0.707031
     27          6           0       -8.222883   -4.975613    0.884626
     28          6           0       -8.171238   -3.444003    1.107730
     29          6           0       -9.626341   -5.736593   -1.112065
     30          6           0       -7.104553   -5.849588    1.505853
     31          6           0       -5.749728   -5.287757    1.137214
     32          7           0       -7.979581   -0.566135    1.868799
     33          6           0       -8.149033   -1.627717    2.769357
     34          6           0       -8.269874   -1.037466    4.115117
     35          6           0       -8.178334    0.336384    3.900636
     36          6           0       -8.037253    0.589709    2.506285
     37          6           0       -8.498270   -1.754965    5.322372
     38          6           0       -8.191611    1.650518    4.522514
     39          8           0       -8.190424    2.060149    5.684278
     40          6           0       -8.320417    2.746751    3.374687
     41          6           0       -7.289779    3.809281    3.643246
     42          8           0       -6.071191    3.556118    3.552043
     43          8           0       -7.894992    5.003702    3.730532
     44          6           0       -6.925027    6.106161    3.966977
     45          1           0       -9.137071    2.170819   -3.496973
     46          1           0       -8.005070   -3.948294   -3.039756
     47          1           0       -8.251679   -3.587461    3.225081
     48          1           0       -9.194524    4.454445    0.884643
     49          1           0       -8.900529    4.201270   -1.907653
     50          1           0      -11.108014    3.487699   -0.014585
     51          1           0      -11.028487    2.490558   -1.499729
     52          1           0      -11.219760    4.212402   -1.670756
     53          1           0       -6.744111    4.274091   -0.880083
     54          1           0       -6.495052    4.330479    0.910800
     55          1           0       -8.235780    6.455324    0.174666
     56          1           0       -7.167125    6.292636   -1.166737
     57          1           0       -8.412910    1.723549   -5.425289
     58          1           0       -8.716698    0.307851   -6.357773
     59          1           0       -7.025655    0.834430   -6.156769
     60          1           0       -7.732573   -1.537170   -7.160382
     61          1           0       -6.502884   -2.910532   -7.334213
     62          1           0       -6.078293   -1.319032   -6.648810
     63          1           0       -7.530731   -5.566550   -1.127500
     64          1           0       -9.134263   -5.325306    1.370193
     65          1           0       -9.437321   -6.637057   -1.696993
     66          1           0      -10.266778   -5.043592   -1.656933
     67          1           0      -10.272137   -6.021397   -0.281853
     68          1           0       -7.150471   -6.862964    1.108477
     69          1           0       -7.163983   -5.916352    2.592252
     70          1           0       -5.571319   -5.710924    0.149322
     71          1           0       -4.993081   -5.622290    1.847696
     72          1           0       -5.785140   -4.203860    1.025863
     73          1           0       -7.831211   -1.320018    6.066564
     74          1           0       -8.306309   -2.819807    5.192505
     75          1           0       -9.553210   -1.538195    5.489608
     76          1           0       -9.335716    3.138493    3.427872
     77          1           0       -7.244191    6.626281    4.870217
     78          1           0       -6.877835    6.681077    3.041964
     79          1           0       -5.914544    5.807195    4.247838
     80         12           0        7.982374   -0.588543    0.332773
     81          6           0        7.721267    1.944383   -2.196097
     82          6           0        9.252614    1.812707    2.395555
     83          6           0        8.644130   -2.878311    2.427162
     84          6           0        7.786023   -2.957355   -2.215929
     85          7           0        8.386226    1.564202    0.024793
     86          6           0        8.189400    2.430551   -0.957578
     87          6           0        8.436153    3.912543   -0.567243
     88          6           0        9.436982    3.673071    0.665577
     89          6           0        8.979579    2.277275    1.084164
     90          6           0       10.896266    3.592627    0.249209
     91          6           0        7.121987    4.636463   -0.107985
     92          6           0        7.228073    6.159812   -0.008486
     93          1           0        6.061544    6.963424   -0.363296
     94          7           0        8.358320   -0.479879    2.278388
     95          6           0        8.850831    0.579442    2.954078
     96          6           0        8.963320    0.145888    4.355343
     97          6           0        8.652460   -1.307899    4.422952
     98          6           0        8.557822   -1.623135    3.011650
     99          6           0        9.257197    1.095831    5.479922
    100          6           0        8.482733   -2.259928    5.567946
    101          8           0        8.450443   -3.528776    5.389525
    102          6           0        8.449200   -1.667972    6.913293
    103          7           0        8.398892   -2.614510    0.122251
    104          6           0        8.598659   -3.394746    1.198929
    105          6           0        8.606025   -4.856396    0.819567
    106          6           0        8.126495   -4.906908   -0.705254
    107          6           0        8.005251   -3.392416   -0.982707
    108          6           0        9.950067   -5.571828    0.954082
    109          6           0        6.911135   -5.817659   -1.031006
    110          6           0        5.660853   -5.258216   -0.391328
    111          7           0        7.604811   -0.556937   -1.794311
    112          6           0        7.593547   -1.660638   -2.675115
    113          6           0        7.405892   -1.126722   -4.039728
    114          6           0        7.343550    0.263248   -3.859259
    115          6           0        7.502766    0.574971   -2.481949
    116          6           0        7.363841   -1.897078   -5.235931
    117          6           0        7.189895    1.538348   -4.521996
    118          8           0        6.934250    1.894666   -5.671523
    119          6           0        7.554180    2.691261   -3.490266
    120          6           0        6.474911    3.736532   -3.561664
    121          8           0        5.313718    3.471539   -3.203861
    122          8           0        7.034447    4.929869   -3.832301
    123          6           0        6.005039    6.000966   -3.902227
    124          1           0        9.869160    2.432132    3.047534
    125          1           0        8.761222   -3.714307    3.120623
    126          1           0        7.616251   -3.637493   -3.053349
    127          1           0        8.922211    4.508421   -1.330425
    128          1           0        9.258203    4.388373    1.464171
    129          1           0       11.009345    3.591768   -0.824731
    130          1           0       11.271725    2.669009    0.669920
    131          1           0       11.468534    4.394689    0.724115
    132          1           0        6.927866    4.392507    0.944417
    133          1           0        6.299381    4.372277   -0.743712
    134          1           0        8.125747    6.543991   -0.508020
    135          1           0        7.368898    6.430062    1.040871
    136          1           0        9.601809    2.067773    5.105810
    137          1           0       10.119169    0.692407    6.022269
    138          1           0        8.420052    1.199246    6.173574
    139          1           0        9.370670   -1.117963    7.088902
    140          1           0        8.232081   -2.495584    7.591379
    141          1           0        7.633851   -0.937084    6.953696
    142          1           0        7.906045   -5.417078    1.426835
    143          1           0        8.917719   -5.285604   -1.368881
    144          1           0        9.908762   -6.457525    1.615815
    145          1           0       10.680639   -4.860565    1.315911
    146          1           0       10.393572   -5.901656    0.016150
    147          1           0        7.058918   -6.813100   -0.605064
    148          1           0        6.739432   -5.944751   -2.094657
    149          1           0        5.717089   -5.637407    0.633434
    150          1           0        4.772429   -5.626589   -0.900304
    151          1           0        5.700622   -4.163916   -0.340531
    152          1           0        6.550399   -1.503848   -5.831061
    153          1           0        7.226245   -2.955107   -5.022823
    154          1           0        8.357728   -1.685460   -5.639239
    155          1           0        8.529031    3.089289   -3.774562
    156          1           0        6.112575    6.484212   -4.878233
    157          1           0        6.168071    6.630860   -3.007569
    158          1           0        4.965510    5.695956   -3.930633
 ---------------------------------------------------------------------

 SCF Done:  E(RCAM-B3LYP) =  -4069.81182520     A.U. after   19 cycles

 Excitation energies and oscillator strengths:

 Excited State   1:      Singlet-A      1.6704 eV  742.26 nm  f=0.0309  <S**2>=0.000
     309 -> 315        0.13934
     310 -> 316        0.10189
     311 -> 313        0.55486
     312 -> 314        0.40399
 This state for optimization and/or second-order correction.
 Total Energy, E(TD-HF/TD-DFT) =  -4069.75044054
 Copying the excited state density for this state as the 1-particle RhoCI density.

 Excited State   2:      Singlet-A      1.6852 eV  735.74 nm  f=0.7279  <S**2>=0.000
     309 -> 315       -0.10367
     310 -> 316        0.14304
     311 -> 313       -0.40348
     312 -> 314        0.55406

 Excited State   3:      Singlet-A      2.1859 eV  567.21 nm  f=0.0598  <S**2>=0.000
     309 -> 313        0.62851
     310 -> 314       -0.13432
     311 -> 315       -0.26686

 Excited State   4:      Singlet-A      2.1931 eV  565.33 nm  f=0.1336  <S**2>=0.000
     309 -> 313        0.13337
     310 -> 314        0.62658
     312 -> 316       -0.27242

 Excited State   5:      Singlet-A      2.7894 eV  444.48 nm  f=0.0000  <S**2>=0.000
     312 -> 313        0.70710

 The electronic state is 1-A.
 Alpha  occ. eigenvalues --  -46.87657 -46.87601 -19.26329 -19.26181 -19.19131
 Alpha  occ. eigenvalues --  -19.18907 -19.18663 -19.18645 -19.18049 -19.18013
 Alpha  occ. eigenvalues --  -14.42440 -14.42313 -14.41314 -14.41303 -14.39292
 Alpha  occ. eigenvalues --  -14.39262 -14.38544 -14.38451 -10.39060 -10.38966
 Alpha  occ. eigenvalues --  -10.35321 -10.35295 -10.34270 -10.34190 -10.31749
 Alpha  occ. eigenvalues --  -10.31589 -10.31274 -10.31257 -10.30966 -10.30770
 Alpha  occ. eigenvalues --  -10.30436 -10.30372 -10.30342 -10.30307 -10.30081
 Alpha  occ. eigenvalues --  -10.30069 -10.29842 -10.29791 -10.29494 -10.29377
 Alpha  occ. eigenvalues --  -10.29344 -10.29114 -10.28668 -10.28617 -10.28605
 Alpha  occ. eigenvalues --  -10.28409 -10.28349 -10.28228 -10.28091 -10.27987
 Alpha  occ. eigenvalues --  -10.27947 -10.27658 -10.27613 -10.27591 -10.27463
 Alpha  occ. eigenvalues --  -10.27443 -10.27430 -10.27407 -10.27395 -10.27376
 Alpha  occ. eigenvalues --  -10.27326 -10.27323 -10.27323 -10.27270 -10.27039
 Alpha  occ. eigenvalues --  -10.27012 -10.26634 -10.26563 -10.26331 -10.26236
 Alpha  occ. eigenvalues --  -10.26117 -10.26078 -10.26060 -10.25984 -10.25886
 Alpha  occ. eigenvalues --  -10.25879 -10.25813 -10.25730 -10.25352 -10.25322
 Alpha  occ. eigenvalues --  -10.24821 -10.24701 -10.24660 -10.24653 -10.24634
 Alpha  occ. eigenvalues --  -10.24553  -3.16400  -3.16351  -1.91281  -1.91233
 Alpha  occ. eigenvalues --   -1.90868  -1.90822  -1.90710  -1.90659  -1.16621
 Alpha  occ. eigenvalues --   -1.16527  -1.08623  -1.08509  -1.07064  -1.06917
 Alpha  occ. eigenvalues --   -1.06896  -1.06531  -1.04445  -1.04439  -1.03625
 Alpha  occ. eigenvalues --   -1.03606  -1.03097  -1.02982  -1.02276  -1.02055
 Alpha  occ. eigenvalues --   -0.91937  -0.91842  -0.89439  -0.89389  -0.89100
 Alpha  occ. eigenvalues --   -0.89057  -0.88165  -0.88158  -0.87745  -0.87742
 Alpha  occ. eigenvalues --   -0.87629  -0.87538  -0.87125  -0.87055  -0.84947
 Alpha  occ. eigenvalues --   -0.84849  -0.83822  -0.83811  -0.82864  -0.82817
 Alpha  occ. eigenvalues --   -0.82598  -0.82515  -0.81558  -0.81466  -0.80466
 Alpha  occ. eigenvalues --   -0.80394  -0.78656  -0.78577  -0.77091  -0.77087
 Alpha  occ. eigenvalues --   -0.76852  -0.76810  -0.75799  -0.75794  -0.74774
 Alpha  occ. eigenvalues --   -0.74753  -0.72646  -0.72642  -0.71544  -0.71531
 Alpha  occ. eigenvalues --   -0.69779  -0.69699  -0.68774  -0.68740  -0.67548
 Alpha  occ. eigenvalues --   -0.67507  -0.67141  -0.67080  -0.65221  -0.65155
 Alpha  occ. eigenvalues --   -0.64725  -0.64720  -0.64606  -0.64493  -0.64150
 Alpha  occ. eigenvalues --   -0.64140  -0.62241  -0.62181  -0.60299  -0.60278
 Alpha  occ. eigenvalues --   -0.59744  -0.59672  -0.58941  -0.58857  -0.58376
 Alpha  occ. eigenvalues --   -0.58374  -0.57515  -0.57464  -0.57183  -0.57178
 Alpha  occ. eigenvalues --   -0.56177  -0.56153  -0.55862  -0.55848  -0.55399
 Alpha  occ. eigenvalues --   -0.55382  -0.55218  -0.55201  -0.54444  -0.54404
 Alpha  occ. eigenvalues --   -0.53861  -0.53763  -0.53173  -0.53164  -0.53090
 Alpha  occ. eigenvalues --   -0.53085  -0.52854  -0.52788  -0.52609  -0.52602
 Alpha  occ. eigenvalues --   -0.52342  -0.52310  -0.51843  -0.51793  -0.51603
 Alpha  occ. eigenvalues --   -0.51480  -0.51154  -0.51070  -0.50415  -0.50405
 Alpha  occ. eigenvalues --   -0.49922  -0.49900  -0.49811  -0.49776  -0.49429
 Alpha  occ. eigenvalues --   -0.49378  -0.49152  -0.49083  -0.49058  -0.48970
 Alpha  occ. eigenvalues --   -0.48514  -0.48470  -0.48335  -0.48328  -0.48305
 Alpha  occ. eigenvalues --   -0.48277  -0.47561  -0.47541  -0.47163  -0.47064
 Alpha  occ. eigenvalues --   -0.46667  -0.46656  -0.46501  -0.46423  -0.46227
 Alpha  occ. eigenvalues --   -0.46217  -0.46039  -0.46038  -0.45783  -0.45704
 Alpha  occ. eigenvalues --   -0.45157  -0.45075  -0.44469  -0.44455  -0.44423
 Alpha  occ. eigenvalues --   -0.44366  -0.44078  -0.44023  -0.44011  -0.43959
 Alpha  occ. eigenvalues --   -0.43886  -0.43882  -0.43515  -0.43375  -0.43336
 Alpha  occ. eigenvalues --   -0.43254  -0.42899  -0.42894  -0.42856  -0.42584
 Alpha  occ. eigenvalues --   -0.42531  -0.42495  -0.41909  -0.41881  -0.41622
 Alpha  occ. eigenvalues --   -0.41575  -0.41405  -0.41402  -0.41012  -0.40939
 Alpha  occ. eigenvalues --   -0.40737  -0.40674  -0.40663  -0.40637  -0.40444
 Alpha  occ. eigenvalues --   -0.40440  -0.40168  -0.40095  -0.39365  -0.39311
 Alpha  occ. eigenvalues --   -0.38341  -0.38296  -0.37615  -0.37601  -0.37211
 Alpha  occ. eigenvalues --   -0.37190  -0.37145  -0.37129  -0.36738  -0.36598
 Alpha  occ. eigenvalues --   -0.36169  -0.36069  -0.34199  -0.34152  -0.33827
 Alpha  occ. eigenvalues --   -0.33653  -0.33121  -0.33053  -0.31205  -0.31194
 Alpha  occ. eigenvalues --   -0.30918  -0.30901  -0.29918  -0.29910  -0.29308
 Alpha  occ. eigenvalues --   -0.29268  -0.29188  -0.29159  -0.23981  -0.23945
 Alpha  occ. eigenvalues --   -0.21061  -0.20992
 Alpha virt. eigenvalues --   -0.08736  -0.08637  -0.01626  -0.01612   0.00032
 Alpha virt. eigenvalues --    0.00085   0.02255   0.02329   0.03290   0.03309
 Alpha virt. eigenvalues --    0.04783   0.04851   0.05196   0.05212   0.06230

 Mulliken charges:
               1
     1  Mg   0.839349
     2  C   -0.002866
     3  C   -0.093876
     4  C   -0.045841
     5  C   -0.064039
     6  N   -0.256785
     7  C   -0.052470
     8  C   -0.014076
     9  C   -0.087084
    10  C    0.046494
    11  C    0.104856
    12  C    0.053401
    13  C   -0.071721
    14  H    0.035938
    15  N   -0.433172
    16  C    0.168677
    17  C   -0.176881
    18  C   -0.003799
    19  C    0.148888
    20  C    0.110144
    21  C    0.012572
    22  O   -0.249752
    23  C    0.062283
    24  N   -0.341171
    25  C    0.041285
    26  C   -0.028137
    27  C   -0.023912
    28  C    0.074835
    29  C    0.076240
    30  C    0.035161
    31  C   -0.004492
    32  N   -0.310411
    33  C    0.080380
    34  C   -0.169859
    35  C    0.008178
    36  C    0.083012
    37  C    0.127346
    38  C    0.045998
    39  O   -0.188959
    40  C   -0.005340
    41  C    0.212738
    42  O   -0.256889
    43  O   -0.304850
    44  C    0.157830
    45  H   -0.017654
    46  H   -0.016902
    47  H   -0.041732
    48  H    0.000649
    49  H   -0.003901
    50  H    0.025297
    51  H    0.016390
    52  H    0.016511
    53  H    0.011806
    54  H    0.044247
    55  H    0.017518
    56  H    0.018134
    57  H    0.005835
    58  H    0.026648
    59  H    0.040397
    60  H    0.037119
    61  H    0.035717
    62  H    0.032396
    63  H    0.016593
    64  H    0.009207
    65  H    0.023080
    66  H    0.012484
    67  H    0.004549
    68  H    0.006116
    69  H    0.004547
    70  H    0.008801
    71  H    0.018108
    72  H    0.029311
    73  H    0.047330
    74  H    0.009004
    75  H    0.045729
    76  H    0.034904
    77  H    0.042535
    78  H    0.046439
    79  H    0.053564
    80  Mg   0.838258
    81  C   -0.016779
    82  C   -0.087643
    83  C   -0.045416
    84  C   -0.064873
    85  N   -0.254559
    86  C   -0.049827
    87  C   -0.015162
    88  C   -0.090553
    89  C    0.045874
    90  C    0.114407
    91  C    0.062470
    92  C   -0.077843
    93  H    0.034757
    94  N   -0.423489
    95  C    0.163146
    96  C   -0.174482
    97  C   -0.007611
    98  C    0.152258
    99  C    0.099361
   100  C    0.015807
   101  O   -0.253174
   102  C    0.061049
   103  N   -0.350064
   104  C    0.037556
   105  C   -0.019829
   106  C   -0.034777
   107  C    0.088909
   108  C    0.073697
   109  C    0.034736
   110  C   -0.007706
   111  N   -0.324060
   112  C    0.078428
   113  C   -0.163229
   114  C    0.002057
   115  C    0.096263
   116  C    0.131520
   117  C    0.042282
   118  O   -0.188426
   119  C    0.000935
   120  C    0.211100
   121  O   -0.250851
   122  O   -0.305662
   123  C    0.152189
   124  H   -0.019683
   125  H   -0.015544
   126  H   -0.040570
   127  H   -0.000898
   128  H   -0.004217
   129  H    0.022313
   130  H    0.014397
   131  H    0.016198
   132  H    0.014375
   133  H    0.037770
   134  H    0.020509
   135  H    0.019767
   136  H    0.008742
   137  H    0.026065
   138  H    0.040329
   139  H    0.038105
   140  H    0.036523
   141  H    0.034441
   142  H    0.014520
   143  H    0.012236
   144  H    0.025112
   145  H    0.011567
   146  H    0.005541
   147  H    0.006142
   148  H    0.003556
   149  H    0.010994
   150  H    0.018083
   151  H    0.030307
   152  H    0.045754
   153  H    0.008530
   154  H    0.046709
   155  H    0.034826
   156  H    0.043488
   157  H    0.049592
   158  H    0.053376
 Sum of Mulliken charges =  -0.00000

 Dipole moment (field-independent basis, Debye):
    X=              0.7393    Y=              3.1237    Z=             -0.7541  Tot=              3.2973
 Quadrupole moment (field-independent basis, Debye-Ang):
   XX=           -448.6015   YY=           -460.4568   ZZ=           -539.8101
   XY=              7.9021   XZ=             52.6442   YZ=             -2.2134

 Normal termination of Gaussian 16 at Sat Sep 11 22:49:56 2021.
