 Gaussian 16, Revision A.03,
 Gaussian 16:  ES64L-G16RevA.03 25-Dec-2016

 -----------------------------------
 #p cam-b3lyp/Def2SVP td=(nstates=5)
 -----------------------------------

 --------------------------------
 TDDFT excited states in gaussian
 --------------------------------
 Symbolic Z-matrix:
 Charge =  0 Multiplicity = 1

                         Standard orientation:
 ---------------------------------------------------------------------
 Center     Atomic      Atomic             Coordinates (Angstroms)
 Number     Number       Type             X           Y           Z
 ---------------------------------------------------------------------
      1         12           0        6.490159   -0.854687    0.336605
      2          6           0        6.936466    1.830781   -1.987462
      3          6           0        7.683119    1.236972    2.754223
      4          6           0        6.534290   -3.336997    2.309626
      5          6           0        6.424540   -3.014292   -2.397890
      6          7           0        7.186898    1.245451    0.268637
      7          6           0        7.251165    2.181813   -0.672781
      8          6           0        7.612009    3.592175   -0.117762
      9          6           0        8.358364    3.152545    1.220773
     10          6           0        7.678364    1.814218    1.449693
     11          6           0        9.854108    2.918184    1.035498
     12          6           0        6.340811    4.452581    0.191252
     13          6           0        6.601762    5.943566    0.424109
     14          1           0        5.616295    6.907948   -0.040831
     15          7           0        6.559733   -0.921833    2.309801
     16          6           0        7.065055    0.026258    3.135063
     17          6           0        6.884555   -0.490791    4.508657
     18          6           0        6.406608   -1.897615    4.406143
     19          6           0        6.507438   -2.119856    2.986347
     20          6           0        7.110939    0.337528    5.736007
     21          6           0        5.943946   -2.888427    5.427108
     22          8           0        5.793524   -4.128024    5.152614
     23          6           0        5.753885   -2.379506    6.797479
     24          7           0        6.700601   -2.908788    0.029983
     25          6           0        6.625425   -3.770096    1.050513
     26          6           0        6.520060   -5.185109    0.564123
     27          6           0        6.293287   -5.094415   -1.013882
     28          6           0        6.395319   -3.557996   -1.179038
     29          6           0        7.729313   -6.084595    0.855056
     30          6           0        5.048858   -5.816942   -1.588139
     31          6           0        3.789801   -5.129737   -1.108951
     32          7           0        6.471427   -0.646541   -1.823804
     33          6           0        6.466150   -1.681139   -2.770511
     34          6           0        6.564928   -1.050830   -4.099804
     35          6           0        6.637979    0.314643   -3.831487
     36          6           0        6.614448    0.522436   -2.422743
     37          6           0        6.636227   -1.736956   -5.344224
     38          6           0        6.755261    1.644943   -4.406293
     39          8           0        6.724950    2.101084   -5.550194
     40          6           0        7.075922    2.671668   -3.232052
     41          6           0        6.152647    3.848568   -3.392603
     42          8           0        4.921972    3.723347   -3.227906
     43          8           0        6.878035    4.974150   -3.478732
     44          6           0        6.021355    6.182881   -3.609975
     45          1           0        8.260271    1.721969    3.543915
     46          1           0        6.439244   -4.216466    2.949891
     47          1           0        6.324707   -3.619622   -3.300698
     48          1           0        8.288152    4.169506   -0.748590
     49          1           0        8.146504    3.831405    2.046597
     50          1           0       10.137786    2.966833   -0.015730
     51          1           0       10.044372    1.922024    1.435447
     52          1           0       10.433247    3.604826    1.653477
     53          1           0        5.949990    4.177429    1.170849
     54          1           0        5.595147    4.335715   -0.595930
     55          1           0        7.601049    6.229521    0.094618
     56          1           0        6.608541    6.125337    1.498871
     57          1           0        7.615721    1.273500    5.500006
     58          1           0        7.821615   -0.204674    6.359437
     59          1           0        6.188940    0.507485    6.292212
     60          1           0        6.694739   -1.966320    7.161648
     61          1           0        5.335833   -3.206635    7.370140
     62          1           0        5.045049   -1.551362    6.771437
     63          1           0        5.670112   -5.692560    1.018557
     64          1           0        7.128216   -5.518594   -1.572129
     65          1           0        7.480577   -6.983635    1.419469
     66          1           0        8.475043   -5.487590    1.379233
     67          1           0        8.285958   -6.401392   -0.026536
     68          1           0        5.008895   -6.845308   -1.230631
     69          1           0        5.031387   -5.843702   -2.677740
     70          1           0        3.629415   -5.572798   -0.126706
     71          1           0        2.957451   -5.351238   -1.777786
     72          1           0        3.950520   -4.061497   -0.962257
     73          1           0        5.974731   -1.202210   -6.025721
     74          1           0        6.337648   -2.779743   -5.239117
     75          1           0        7.695752   -1.627199   -5.574911
     76          1           0        8.122511    2.954651   -3.340187
     77          1           0        6.337352    6.703647   -4.513956
     78          1           0        6.096256    6.719944   -2.664270
     79          1           0        4.968432    6.005660   -3.831978
     80         12           0       -6.653564    0.665495    0.711507
     81          6           0       -6.811809   -1.865773   -1.827530
     82          6           0       -5.592182    2.818745   -1.711633
     83          6           0       -6.072935    2.791409    2.994226
     84          6           0       -6.611875   -1.899498    3.070481
     85          7           0       -6.288775    0.393710   -1.453055
     86          6           0       -6.442169   -0.596509   -2.319242
     87          6           0       -6.263051   -0.184784   -3.805164
     88          6           0       -5.341914    1.112254   -3.585933
     89          6           0       -5.788302    1.493587   -2.175966
     90          6           0       -3.856108    0.795652   -3.547278
     91          6           0       -7.624622    0.186878   -4.490721
     92          6           0       -7.567205    0.299050   -6.015805
     93          1           0       -8.728543   -0.131158   -6.789564
     94          7           0       -6.413467    2.632544    0.603601
     95          6           0       -5.997041    3.344074   -0.464855
     96          6           0       -5.967981    4.748112   -0.026683
     97          6           0       -6.242841    4.789020    1.435337
     98          6           0       -6.232946    3.373383    1.745125
     99          6           0       -5.777079    5.893602   -0.977911
    100          6           0       -6.463708    5.916272    2.397991
    101          8           0       -6.449117    5.731321    3.666221
    102          6           0       -6.604525    7.258445    1.814684
    103          7           0       -6.168505    0.476168    2.724270
    104          6           0       -6.020916    1.561007    3.504832
    105          6           0       -5.947904    1.177541    4.963604
    106          6           0       -6.321403   -0.376505    5.018535
    107          6           0       -6.464926   -0.655878    3.506339
    108          6           0       -4.597006    1.400343    5.643193
    109          6           0       -7.486534   -0.787434    5.959959
    110          6           0       -8.792133   -0.232054    5.438083
    111          7           0       -6.886802   -1.482191    0.678228
    112          6           0       -6.808151   -2.365842    1.776892
    113          6           0       -6.917410   -3.738039    1.240634
    114          6           0       -7.029822   -3.557027   -0.146124
    115          6           0       -6.972910   -2.170924   -0.454334
    116          6           0       -6.857206   -4.937216    2.005143
    117          6           0       -7.173002   -4.223885   -1.420286
    118          8           0       -7.359777   -5.386788   -1.775983
    119          6           0       -6.911138   -3.165492   -2.576844
    120          6           0       -8.011263   -3.306107   -3.592951
    121          8           0       -9.186360   -3.028989   -3.294674
    122          8           0       -7.467508   -3.533661   -4.802462
    123          6           0       -8.518699   -3.669320   -5.845724
    124          1           0       -5.038420    3.513397   -2.343834
    125          1           0       -5.980309    3.488079    3.830613
    126          1           0       -6.705839   -2.749051    3.750270
    127          1           0       -5.742841   -0.910964   -4.418212
    128          1           0       -5.593900    1.899531   -4.291667
    129          1           0       -3.670509   -0.268127   -3.555472
    130          1           0       -3.484919    1.237432   -2.631800
    131          1           0       -3.339486    1.311320   -4.361841
    132          1           0       -7.882883    1.222743   -4.235737
    133          1           0       -8.394711   -0.504227   -4.207967
    134          1           0       -6.648577   -0.136930   -6.426883
    135          1           0       -7.505283    1.356553   -6.283888
    136          1           0       -5.434614    5.547388   -1.960894
    137          1           0       -4.943150    6.491716   -0.594904
    138          1           0       -6.661836    6.529193   -1.054799
    139          1           0       -5.712460    7.498275    1.240959
    140          1           0       -6.844400    7.917117    2.651625
    141          1           0       -7.440410    7.246110    1.106326
    142          1           0       -6.671839    1.733774    5.546381
    143          1           0       -5.476962   -0.986273    5.371996
    144          1           0       -4.658843    2.054428    6.533376
    145          1           0       -3.912369    1.813606    4.914486
    146          1           0       -4.082098    0.493468    5.955667
    147          1           0       -7.340812   -0.356167    6.953401
    148          1           0       -7.582206   -1.860764    6.085703
    149          1           0       -8.795145    0.792735    5.821339
    150          1           0       -9.633605   -0.801559    5.827491
    151          1           0       -8.785821   -0.174578    4.343409
    152          1           0       -7.638886   -5.584735    1.630715
    153          1           0       -6.979960   -4.737894    3.067681
    154          1           0       -5.844429   -5.271306    1.764483
    155          1           0       -5.930515   -3.381441   -3.002643
    156          1           0       -8.358507   -4.633961   -6.337154
    157          1           0       -8.433970   -2.763317   -6.474787
    158          1           0       -9.545187   -3.769408   -5.512897
 ---------------------------------------------------------------------

 SCF Done:  E(RCAM-B3LYP) =  -4069.81204384     A.U. after   19 cycles

 Excitation energies and oscillator strengths:

 Excited State   1:      Singlet-A      1.6745 eV  740.41 nm  f=0.3609  <S**2>=0.000
     310 -> 316        0.16808
     311 -> 313        0.15980
     312 -> 314        0.66715
     310 <- 316        0.10137
 This state for optimization and/or second-order correction.
 Total Energy, E(TD-HF/TD-DFT) =  -4069.75050620
 Copying the excited state density for this state as the 1-particle RhoCI density.

 Excited State   2:      Singlet-A      1.6794 eV  738.26 nm  f=0.3706  <S**2>=0.000
     309 -> 315        0.17067
     311 -> 313        0.66681
     312 -> 314       -0.15985
     309 <- 315        0.10229

 Excited State   3:      Singlet-A      2.1855 eV  567.29 nm  f=0.1017  <S**2>=0.000
     310 -> 314        0.64249
     312 -> 316       -0.27218

 Excited State   4:      Singlet-A      2.1927 eV  565.43 nm  f=0.0972  <S**2>=0.000
     309 -> 313        0.64062
     311 -> 315       -0.27822

 Excited State   5:      Singlet-A      2.6459 eV  468.60 nm  f=0.0000  <S**2>=0.000
     312 -> 313        0.70710

 The electronic state is 1-A.
 Alpha  occ. eigenvalues --  -46.87860 -46.87547 -19.26415 -19.26243 -19.19152
 Alpha  occ. eigenvalues --  -19.19056 -19.18868 -19.18633 -19.18258 -19.17948
 Alpha  occ. eigenvalues --  -14.42515 -14.42373 -14.41508 -14.41252 -14.39466
 Alpha  occ. eigenvalues --  -14.39241 -14.38655 -14.38489 -10.39206 -10.38984
 Alpha  occ. eigenvalues --  -10.35501 -10.35312 -10.34480 -10.34124 -10.31824
 Alpha  occ. eigenvalues --  -10.31653 -10.31475 -10.31174 -10.30976 -10.30896
 Alpha  occ. eigenvalues --  -10.30639 -10.30572 -10.30295 -10.30257 -10.30245
 Alpha  occ. eigenvalues --  -10.30039 -10.29980 -10.29799 -10.29696 -10.29326
 Alpha  occ. eigenvalues --  -10.29314 -10.29297 -10.28825 -10.28630 -10.28560
 Alpha  occ. eigenvalues --  -10.28506 -10.28433 -10.28290 -10.28185 -10.27953
 Alpha  occ. eigenvalues --  -10.27891 -10.27861 -10.27790 -10.27648 -10.27535
 Alpha  occ. eigenvalues --  -10.27534 -10.27532 -10.27485 -10.27474 -10.27445
 Alpha  occ. eigenvalues --  -10.27368 -10.27363 -10.27345 -10.27310 -10.27251
 Alpha  occ. eigenvalues --  -10.26939 -10.26793 -10.26549 -10.26458 -10.26345
 Alpha  occ. eigenvalues --  -10.26297 -10.26200 -10.26079 -10.26076 -10.25918
 Alpha  occ. eigenvalues --  -10.25830 -10.25763 -10.25758 -10.25463 -10.25355
 Alpha  occ. eigenvalues --  -10.24905 -10.24847 -10.24764 -10.24700 -10.24674
 Alpha  occ. eigenvalues --  -10.24589  -3.16603  -3.16297  -1.91485  -1.91179
 Alpha  occ. eigenvalues --   -1.91071  -1.90914  -1.90768  -1.90605  -1.16763
 Alpha  occ. eigenvalues --   -1.16537  -1.08721  -1.08556  -1.07269  -1.06888
 Alpha  occ. eigenvalues --   -1.06840  -1.06773  -1.04647  -1.04370  -1.03821
 Alpha  occ. eigenvalues --   -1.03551  -1.03298  -1.02933  -1.02474  -1.02002
 Alpha  occ. eigenvalues --   -0.92047  -0.91873  -0.89568  -0.89402  -0.89260
 Alpha  occ. eigenvalues --   -0.88987  -0.88332  -0.88137  -0.87941  -0.87737
 Alpha  occ. eigenvalues --   -0.87688  -0.87562  -0.87332  -0.87018  -0.85053
 Alpha  occ. eigenvalues --   -0.84860  -0.83982  -0.83800  -0.83017  -0.82845
 Alpha  occ. eigenvalues --   -0.82719  -0.82525  -0.81678  -0.81487  -0.80672
 Alpha  occ. eigenvalues --   -0.80333  -0.78859  -0.78528  -0.77279  -0.77024
 Alpha  occ. eigenvalues --   -0.77009  -0.76777  -0.76001  -0.75699  -0.74950
 Alpha  occ. eigenvalues --   -0.74716  -0.72838  -0.72588  -0.71736  -0.71461
 Alpha  occ. eigenvalues --   -0.69942  -0.69681  -0.68943  -0.68695  -0.67709
 Alpha  occ. eigenvalues --   -0.67496  -0.67292  -0.67077  -0.65361  -0.65137
 Alpha  occ. eigenvalues --   -0.64927  -0.64691  -0.64659  -0.64537  -0.64320
 Alpha  occ. eigenvalues --   -0.64113  -0.62394  -0.62173  -0.60498  -0.60242
 Alpha  occ. eigenvalues --   -0.59874  -0.59651  -0.59053  -0.58884  -0.58572
 Alpha  occ. eigenvalues --   -0.58319  -0.57678  -0.57446  -0.57371  -0.57142
 Alpha  occ. eigenvalues --   -0.56380  -0.56093  -0.56081  -0.55774  -0.55586
 Alpha  occ. eigenvalues --   -0.55404  -0.55346  -0.55159  -0.54600  -0.54398
 Alpha  occ. eigenvalues --   -0.53968  -0.53756  -0.53362  -0.53293  -0.53126
 Alpha  occ. eigenvalues --   -0.53026  -0.52997  -0.52817  -0.52786  -0.52552
 Alpha  occ. eigenvalues --   -0.52474  -0.52328  -0.51989  -0.51786  -0.51691
 Alpha  occ. eigenvalues --   -0.51528  -0.51267  -0.51094  -0.50623  -0.50376
 Alpha  occ. eigenvalues --   -0.50074  -0.49977  -0.49861  -0.49773  -0.49584
 Alpha  occ. eigenvalues --   -0.49369  -0.49289  -0.49169  -0.49081  -0.48962
 Alpha  occ. eigenvalues --   -0.48674  -0.48519  -0.48509  -0.48433  -0.48294
 Alpha  occ. eigenvalues --   -0.48240  -0.47759  -0.47478  -0.47359  -0.47013
 Alpha  occ. eigenvalues --   -0.46858  -0.46630  -0.46598  -0.46424  -0.46411
 Alpha  occ. eigenvalues --   -0.46231  -0.46168  -0.45990  -0.45907  -0.45712
 Alpha  occ. eigenvalues --   -0.45249  -0.45125  -0.44659  -0.44565  -0.44407
 Alpha  occ. eigenvalues --   -0.44343  -0.44205  -0.44155  -0.44092  -0.43995
 Alpha  occ. eigenvalues --   -0.43984  -0.43832  -0.43584  -0.43448  -0.43446
 Alpha  occ. eigenvalues --   -0.43265  -0.43094  -0.42825  -0.42806  -0.42793
 Alpha  occ. eigenvalues --   -0.42705  -0.42466  -0.42066  -0.41863  -0.41774
 Alpha  occ. eigenvalues --   -0.41603  -0.41558  -0.41332  -0.41205  -0.40932
 Alpha  occ. eigenvalues --   -0.40880  -0.40861  -0.40620  -0.40619  -0.40576
 Alpha  occ. eigenvalues --   -0.40392  -0.40312  -0.40091  -0.39472  -0.39351
 Alpha  occ. eigenvalues --   -0.38516  -0.38258  -0.37826  -0.37521  -0.37372
 Alpha  occ. eigenvalues --   -0.37338  -0.37165  -0.37068  -0.36816  -0.36670
 Alpha  occ. eigenvalues --   -0.36269  -0.36115  -0.34352  -0.34141  -0.33891
 Alpha  occ. eigenvalues --   -0.33756  -0.33255  -0.33064  -0.31398  -0.31192
 Alpha  occ. eigenvalues --   -0.31101  -0.30860  -0.30120  -0.29852  -0.29513
 Alpha  occ. eigenvalues --   -0.29392  -0.29222  -0.29104  -0.24146  -0.23922
 Alpha  occ. eigenvalues --   -0.21191  -0.21004
 Alpha virt. eigenvalues --   -0.08839  -0.08682  -0.01810  -0.01576  -0.00121
 Alpha virt. eigenvalues --    0.00079   0.02126   0.02309   0.03051   0.03325
 Alpha virt. eigenvalues --    0.04650   0.04862   0.04978   0.05272   0.06093

 Mulliken charges:
               1
     1  Mg   0.838642
     2  C   -0.003210
     3  C   -0.094095
     4  C   -0.045778
     5  C   -0.063853
     6  N   -0.256825
     7  C   -0.052534
     8  C   -0.014022
     9  C   -0.087015
    10  C    0.046346
    11  C    0.104763
    12  C    0.053443
    13  C   -0.071698
    14  H    0.035498
    15  N   -0.433191
    16  C    0.168505
    17  C   -0.177035
    18  C   -0.003882
    19  C    0.148748
    20  C    0.110129
    21  C    0.012327
    22  O   -0.249370
    23  C    0.062445
    24  N   -0.341155
    25  C    0.041353
    26  C   -0.028273
    27  C   -0.024006
    28  C    0.074821
    29  C    0.076106
    30  C    0.035072
    31  C   -0.004597
    32  N   -0.310367
    33  C    0.080223
    34  C   -0.169942
    35  C    0.008146
    36  C    0.082786
    37  C    0.127400
    38  C    0.045740
    39  O   -0.188971
    40  C   -0.005211
    41  C    0.212873
    42  O   -0.257898
    43  O   -0.304517
    44  C    0.157967
    45  H   -0.017449
    46  H   -0.016576
    47  H   -0.041359
    48  H    0.000873
    49  H   -0.003923
    50  H    0.025469
    51  H    0.016579
    52  H    0.016804
    53  H    0.011402
    54  H    0.043593
    55  H    0.017998
    56  H    0.018294
    57  H    0.005981
    58  H    0.027007
    59  H    0.039727
    60  H    0.037474
    61  H    0.035764
    62  H    0.031460
    63  H    0.016825
    64  H    0.009566
    65  H    0.023495
    66  H    0.012491
    67  H    0.004899
    68  H    0.006840
    69  H    0.004763
    70  H    0.009065
    71  H    0.018614
    72  H    0.028451
    73  H    0.047022
    74  H    0.009301
    75  H    0.046122
    76  H    0.035276
    77  H    0.042907
    78  H    0.046613
    79  H    0.052746
    80  Mg   0.837878
    81  C   -0.016819
    82  C   -0.087336
    83  C   -0.045698
    84  C   -0.064978
    85  N   -0.254623
    86  C   -0.049524
    87  C   -0.015195
    88  C   -0.090473
    89  C    0.045640
    90  C    0.114059
    91  C    0.062475
    92  C   -0.077845
    93  H    0.034335
    94  N   -0.423523
    95  C    0.162808
    96  C   -0.174184
    97  C   -0.008119
    98  C    0.152362
    99  C    0.099222
   100  C    0.015413
   101  O   -0.253720
   102  C    0.061261
   103  N   -0.350007
   104  C    0.037613
   105  C   -0.019795
   106  C   -0.034785
   107  C    0.088891
   108  C    0.073804
   109  C    0.034823
   110  C   -0.007604
   111  N   -0.324064
   112  C    0.078401
   113  C   -0.163283
   114  C    0.002214
   115  C    0.096164
   116  C    0.131512
   117  C    0.042234
   118  O   -0.188244
   119  C    0.001018
   120  C    0.211234
   121  O   -0.251187
   122  O   -0.305506
   123  C    0.152116
   124  H   -0.018373
   125  H   -0.016095
   126  H   -0.040730
   127  H   -0.000403
   128  H   -0.004156
   129  H    0.022348
   130  H    0.015308
   131  H    0.018427
   132  H    0.013750
   133  H    0.037307
   134  H    0.021283
   135  H    0.019799
   136  H    0.009491
   137  H    0.026318
   138  H    0.039483
   139  H    0.038302
   140  H    0.035894
   141  H    0.033920
   142  H    0.014103
   143  H    0.012313
   144  H    0.024445
   145  H    0.011695
   146  H    0.005379
   147  H    0.005814
   148  H    0.003594
   149  H    0.010725
   150  H    0.017724
   151  H    0.030345
   152  H    0.045741
   153  H    0.008306
   154  H    0.046965
   155  H    0.035238
   156  H    0.043683
   157  H    0.049731
   158  H    0.053360
 Sum of Mulliken charges =  -0.00000

 Dipole moment (field-independent basis, Debye):
    X=              4.7033    Y=              4.4167    Z=              2.0840  Tot=              6.7803
 Quadrupole moment (field-independent basis, Debye-Ang):
   XX=           -519.1615   YY=           -503.6649   ZZ=           -495.5835
   XY=            -14.0062   XZ=             35.5032   YZ=              1.9704

 Normal termination of Gaussian 16 at Sat Sep  4 11:54:51 2021.
