 Gaussian 16, Revision A.03,
 Gaussian 16:  ES64L-G16RevA.03 25-Dec-2016

 -----------------------------------
 #p cam-b3lyp/Def2SVP td=(nstates=5)
 -----------------------------------

 --------------------------------
 TDDFT excited states in gaussian
 --------------------------------
 Symbolic Z-matrix:
 Charge =  0 Multiplicity = 1

                         Standard orientation:
 ---------------------------------------------------------------------
 Center     Atomic      Atomic             Coordinates (Angstroms)
 Number     Number       Type             X           Y           Z
 ---------------------------------------------------------------------
      1         12           0        3.225401   -1.993782    0.589311
      2          6           0        4.743108    1.142089   -0.232331
      3          6           0        3.886793   -1.287285    3.861388
      4          6           0        2.306325   -4.944683    1.299313
      5          6           0        3.712864   -2.931970   -2.731509
      6          7           0        4.194840   -0.259258    1.565149
      7          6           0        4.678935    0.904424    1.142457
      8          6           0        5.042448    1.879999    2.301545
      9          6           0        5.266201    0.814638    3.466421
     10          6           0        4.368822   -0.297920    2.953733
     11          6           0        6.697185    0.293041    3.548419
     12          6           0        3.871488    2.862541    2.640952
     13          6           0        4.252590    4.051765    3.527440
     14          1           0        3.605553    5.334207    3.294986
     15          7           0        2.667510   -2.782207    2.312678
     16          6           0        3.018195   -2.355591    3.549733
     17          6           0        2.348937   -3.268968    4.500793
     18          6           0        1.735049   -4.374731    3.714331
     19          6           0        2.240532   -4.088520    2.396018
     20          6           0        2.295577   -3.024243    5.977619
     21          6           0        0.844089   -5.515317    4.092995
     22          8           0        0.614955   -6.491708    3.300068
     23          6           0        0.310142   -5.503735    5.466970
     24          7           0        3.231732   -3.781236   -0.488928
     25          6           0        2.723250   -4.903247    0.032150
     26          6           0        2.577898   -5.972250   -1.009984
     27          6           0        2.868349   -5.265274   -2.411974
     28          6           0        3.230238   -3.851778   -1.893001
     29          6           0        3.498509   -7.190281   -0.852229
     30          6           0        1.776278   -5.393000   -3.503526
     31          6           0        0.539595   -4.630350   -3.083912
     32          7           0        3.909026   -1.024157   -1.228250
     33          6           0        4.054112   -1.611048   -2.493629
     34          6           0        4.648582   -0.591264   -3.377210
     35          6           0        4.824486    0.519939   -2.554939
     36          6           0        4.393089    0.205206   -1.234662
     37          6           0        5.006950   -0.777342   -4.741534
     38          6           0        5.299376    1.891992   -2.478734
     39          8           0        5.690490    2.721211   -3.301485
     40          6           0        5.378875    2.310206   -0.944262
     41          6           0        4.725279    3.658181   -0.806112
     42          8           0        3.499653    3.797301   -0.995459
     43          8           0        5.591185    4.516796   -0.246176
     44          6           0        4.995519    5.865978   -0.053714
     45          1           0        4.251389   -1.281892    4.890456
     46          1           0        1.894939   -5.941049    1.473820
     47          1           0        3.815359   -3.125273   -3.800892
     48          1           0        5.954958    2.454837    2.142454
     49          1           0        4.904921    1.180435    4.427354
     50          1           0        7.297717    0.643619    2.709147
     51          1           0        6.612475   -0.793656    3.528263
     52          1           0        7.145236    0.540856    4.511028
     53          1           0        3.160888    2.361410    3.298200
     54          1           0        3.399119    3.229416    1.729033
     55          1           0        5.334422    4.174788    3.585878
     56          1           0        3.949962    3.826272    4.550068
     57          1           0        2.974249   -2.226212    6.276109
     58          1           0        2.693952   -3.915197    6.462600
     59          1           0        1.279540   -2.838993    6.326449
     60          1           0        1.138998   -5.501477    6.175166
     61          1           0       -0.376542   -6.347158    5.529844
     62          1           0       -0.232431   -4.571572    5.627084
     63          1           0        1.566645   -6.376906   -1.016706
     64          1           0        3.767665   -5.656102   -2.888586
     65          1           0        2.963513   -8.138086   -0.787811
     66          1           0        4.119829   -7.031271    0.028662
     67          1           0        4.251824   -7.297938   -1.632193
     68          1           0        1.483850   -6.435180   -3.627191
     69          1           0        2.095122   -5.020253   -4.476999
     70          1           0        0.021339   -5.341438   -2.441575
     71          1           0       -0.065699   -4.378162   -3.955251
     72          1           0        0.794238   -3.764429   -2.472500
     73          1           0        4.671831    0.115402   -5.269428
     74          1           0        4.547924   -1.676254   -5.152456
     75          1           0        6.090058   -0.863353   -4.655889
     76          1           0        6.435888    2.338901   -0.681541
     77          1           0        5.646559    6.579359   -0.559154
     78          1           0        4.846705    5.988825    1.019211
     79          1           0        4.050039    6.052748   -0.564130
     80         12           0       -4.133735    0.740733   -0.634933
     81          6           0       -1.466879    3.140750   -0.717985
     82          6           0       -4.920968    1.945036    2.457728
     83          6           0       -6.198255   -1.650347   -0.338459
     84          6           0       -2.463956   -0.994957   -3.153830
     85          7           0       -3.236234    2.338842    0.603142
     86          6           0       -2.264858    3.224737    0.442018
     87          6           0       -2.192826    4.308993    1.550515
     88          6           0       -2.918812    3.495868    2.729776
     89          6           0       -3.775548    2.554263    1.885934
     90          6           0       -1.961802    2.656243    3.559534
     91          6           0       -2.990810    5.605629    1.171096
     92          6           0       -2.711117    6.817042    2.063287
     93          1           0       -2.710742    8.144455    1.454643
     94          7           0       -5.675684    0.520389    0.594875
     95          6           0       -5.843873    1.101469    1.801246
     96          6           0       -7.128866    0.600754    2.313347
     97          6           0       -7.626614   -0.450031    1.384460
     98          6           0       -6.484436   -0.585029    0.502825
     99          6           0       -7.799849    1.173975    3.527682
    100          6           0       -8.912231   -1.216795    1.310588
    101          8           0       -9.037390   -2.251137    0.564069
    102          6           0       -9.990475   -0.776796    2.207965
    103          7           0       -4.205067   -1.169906   -1.451440
    104          6           0       -5.240360   -1.990517   -1.201036
    105          6           0       -5.212278   -3.196804   -2.109046
    106          6           0       -4.073199   -2.894386   -3.190075
    107          6           0       -3.556302   -1.545901   -2.642554
    108          6           0       -4.925343   -4.535101   -1.428583
    109          6           0       -4.483074   -2.976454   -4.686051
    110          6           0       -5.449081   -1.862099   -5.018379
    111          7           0       -2.402108    1.089247   -1.879144
    112          6           0       -1.862123    0.220053   -2.852285
    113          6           0       -0.619447    0.843690   -3.351527
    114          6           0       -0.509633    2.030850   -2.611864
    115          6           0       -1.595678    2.129579   -1.700684
    116          6           0        0.257594    0.287445   -4.324935
    117          6           0        0.283772    3.217744   -2.387206
    118          8           0        1.270242    3.718066   -2.925997
    119          6           0       -0.232715    3.927522   -1.062120
    120          6           0       -0.395486    5.394102   -1.353982
    121          8           0       -1.250329    5.785472   -2.168029
    122          8           0        0.329748    6.102559   -0.469399
    123          6           0        0.191861    7.563497   -0.711202
    124          1           0       -5.110169    2.091749    3.521481
    125          1           0       -6.940716   -2.451590   -0.353919
    126          1           0       -1.938159   -1.425751   -4.008606
    127          1           0       -1.189319    4.584503    1.851934
    128          1           0       -3.547484    4.148117    3.330362
    129          1           0       -0.965027    2.652653    3.144133
    130          1           0       -2.374352    1.655821    3.561781
    131          1           0       -1.973936    2.989589    4.601204
    132          1           0       -4.054187    5.449695    1.393929
    133          1           0       -2.826050    5.867546    0.144024
    134          1           0       -1.814955    6.676730    2.679852
    135          1           0       -3.523505    6.909040    2.788250
    136          1           0       -7.119338    1.819955    4.096030
    137          1           0       -8.007510    0.337106    4.203255
    138          1           0       -8.738998    1.678688    3.291208
    139          1           0       -9.646434   -0.828239    3.238230
    140          1           0      -10.856297   -1.388088    1.946129
    141          1           0      -10.209386    0.276805    2.001505
    142          1           0       -6.159174   -3.317791   -2.620751
    143          1           0       -3.238173   -3.606064   -3.112072
    144          1           0       -5.716055   -5.289897   -1.599220
    145          1           0       -4.791023   -4.357800   -0.369783
    146          1           0       -3.981612   -5.001419   -1.706293
    147          1           0       -5.010022   -3.913192   -4.883507
    148          1           0       -3.640439   -2.931061   -5.367882
    149          1           0       -6.412816   -2.266085   -4.694205
    150          1           0       -5.445909   -1.658446   -6.087280
    151          1           0       -5.244992   -0.970906   -4.413598
    152          1           0        0.529924    1.092245   -4.994730
    153          1           0       -0.212848   -0.534543   -4.860456
    154          1           0        1.071907   -0.054938   -3.680784
    155          1           0        0.508022    3.744976   -0.282659
    156          1           0        1.202570    7.962653   -0.840972
    157          1           0       -0.398035    7.952794    0.139808
    158          1           0       -0.279338    7.876228   -1.635666
 ---------------------------------------------------------------------

 SCF Done:  E(RCAM-B3LYP) =  -4069.80983983     A.U. after   19 cycles

 Excitation energies and oscillator strengths:

 Excited State   1:      Singlet-A      1.6308 eV  760.28 nm  f=0.1004  <S**2>=0.000
     309 -> 315       -0.11477
     310 -> 316       -0.11516
     311 -> 313       -0.48197
     312 -> 314        0.48611
 This state for optimization and/or second-order correction.
 Total Energy, E(TD-HF/TD-DFT) =  -4069.74990997
 Copying the excited state density for this state as the 1-particle RhoCI density.

 Excited State   2:      Singlet-A      1.7182 eV  721.59 nm  f=0.6054  <S**2>=0.000
     309 -> 315        0.13173
     310 -> 316       -0.12912
     311 -> 313        0.48493
     312 -> 314        0.48136

 Excited State   3:      Singlet-A      2.1779 eV  569.29 nm  f=0.0024  <S**2>=0.000
     309 -> 313       -0.40647
     310 -> 314        0.49913
     311 -> 315        0.16656
     312 -> 316        0.20805

 Excited State   4:      Singlet-A      2.2007 eV  563.39 nm  f=0.1303  <S**2>=0.000
     309 -> 313        0.45977
     310 -> 314        0.34824
     311 -> 315       -0.20643
     312 -> 313        0.29357
     312 -> 316        0.15837

 Excited State   5:      Singlet-A      2.2034 eV  562.70 nm  f=0.0299  <S**2>=0.000
     309 -> 313       -0.18201
     310 -> 314       -0.19808
     312 -> 313        0.63817

 The electronic state is 1-A.
 Alpha  occ. eigenvalues --  -46.87763 -46.87223 -19.25860 -19.25814 -19.18782
 Alpha  occ. eigenvalues --  -19.18551 -19.18495 -19.18313 -19.17844 -19.16971
 Alpha  occ. eigenvalues --  -14.42433 -14.42100 -14.41429 -14.40914 -14.39365
 Alpha  occ. eigenvalues --  -14.38902 -14.38549 -14.38112 -10.38558 -10.38457
 Alpha  occ. eigenvalues --  -10.35418 -10.35001 -10.34075 -10.33105 -10.31454
 Alpha  occ. eigenvalues --  -10.31361 -10.31333 -10.30870 -10.30840 -10.30612
 Alpha  occ. eigenvalues --  -10.30516 -10.30460 -10.30224 -10.29902 -10.29892
 Alpha  occ. eigenvalues --  -10.29839 -10.29789 -10.29582 -10.29416 -10.29255
 Alpha  occ. eigenvalues --  -10.29046 -10.28898 -10.28754 -10.28632 -10.28465
 Alpha  occ. eigenvalues --  -10.28397 -10.28284 -10.28116 -10.27886 -10.27844
 Alpha  occ. eigenvalues --  -10.27710 -10.27707 -10.27576 -10.27539 -10.27492
 Alpha  occ. eigenvalues --  -10.27489 -10.27453 -10.27334 -10.27268 -10.27189
 Alpha  occ. eigenvalues --  -10.27123 -10.27005 -10.26991 -10.26982 -10.26885
 Alpha  occ. eigenvalues --  -10.26801 -10.26411 -10.26396 -10.26360 -10.26222
 Alpha  occ. eigenvalues --  -10.26104 -10.26104 -10.26029 -10.25890 -10.25846
 Alpha  occ. eigenvalues --  -10.25709 -10.25530 -10.25461 -10.25270 -10.25024
 Alpha  occ. eigenvalues --  -10.24980 -10.24753 -10.24719 -10.24475 -10.24300
 Alpha  occ. eigenvalues --  -10.24220  -3.16506  -3.15974  -1.91387  -1.90975
 Alpha  occ. eigenvalues --   -1.90857  -1.90816  -1.90446  -1.90281  -1.16189
 Alpha  occ. eigenvalues --   -1.16071  -1.08262  -1.07509  -1.07184  -1.06575
 Alpha  occ. eigenvalues --   -1.06305  -1.06099  -1.04549  -1.04067  -1.03739
 Alpha  occ. eigenvalues --   -1.03218  -1.03194  -1.02581  -1.02375  -1.01641
 Alpha  occ. eigenvalues --   -0.91851  -0.91391  -0.89547  -0.89190  -0.89072
 Alpha  occ. eigenvalues --   -0.88831  -0.88311  -0.87824  -0.87781  -0.87664
 Alpha  occ. eigenvalues --   -0.87294  -0.87245  -0.87237  -0.86702  -0.84978
 Alpha  occ. eigenvalues --   -0.84641  -0.83979  -0.83488  -0.82959  -0.82608
 Alpha  occ. eigenvalues --   -0.82558  -0.82271  -0.81410  -0.81110  -0.80495
 Alpha  occ. eigenvalues --   -0.79994  -0.78750  -0.78178  -0.77220  -0.76898
 Alpha  occ. eigenvalues --   -0.76779  -0.76509  -0.75824  -0.75407  -0.74881
 Alpha  occ. eigenvalues --   -0.74382  -0.72733  -0.72236  -0.71626  -0.71150
 Alpha  occ. eigenvalues --   -0.70004  -0.69424  -0.68853  -0.68450  -0.67569
 Alpha  occ. eigenvalues --   -0.67232  -0.67108  -0.66844  -0.65260  -0.64872
 Alpha  occ. eigenvalues --   -0.64799  -0.64547  -0.64341  -0.64270  -0.64225
 Alpha  occ. eigenvalues --   -0.63789  -0.62067  -0.61781  -0.60420  -0.59910
 Alpha  occ. eigenvalues --   -0.59780  -0.59416  -0.58932  -0.58523  -0.58418
 Alpha  occ. eigenvalues --   -0.57915  -0.57404  -0.57156  -0.56877  -0.56708
 Alpha  occ. eigenvalues --   -0.56242  -0.55766  -0.55740  -0.55469  -0.55425
 Alpha  occ. eigenvalues --   -0.55276  -0.55032  -0.54805  -0.54366  -0.54028
 Alpha  occ. eigenvalues --   -0.53881  -0.53570  -0.53257  -0.53179  -0.52828
 Alpha  occ. eigenvalues --   -0.52796  -0.52747  -0.52722  -0.52469  -0.52443
 Alpha  occ. eigenvalues --   -0.52318  -0.52041  -0.51825  -0.51595  -0.51313
 Alpha  occ. eigenvalues --   -0.51272  -0.51088  -0.50634  -0.50574  -0.50125
 Alpha  occ. eigenvalues --   -0.50088  -0.49896  -0.49632  -0.49490  -0.49476
 Alpha  occ. eigenvalues --   -0.49130  -0.49098  -0.49043  -0.48779  -0.48611
 Alpha  occ. eigenvalues --   -0.48500  -0.48375  -0.48293  -0.48095  -0.47963
 Alpha  occ. eigenvalues --   -0.47696  -0.47627  -0.47240  -0.47139  -0.46784
 Alpha  occ. eigenvalues --   -0.46715  -0.46533  -0.46326  -0.46309  -0.46213
 Alpha  occ. eigenvalues --   -0.46027  -0.45845  -0.45655  -0.45606  -0.45298
 Alpha  occ. eigenvalues --   -0.45203  -0.44787  -0.44526  -0.44419  -0.44178
 Alpha  occ. eigenvalues --   -0.44148  -0.44072  -0.43953  -0.43848  -0.43704
 Alpha  occ. eigenvalues --   -0.43658  -0.43399  -0.43363  -0.43279  -0.43122
 Alpha  occ. eigenvalues --   -0.42953  -0.42934  -0.42756  -0.42451  -0.42362
 Alpha  occ. eigenvalues --   -0.42268  -0.42171  -0.42010  -0.41592  -0.41588
 Alpha  occ. eigenvalues --   -0.41507  -0.41106  -0.41086  -0.40963  -0.40882
 Alpha  occ. eigenvalues --   -0.40817  -0.40571  -0.40520  -0.40369  -0.40359
 Alpha  occ. eigenvalues --   -0.40285  -0.40065  -0.39926  -0.39576  -0.39095
 Alpha  occ. eigenvalues --   -0.38510  -0.37995  -0.37770  -0.37343  -0.37337
 Alpha  occ. eigenvalues --   -0.37240  -0.36872  -0.36792  -0.36503  -0.36265
 Alpha  occ. eigenvalues --   -0.35887  -0.35769  -0.34239  -0.33792  -0.33368
 Alpha  occ. eigenvalues --   -0.33267  -0.33021  -0.32698  -0.31311  -0.30974
 Alpha  occ. eigenvalues --   -0.30876  -0.30511  -0.29711  -0.29395  -0.29219
 Alpha  occ. eigenvalues --   -0.28884  -0.28795  -0.28571  -0.24036  -0.23570
 Alpha  occ. eigenvalues --   -0.21102  -0.20666
 Alpha virt. eigenvalues --   -0.08720  -0.08291  -0.01729  -0.01272   0.00003
 Alpha virt. eigenvalues --    0.00435   0.02339   0.02524   0.03086   0.03751
 Alpha virt. eigenvalues --    0.04705   0.05050   0.05417   0.05833   0.06101

 Mulliken charges:
               1
     1  Mg   0.837410
     2  C   -0.004350
     3  C   -0.094712
     4  C   -0.045817
     5  C   -0.067157
     6  N   -0.256167
     7  C   -0.054338
     8  C   -0.012585
     9  C   -0.086718
    10  C    0.045291
    11  C    0.104870
    12  C    0.050750
    13  C   -0.071008
    14  H    0.035261
    15  N   -0.433249
    16  C    0.167970
    17  C   -0.177641
    18  C   -0.004204
    19  C    0.148975
    20  C    0.110319
    21  C    0.012466
    22  O   -0.249851
    23  C    0.062529
    24  N   -0.341076
    25  C    0.041137
    26  C   -0.028359
    27  C   -0.023857
    28  C    0.075975
    29  C    0.076143
    30  C    0.036644
    31  C   -0.010131
    32  N   -0.311113
    33  C    0.077495
    34  C   -0.172663
    35  C    0.012608
    36  C    0.084643
    37  C    0.126780
    38  C    0.056452
    39  O   -0.183059
    40  C   -0.009054
    41  C    0.212955
    42  O   -0.238445
    43  O   -0.307220
    44  C    0.156089
    45  H   -0.018025
    46  H   -0.017236
    47  H   -0.041951
    48  H    0.001856
    49  H   -0.005034
    50  H    0.025904
    51  H    0.016532
    52  H    0.016286
    53  H    0.008914
    54  H    0.046674
    55  H    0.018950
    56  H    0.016537
    57  H    0.005246
    58  H    0.026738
    59  H    0.038489
    60  H    0.037082
    61  H    0.035773
    62  H    0.031089
    63  H    0.015893
    64  H    0.009956
    65  H    0.023099
    66  H    0.012958
    67  H    0.004742
    68  H    0.006405
    69  H    0.004222
    70  H    0.009745
    71  H    0.016169
    72  H    0.031518
    73  H    0.051096
    74  H    0.007432
    75  H    0.045888
    76  H    0.034003
    77  H    0.041287
    78  H    0.042957
    79  H    0.057942
    80  Mg   0.834550
    81  C   -0.017151
    82  C   -0.088251
    83  C   -0.046297
    84  C   -0.067686
    85  N   -0.253565
    86  C   -0.051045
    87  C   -0.013744
    88  C   -0.090494
    89  C    0.044282
    90  C    0.114197
    91  C    0.062891
    92  C   -0.076713
    93  H    0.033830
    94  N   -0.423151
    95  C    0.161458
    96  C   -0.176118
    97  C   -0.008933
    98  C    0.151249
    99  C    0.099983
   100  C    0.014656
   101  O   -0.254477
   102  C    0.061595
   103  N   -0.350593
   104  C    0.037523
   105  C   -0.020140
   106  C   -0.035470
   107  C    0.090311
   108  C    0.073621
   109  C    0.034722
   110  C   -0.007211
   111  N   -0.324455
   112  C    0.077690
   113  C   -0.166888
   114  C    0.006410
   115  C    0.092681
   116  C    0.130816
   117  C    0.049999
   118  O   -0.166430
   119  C    0.002666
   120  C    0.211546
   121  O   -0.253503
   122  O   -0.303241
   123  C    0.152978
   124  H   -0.022071
   125  H   -0.016715
   126  H   -0.041873
   127  H   -0.001348
   128  H   -0.005716
   129  H    0.022119
   130  H    0.013682
   131  H    0.013090
   132  H    0.013662
   133  H    0.038308
   134  H    0.018841
   135  H    0.018724
   136  H    0.007156
   137  H    0.024278
   138  H    0.038403
   139  H    0.037405
   140  H    0.035183
   141  H    0.033310
   142  H    0.013382
   143  H    0.013548
   144  H    0.023952
   145  H    0.012718
   146  H    0.005392
   147  H    0.005258
   148  H    0.001680
   149  H    0.010805
   150  H    0.016964
   151  H    0.030981
   152  H    0.045980
   153  H    0.003208
   154  H    0.053941
   155  H    0.043839
   156  H    0.037948
   157  H    0.047244
   158  H    0.053502
 Sum of Mulliken charges =  -0.00000

 Dipole moment (field-independent basis, Debye):
    X=              1.1056    Y=             -0.3688    Z=              7.7380  Tot=              7.8253
 Quadrupole moment (field-independent basis, Debye-Ang):
   XX=           -519.5701   YY=           -509.5107   ZZ=           -474.9046
   XY=            -24.2866   XZ=              9.5864   YZ=             54.7384

 Normal termination of Gaussian 16 at Thu Sep  9 05:20:56 2021.
