 Gaussian 16, Revision A.03,
 Gaussian 16:  ES64L-G16RevA.03 25-Dec-2016

 -----------------------------------
 #p cam-b3lyp/Def2SVP td=(nstates=5)
 -----------------------------------

 --------------------------------
 TDDFT excited states in gaussian
 --------------------------------
 Symbolic Z-matrix:
 Charge =  0 Multiplicity = 1

                         Standard orientation:
 ---------------------------------------------------------------------
 Center     Atomic      Atomic             Coordinates (Angstroms)
 Number     Number       Type             X           Y           Z
 ---------------------------------------------------------------------
      1         12           0       15.773087    0.786967    0.205633
      2          6           0       16.157464   -2.748460   -0.200849
      3          6           0       16.648688    1.109385   -3.076505
      4          6           0       15.883208    3.924143    0.655765
      5          6           0       16.044359    0.272519    3.641825
      6          7           0       16.310037   -0.704911   -1.339240
      7          6           0       16.361372   -2.032561   -1.382608
      8          6           0       16.577786   -2.595881   -2.818996
      9          6           0       17.270216   -1.324237   -3.486422
     10          6           0       16.681567   -0.236650   -2.605189
     11          6           0       18.788167   -1.308887   -3.337790
     12          6           0       15.227641   -2.951101   -3.527979
     13          6           0       15.358677   -3.803775   -4.793337
     14          1           0       14.333417   -4.796248   -5.078273
     15          7           0       15.723785    2.270787   -1.097707
     16          6           0       16.102389    2.219937   -2.397460
     17          6           0       15.876231    3.576350   -2.941220
     18          6           0       15.514656    4.467878   -1.804322
     19          6           0       15.720978    3.584406   -0.685266
     20          6           0       15.961224    3.902454   -4.400734
     21          6           0       15.066058    5.893458   -1.736404
     22          8           0       15.028390    6.542953   -0.635808
     23          6           0       14.752113    6.545255   -3.020788
     24          7           0       16.158829    1.968194    1.882994
     25          6           0       16.085938    3.302206    1.819097
     26          6           0       16.119805    3.917023    3.186866
     27          6           0       15.986110    2.706202    4.219238
     28          6           0       15.980475    1.533368    3.207953
     29          6           0       17.373697    4.736730    3.521301
     30          6           0       14.839036    2.790565    5.257277
     31          6           0       13.503554    2.677874    4.556645
     32          7           0       15.873931   -0.930183    1.529367
     33          6           0       16.007150   -0.911992    2.925289
     34          6           0       16.140546   -2.313098    3.364804
     35          6           0       16.091981   -3.052744    2.184800
     36          6           0       15.964378   -2.167956    1.076125
     37          6           0       16.341972   -2.750981    4.703505
     38          6           0       16.142963   -4.383188    1.600697
     39          8           0       16.149606   -5.529062    2.052827
     40          6           0       16.309924   -4.232248    0.024255
     41          6           0       15.311218   -5.148739   -0.628385
     42          8           0       14.085831   -4.934712   -0.528467
     43          8           0       15.952357   -5.986909   -1.457212
     44          6           0       15.015649   -6.904273   -2.159477
     45          1           0       17.136422    1.349138   -4.023382
     46          1           0       15.815767    4.993534    0.866225
     47          1           0       16.047900    0.029486    4.705957
     48          1           0       17.245994   -3.455460   -2.874188
     49          1           0       16.955712   -1.185564   -4.520626
     50          1           0       19.132620   -2.110365   -2.684410
     51          1           0       19.028626   -0.336703   -2.907058
     52          1           0       19.273216   -1.332352   -4.313984
     53          1           0       14.798385   -2.046064   -3.957757
     54          1           0       14.543908   -3.439899   -2.833061
     55          1           0       16.351845   -4.246405   -4.874607
     56          1           0       15.284158   -3.144826   -5.658458
     57          1           0       16.406733    3.086316   -4.968172
     58          1           0       16.670815    4.723292   -4.502786
     59          1           0       14.995885    4.197728   -4.812152
     60          1           0       15.633928    6.521549   -3.661405
     61          1           0       14.363484    7.531704   -2.770318
     62          1           0       13.985040    5.964115   -3.533454
     63          1           0       15.284356    4.601351    3.328798
     64          1           0       16.884379    2.584053    4.824932
     65          1           0       17.159571    5.765258    3.812821
     66          1           0       18.037256    4.705134    2.657598
     67          1           0       18.007099    4.307242    4.297033
     68          1           0       14.855519    3.755404    5.763003
     69          1           0       14.891989    2.014757    6.021195
     70          1           0       13.316281    3.698238    4.224052
     71          1           0       12.734145    2.347552    5.255292
     72          1           0       13.572584    2.052457    3.666379
     73          1           0       15.685529   -3.609371    4.845696
     74          1           0       16.118028   -1.958517    5.417266
     75          1           0       17.402367   -3.001375    4.676669
     76          1           0       17.336516   -4.511808   -0.210429
     77          1           0       15.346922   -7.921825   -1.951921
     78          1           0       14.989831   -6.583072   -3.200903
     79          1           0       13.995356   -6.937719   -1.775780
     80         12           0      -15.943680   -0.820792    0.061002
     81          6           0      -15.910709    2.670252   -0.770031
     82          6           0      -15.126540    0.082870    3.246953
     83          6           0      -15.523065   -3.896008    0.719459
     84          6           0      -15.625717   -1.492098   -3.343987
     85          7           0      -15.592027    1.153055    0.995081
     86          6           0      -15.668080    2.413573    0.595508
     87          6           0      -15.552852    3.458430    1.737673
     88          6           0      -14.751684    2.562802    2.802969
     89          6           0      -15.207430    1.177425    2.349448
     90          6           0      -13.242572    2.644872    2.644239
     91          6           0      -16.954294    3.894565    2.292423
     92          6           0      -16.933270    5.133411    3.190514
     93          1           0      -18.062892    6.056810    3.129189
     94          7           0      -15.887870   -1.764608    1.805897
     95          6           0      -15.556971   -1.240118    3.004515
     96          6           0      -15.650115   -2.347919    3.967972
     97          6           0      -15.902818   -3.605628    3.213627
     98          6           0      -15.757168   -3.130356    1.852384
     99          6           0      -15.581789   -2.142363    5.453398
    100          6           0      -16.210392   -5.007239    3.646189
    101          8           0      -16.157355   -5.991661    2.827084
    102          6           0      -16.484235   -5.206637    5.076835
    103          7           0      -15.409256   -2.453250   -1.110253
    104          6           0      -15.349165   -3.690033   -0.586167
    105          6           0      -15.216435   -4.735094   -1.668128
    106          6           0      -15.444047   -3.957365   -3.046868
    107          6           0      -15.586739   -2.518127   -2.504994
    108          6           0      -13.880548   -5.476322   -1.716769
    109          6           0      -16.550219   -4.505282   -3.989652
    110          6           0      -17.910113   -4.306478   -3.359925
    111          7           0      -15.978376    0.337451   -1.762548
    112          6           0      -15.799999   -0.139650   -3.079599
    113          6           0      -15.791298    1.037808   -3.971752
    114          6           0      -15.943354    2.128590   -3.102526
    115          6           0      -16.019737    1.665139   -1.761299
    116          6           0      -15.607835    1.010854   -5.383039
    117          6           0      -16.045956    3.567432   -3.013642
    118          8           0      -16.130674    4.484344   -3.829631
    119          6           0      -15.902417    3.991042   -1.488401
    120          6           0      -17.001903    4.967553   -1.172085
    121          8           0      -18.192341    4.608504   -1.195962
    122          8           0      -16.460015    6.098514   -0.684588
    123          6           0      -17.511710    7.093920   -0.345597
    124          1           0      -14.649965    0.239833    4.215001
    125          1           0      -15.480951   -4.975719    0.880478
    126          1           0      -15.629417   -1.624285   -4.428048
    127          1           0      -14.978333    4.342479    1.488340
    128          1           0      -15.087097    2.761369    3.817582
    129          1           0      -12.959824    3.201297    1.762991
    130          1           0      -12.898274    1.621495    2.572158
    131          1           0      -12.789563    3.051981    3.552743
    132          1           0      -17.302635    3.144916    3.014527
    133          1           0      -17.652472    4.040818    1.491315
    134          1           0      -15.985424    5.680261    3.116332
    135          1           0      -16.973675    4.807275    4.232637
    136          1           0      -15.225517   -1.135590    5.704197
    137          1           0      -14.800222   -2.809429    5.832901
    138          1           0      -16.522559   -2.378878    5.955070
    139          1           0      -15.627917   -4.873364    5.658301
    140          1           0      -16.769639   -6.255694    5.176288
    141          1           0      -17.327277   -4.568316    5.363957
    142          1           0      -15.978629   -5.497652   -1.564834
    143          1           0      -14.541111   -3.968618   -3.674894
    144          1           0      -13.987385   -6.574382   -1.633485
    145          1           0      -13.249359   -5.094572   -0.925319
    146          1           0      -13.278985   -5.286256   -2.604010
    147          1           0      -16.428107   -5.581949   -4.131145
    148          1           0      -16.544353   -4.048436   -4.973656
    149          1           0      -18.001132   -5.168284   -2.692017
    150          1           0      -18.688769   -4.312201   -4.119997
    151          1           0      -17.927642   -3.404045   -2.737870
    152          1           0      -16.332688    1.694655   -5.804345
    153          1           0      -15.730449    0.005591   -5.780778
    154          1           0      -14.572766    1.356073   -5.451794
    155          1           0      -14.913394    4.433379   -1.362939
    156          1           0      -17.271567    8.011127   -0.892172
    157          1           0      -17.521548    7.153702    0.758972
    158          1           0      -18.518811    6.897451   -0.694309
 ---------------------------------------------------------------------

 SCF Done:  E(RCAM-B3LYP) =  -4069.81179009     A.U. after   19 cycles

 Excitation energies and oscillator strengths:

 Excited State   1:      Singlet-A      1.6754 eV  740.05 nm  f=0.2289  <S**2>=0.000
     310 -> 316        0.16908
     311 -> 314        0.15490
     312 -> 313        0.66834
     310 <- 316        0.10193
 This state for optimization and/or second-order correction.
 Total Energy, E(TD-HF/TD-DFT) =  -4069.75022208
 Copying the excited state density for this state as the 1-particle RhoCI density.

 Excited State   2:      Singlet-A      1.6801 eV  737.94 nm  f=0.5483  <S**2>=0.000
     309 -> 315        0.17107
     311 -> 314        0.66797
     312 -> 313       -0.15485
     309 <- 315        0.10242

 Excited State   3:      Singlet-A      2.1861 eV  567.14 nm  f=0.0956  <S**2>=0.000
     310 -> 313        0.64211
     312 -> 316       -0.27297

 Excited State   4:      Singlet-A      2.1926 eV  565.47 nm  f=0.1046  <S**2>=0.000
     309 -> 314        0.64033
     311 -> 315       -0.27815

 Excited State   5:      Singlet-A      3.0658 eV  404.41 nm  f=0.0000  <S**2>=0.000
     311 -> 313        0.70711

 The electronic state is 1-A.
 Alpha  occ. eigenvalues --  -46.87796 -46.87661 -19.26352 -19.26282 -19.19164
 Alpha  occ. eigenvalues --  -19.19018 -19.18813 -19.18712 -19.18169 -19.18053
 Alpha  occ. eigenvalues --  -14.42497 -14.42449 -14.41450 -14.41359 -14.39402
 Alpha  occ. eigenvalues --  -14.39352 -14.38600 -14.38586 -10.39093 -10.39078
 Alpha  occ. eigenvalues --  -10.35446 -10.35389 -10.34389 -10.34231 -10.31760
 Alpha  occ. eigenvalues --  -10.31676 -10.31404 -10.31309 -10.31022 -10.30907
 Alpha  occ. eigenvalues --  -10.30569 -10.30507 -10.30398 -10.30361 -10.30207
 Alpha  occ. eigenvalues --  -10.30140 -10.29921 -10.29895 -10.29630 -10.29436
 Alpha  occ. eigenvalues --  -10.29401 -10.29254 -10.28746 -10.28718 -10.28654
 Alpha  occ. eigenvalues --  -10.28533 -10.28405 -10.28364 -10.28139 -10.28114
 Alpha  occ. eigenvalues --  -10.28001 -10.27792 -10.27726 -10.27669 -10.27583
 Alpha  occ. eigenvalues --  -10.27518 -10.27504 -10.27484 -10.27477 -10.27466
 Alpha  occ. eigenvalues --  -10.27462 -10.27452 -10.27403 -10.27376 -10.27157
 Alpha  occ. eigenvalues --  -10.27052 -10.26701 -10.26693 -10.26410 -10.26406
 Alpha  occ. eigenvalues --  -10.26231 -10.26189 -10.26140 -10.26022 -10.26020
 Alpha  occ. eigenvalues --  -10.25935 -10.25855 -10.25846 -10.25438 -10.25395
 Alpha  occ. eigenvalues --  -10.24874 -10.24832 -10.24788 -10.24733 -10.24693
 Alpha  occ. eigenvalues --  -10.24690  -3.16539  -3.16410  -1.91421  -1.91293
 Alpha  occ. eigenvalues --   -1.91007  -1.90881  -1.90849  -1.90718  -1.16646
 Alpha  occ. eigenvalues --   -1.16631  -1.08661  -1.08627  -1.07214  -1.06964
 Alpha  occ. eigenvalues --   -1.06948  -1.06641  -1.04580  -1.04495  -1.03760
 Alpha  occ. eigenvalues --   -1.03663  -1.03233  -1.03039  -1.02411  -1.02112
 Alpha  occ. eigenvalues --   -0.91988  -0.91971  -0.89521  -0.89495  -0.89185
 Alpha  occ. eigenvalues --   -0.89150  -0.88288  -0.88221  -0.87871  -0.87796
 Alpha  occ. eigenvalues --   -0.87684  -0.87672  -0.87272  -0.87118  -0.84999
 Alpha  occ. eigenvalues --   -0.84980  -0.83939  -0.83877  -0.82966  -0.82929
 Alpha  occ. eigenvalues --   -0.82652  -0.82647  -0.81598  -0.81585  -0.80595
 Alpha  occ. eigenvalues --   -0.80443  -0.78796  -0.78635  -0.77218  -0.77144
 Alpha  occ. eigenvalues --   -0.76933  -0.76899  -0.75922  -0.75839  -0.74899
 Alpha  occ. eigenvalues --   -0.74803  -0.72774  -0.72700  -0.71672  -0.71581
 Alpha  occ. eigenvalues --   -0.69910  -0.69758  -0.68871  -0.68827  -0.67640
 Alpha  occ. eigenvalues --   -0.67602  -0.67217  -0.67199  -0.65285  -0.65272
 Alpha  occ. eigenvalues --   -0.64853  -0.64771  -0.64654  -0.64620  -0.64270
 Alpha  occ. eigenvalues --   -0.64204  -0.62297  -0.62280  -0.60441  -0.60339
 Alpha  occ. eigenvalues --   -0.59802  -0.59796  -0.58993  -0.58987  -0.58503
 Alpha  occ. eigenvalues --   -0.58426  -0.57584  -0.57556  -0.57309  -0.57237
 Alpha  occ. eigenvalues --   -0.56309  -0.56205  -0.55977  -0.55888  -0.55519
 Alpha  occ. eigenvalues --   -0.55452  -0.55340  -0.55249  -0.54524  -0.54489
 Alpha  occ. eigenvalues --   -0.53912  -0.53892  -0.53298  -0.53228  -0.53220
 Alpha  occ. eigenvalues --   -0.53141  -0.52914  -0.52903  -0.52753  -0.52665
 Alpha  occ. eigenvalues --   -0.52441  -0.52403  -0.51916  -0.51888  -0.51658
 Alpha  occ. eigenvalues --   -0.51614  -0.51202  -0.51196  -0.50570  -0.50472
 Alpha  occ. eigenvalues --   -0.50033  -0.49979  -0.49917  -0.49867  -0.49512
 Alpha  occ. eigenvalues --   -0.49486  -0.49213  -0.49202  -0.49105  -0.49094
 Alpha  occ. eigenvalues --   -0.48592  -0.48559  -0.48462  -0.48444  -0.48376
 Alpha  occ. eigenvalues --   -0.48337  -0.47693  -0.47594  -0.47296  -0.47117
 Alpha  occ. eigenvalues --   -0.46797  -0.46709  -0.46553  -0.46553  -0.46359
 Alpha  occ. eigenvalues --   -0.46271  -0.46163  -0.46087  -0.45824  -0.45822
 Alpha  occ. eigenvalues --   -0.45209  -0.45202  -0.44577  -0.44515  -0.44505
 Alpha  occ. eigenvalues --   -0.44476  -0.44145  -0.44127  -0.44086  -0.44078
 Alpha  occ. eigenvalues --   -0.44018  -0.43938  -0.43555  -0.43494  -0.43386
 Alpha  occ. eigenvalues --   -0.43385  -0.43027  -0.42932  -0.42903  -0.42698
 Alpha  occ. eigenvalues --   -0.42656  -0.42554  -0.42010  -0.41965  -0.41703
 Alpha  occ. eigenvalues --   -0.41670  -0.41531  -0.41459  -0.41140  -0.40989
 Alpha  occ. eigenvalues --   -0.40868  -0.40821  -0.40721  -0.40697  -0.40572
 Alpha  occ. eigenvalues --   -0.40494  -0.40230  -0.40226  -0.39444  -0.39427
 Alpha  occ. eigenvalues --   -0.38470  -0.38350  -0.37745  -0.37654  -0.37321
 Alpha  occ. eigenvalues --   -0.37266  -0.37261  -0.37199  -0.36773  -0.36712
 Alpha  occ. eigenvalues --   -0.36218  -0.36192  -0.34286  -0.34254  -0.33864
 Alpha  occ. eigenvalues --   -0.33769  -0.33186  -0.33176  -0.31343  -0.31271
 Alpha  occ. eigenvalues --   -0.31035  -0.30973  -0.30029  -0.29958  -0.29448
 Alpha  occ. eigenvalues --   -0.29327  -0.29321  -0.29212  -0.24080  -0.24036
 Alpha  occ. eigenvalues --   -0.21127  -0.21117
 Alpha virt. eigenvalues --   -0.08792  -0.08774  -0.01749  -0.01684  -0.00056
 Alpha virt. eigenvalues --   -0.00028   0.02200   0.02206   0.03120   0.03225
 Alpha virt. eigenvalues --    0.04719   0.04730   0.05100   0.05162   0.06180

 Mulliken charges:
               1
     1  Mg   0.838699
     2  C   -0.002960
     3  C   -0.094098
     4  C   -0.045884
     5  C   -0.063990
     6  N   -0.256778
     7  C   -0.052455
     8  C   -0.014014
     9  C   -0.087001
    10  C    0.046332
    11  C    0.104811
    12  C    0.053447
    13  C   -0.071825
    14  H    0.036166
    15  N   -0.433150
    16  C    0.168431
    17  C   -0.177121
    18  C   -0.003994
    19  C    0.148723
    20  C    0.110168
    21  C    0.012294
    22  O   -0.249639
    23  C    0.062468
    24  N   -0.341118
    25  C    0.041245
    26  C   -0.028152
    27  C   -0.023988
    28  C    0.074843
    29  C    0.076179
    30  C    0.035147
    31  C   -0.004497
    32  N   -0.310470
    33  C    0.080396
    34  C   -0.169754
    35  C    0.008350
    36  C    0.082992
    37  C    0.127320
    38  C    0.046106
    39  O   -0.188465
    40  C   -0.005345
    41  C    0.212875
    42  O   -0.257107
    43  O   -0.304791
    44  C    0.157688
    45  H   -0.017564
    46  H   -0.016844
    47  H   -0.041539
    48  H    0.000940
    49  H   -0.003993
    50  H    0.025468
    51  H    0.016439
    52  H    0.016688
    53  H    0.011228
    54  H    0.044113
    55  H    0.017870
    56  H    0.017988
    57  H    0.005905
    58  H    0.026849
    59  H    0.039612
    60  H    0.037367
    61  H    0.035669
    62  H    0.031540
    63  H    0.016532
    64  H    0.009444
    65  H    0.023196
    66  H    0.012567
    67  H    0.004735
    68  H    0.006327
    69  H    0.004693
    70  H    0.008776
    71  H    0.018073
    72  H    0.029023
    73  H    0.047533
    74  H    0.009067
    75  H    0.046001
    76  H    0.035156
    77  H    0.042942
    78  H    0.046432
    79  H    0.053683
    80  Mg   0.837802
    81  C   -0.016836
    82  C   -0.087751
    83  C   -0.045482
    84  C   -0.064856
    85  N   -0.254563
    86  C   -0.049835
    87  C   -0.015093
    88  C   -0.090504
    89  C    0.045747
    90  C    0.114354
    91  C    0.062518
    92  C   -0.077914
    93  H    0.034886
    94  N   -0.423490
    95  C    0.162924
    96  C   -0.174572
    97  C   -0.007769
    98  C    0.152130
    99  C    0.099341
   100  C    0.015602
   101  O   -0.253142
   102  C    0.061192
   103  N   -0.350043
   104  C    0.037533
   105  C   -0.019865
   106  C   -0.034786
   107  C    0.088879
   108  C    0.073638
   109  C    0.034729
   110  C   -0.007675
   111  N   -0.324082
   112  C    0.078415
   113  C   -0.163160
   114  C    0.002233
   115  C    0.096171
   116  C    0.131491
   117  C    0.042361
   118  O   -0.187941
   119  C    0.000935
   120  C    0.211267
   121  O   -0.251037
   122  O   -0.305631
   123  C    0.152034
   124  H   -0.019592
   125  H   -0.015527
   126  H   -0.040492
   127  H   -0.000650
   128  H   -0.004296
   129  H    0.022454
   130  H    0.014469
   131  H    0.016346
   132  H    0.013929
   133  H    0.037657
   134  H    0.020799
   135  H    0.019624
   136  H    0.008798
   137  H    0.026239
   138  H    0.039825
   139  H    0.038312
   140  H    0.036444
   141  H    0.033889
   142  H    0.014411
   143  H    0.012414
   144  H    0.025183
   145  H    0.011697
   146  H    0.005686
   147  H    0.006274
   148  H    0.003618
   149  H    0.010951
   150  H    0.017910
   151  H    0.030102
   152  H    0.045966
   153  H    0.008493
   154  H    0.046915
   155  H    0.035021
   156  H    0.043888
   157  H    0.049514
   158  H    0.053570
 Sum of Mulliken charges =  -0.00000

 Dipole moment (field-independent basis, Debye):
    X=              3.9191    Y=              1.6908    Z=              0.3456  Tot=              4.2822
 Quadrupole moment (field-independent basis, Debye-Ang):
   XX=           -519.0088   YY=           -548.3935   ZZ=           -450.2696
   XY=             40.0859   XZ=           -125.5785   YZ=             45.3217

 Normal termination of Gaussian 16 at Sun Sep 12 13:37:56 2021.
