 Gaussian 16, Revision A.03,
 Gaussian 16:  ES64L-G16RevA.03 25-Dec-2016

 -----------------------------------
 #p cam-b3lyp/Def2SVP td=(nstates=5)
 -----------------------------------

 --------------------------------
 TDDFT excited states in gaussian
 --------------------------------
 Symbolic Z-matrix:
 Charge =  0 Multiplicity = 1

                         Standard orientation:
 ---------------------------------------------------------------------
 Center     Atomic      Atomic             Coordinates (Angstroms)
 Number     Number       Type             X           Y           Z
 ---------------------------------------------------------------------
      1         12           0       -7.828218   -0.851153    0.124440
      2          6           0       -8.203116    2.672497    0.629971
      3          6           0       -8.943080   -0.361811   -3.063144
      4          6           0       -7.939045   -4.003287   -0.204782
      5          6           0       -7.843900   -1.200921    3.591871
      6          7           0       -8.459812    0.971197   -0.962195
      7          6           0       -8.499908    2.268207   -0.673528
      8          6           0       -8.813922    3.166313   -1.907292
      9          6           0       -9.566563    2.093076   -2.814866
     10          6           0       -8.927226    0.826391   -2.273867
     11          6           0      -11.069804    2.030220   -2.564234
     12          6           0       -7.515048    3.695315   -2.603577
     13          6           0       -7.728398    4.832369   -3.607044
     14          1           0       -6.715925    5.872099   -3.712914
     15          7           0       -7.889545   -1.967843   -1.504084
     16          6           0       -8.360897   -1.601273   -2.720118
     17          6           0       -8.189360   -2.780242   -3.596067
     18          6           0       -7.755830   -3.921585   -2.743141
     19          6           0       -7.870914   -3.342519   -1.429057
     20          6           0       -8.383530   -2.737455   -5.080728
     21          6           0       -7.318810   -5.316575   -3.061178
     22          8           0       -7.208352   -6.216833   -2.160118
     23          6           0       -7.105903   -5.629583   -4.485867
     24          7           0       -8.103883   -2.411975    1.482923
     25          6           0       -8.050140   -3.688570    1.087447
     26          6           0       -7.991266   -4.621560    2.260479
     27          6           0       -7.770025   -3.701341    3.546560
     28          6           0       -7.825202   -2.315553    2.857491
     29          6           0       -9.226309   -5.507755    2.473403
     30          6           0       -6.551625   -4.030174    4.445331
     31          6           0       -5.269370   -3.738389    3.698482
     32          7           0       -7.814310    0.486264    1.833876
     33          6           0       -7.846074    0.123825    3.188240
     34          6           0       -7.932184    1.372479    3.967674
     35          6           0       -7.961436    2.380313    3.005770
     36          6           0       -7.924119    1.796825    1.707139
     37          6           0       -8.031228    1.465633    5.383988
     38          6           0       -8.040387    3.813214    2.772493
     39          8           0       -8.001909    4.812348    3.492036
     40          6           0       -8.322909    4.053949    1.223927
     41          6           0       -7.364416    5.110406    0.745912
     42          8           0       -6.137376    4.887549    0.700378
     43          8           0       -8.054974    6.122065    0.197992
     44          6           0       -7.161903    7.191125   -0.323245
     45          1           0       -9.500780   -0.364613   -4.001709
     46          1           0       -7.867990   -5.091034   -0.269558
     47          1           0       -7.767608   -1.227500    4.680414
     48          1           0       -9.475111    4.007975   -1.700268
     49          1           0       -9.329438    2.215756   -3.871485
     50          1           0      -11.357318    2.643480   -1.710319
     51          1           0      -11.288793    0.980123   -2.369726
     52          1           0      -11.624129    2.289761   -3.466531
     53          1           0       -7.127845    2.927254   -3.273067
     54          1           0       -6.777486    4.003009   -1.861517
     55          1           0       -8.720037    5.273927   -3.504154
     56          1           0       -7.723926    4.407373   -4.610816
     57          1           0       -8.860255   -1.810061   -5.395720
     58          1           0       -9.107422   -3.513164   -5.329652
     59          1           0       -7.453812   -2.915061   -5.621481
     60          1           0       -8.031573   -5.455433   -5.034826
     61          1           0       -6.710731   -6.644394   -4.514991
     62          1           0       -6.371861   -4.934348   -4.894254
     63          1           0       -7.155111   -5.313485    2.168226
     64          1           0       -8.620614   -3.738869    4.227563
     65          1           0       -9.002643   -6.574766    2.486326
     66          1           0       -9.950413   -5.269379    1.694853
     67          1           0       -9.797106   -5.287316    3.375076
     68          1           0       -6.541721   -5.089945    4.697783
     69          1           0       -6.540678   -3.466835    5.378487
     70          1           0       -5.117685   -4.643972    3.112185
     71          1           0       -4.447794   -3.584563    4.398882
     72          1           0       -5.396103   -2.913505    2.997062
     73          1           0       -7.357025    2.267453    5.684828
     74          1           0       -7.764600    0.523486    5.862393
     75          1           0       -9.088027    1.706973    5.497068
     76          1           0       -9.360765    4.374999    1.140840
     77          1           0       -7.466303    8.123700    0.152022
     78          1           0       -7.215170    7.136521   -1.410713
     79          1           0       -6.116158    7.136680   -0.018628
     80         12           0        7.993927    0.074431   -0.904107
     81          6           0        8.050081   -0.472596    2.642252
     82          6           0        6.971382    3.261216   -0.245759
     83          6           0        7.500847    0.453099   -4.015521
     84          6           0        7.901039   -3.387220   -1.296574
     85          7           0        7.598350    1.139144    0.993831
     86          6           0        7.713119    0.848525    2.280974
     87          6           0        7.530590    2.061016    3.232870
     88          6           0        6.650743    2.994716    2.266982
     89          6           0        7.123152    2.462357    0.915652
     90          6           0        5.156692    2.742731    2.383788
     91          6           0        8.895271    2.741464    3.602532
     92          6           0        8.825091    3.733149    4.765878
     93          1           0        9.964893    3.822070    5.674404
     94          7           0        7.811211    1.729869   -1.983324
     95          6           0        7.404821    2.942117   -1.551378
     96          6           0        7.422098    3.817126   -2.733851
     97          6           0        7.713499    2.982340   -3.930900
     98          6           0        7.664850    1.657191   -3.346333
     99          6           0        7.255244    5.306412   -2.646577
    100          6           0        7.977905    3.319978   -5.366967
    101          8           0        7.971240    2.422426   -6.281945
    102          6           0        8.152330    4.744947   -5.684009
    103          7           0        7.524764   -1.257751   -2.429724
    104          6           0        7.417724   -0.840337   -3.703395
    105          6           0        7.348786   -2.009522   -4.656626
    106          6           0        7.676544   -3.302744   -3.774739
    107          6           0        7.795707   -2.638218   -2.385637
    108          6           0        6.012364   -2.206876   -5.371759
    109          6           0        8.838844   -4.210699   -4.261912
    110          6           0       10.154763   -3.477611   -4.134175
    111          7           0        8.162923   -1.643332    0.395422
    112          6           0        8.069702   -3.003548    0.027710
    113          6           0        8.132493   -3.796384    1.272664
    114          6           0        8.235550   -2.833784    2.288180
    115          6           0        8.216561   -1.532229    1.718018
    116          6           0        8.044800   -5.214332    1.361211
    117          6           0        8.345390   -2.622466    3.713653
    118          8           0        8.493784   -3.354340    4.691434
    119          6           0        8.102851   -1.081021    4.016176
    120          6           0        9.187503   -0.614269    4.947940
    121          8           0       10.373403   -0.587506    4.574371
    122          8           0        8.624465   -0.074384    6.044242
    123          6           0        9.660086    0.413263    6.993730
    124          1           0        6.431833    4.204796   -0.159580
    125          1           0        7.437801    0.523328   -5.103899
    126          1           0        7.976918   -4.475740   -1.341804
    127          1           0        6.982604    1.846024    4.142406
    128          1           0        6.918516    4.042156    2.378899
    129          1           0        4.939512    1.892349    3.012925
    130          1           0        4.808480    2.565509    1.374634
    131          1           0        4.647016    3.648845    2.723695
    132          1           0        9.186864    3.422369    2.792537
    133          1           0        9.647457    2.003153    3.801942
    134          1           0        7.889622    3.640217    5.330863
    135          1           0        8.791759    4.745931    4.356992
    136          1           0        6.892272    5.613259   -1.657890
    137          1           0        6.443538    5.577838   -3.330185
    138          1           0        8.157621    5.849046   -2.936291
    139          1           0        7.261759    5.292949   -5.385608
    140          1           0        8.420502    4.778292   -6.741766
    141          1           0        8.979946    5.138275   -5.083194
    142          1           0        8.095036   -1.917430   -5.436187
    143          1           0        6.818146   -3.988507   -3.722437
    144          1           0        6.103005   -2.205506   -6.474428
    145          1           0        5.332625   -1.431119   -5.045139
    146          1           0        5.474083   -3.114061   -5.102575
    147          1           0        8.716506   -4.446421   -5.321921
    148          1           0        8.903933   -5.152824   -3.727915
    149          1           0       10.192252   -2.876824   -5.047822
    150          1           0       10.983027   -4.181976   -4.090700
    151          1           0       10.138589   -2.785003   -3.284654
    152          1           0        8.802904   -5.529771    2.065679
    153          1           0        8.184632   -5.682803    0.389218
    154          1           0        7.020052   -5.323966    1.726093
    155          1           0        7.111792   -0.986595    4.461665
    156          1           0        9.466128   -0.072346    7.955113
    157          1           0        9.595640    1.517239    6.964965
    158          1           0       10.686603    0.117848    6.810857
 ---------------------------------------------------------------------

 SCF Done:  E(RCAM-B3LYP) =  -4069.81191131     A.U. after   19 cycles

 Excitation energies and oscillator strengths:

 Excited State   1:      Singlet-A      1.6752 eV  740.11 nm  f=0.3780  <S**2>=0.000
     310 -> 316        0.17307
     312 -> 314        0.68533
     310 <- 316        0.10431
 This state for optimization and/or second-order correction.
 Total Energy, E(TD-HF/TD-DFT) =  -4069.75034823
 Copying the excited state density for this state as the 1-particle RhoCI density.

 Excited State   2:      Singlet-A      1.6796 eV  738.19 nm  f=0.3710  <S**2>=0.000
     309 -> 315        0.17537
     311 -> 313        0.68498
     309 <- 315        0.10507

 Excited State   3:      Singlet-A      2.1857 eV  567.24 nm  f=0.1018  <S**2>=0.000
     310 -> 314        0.64237
     312 -> 316       -0.27251

 Excited State   4:      Singlet-A      2.1927 eV  565.43 nm  f=0.0978  <S**2>=0.000
     309 -> 313        0.64052
     311 -> 315       -0.27828

 Excited State   5:      Singlet-A      2.7631 eV  448.71 nm  f=0.0000  <S**2>=0.000
     312 -> 313        0.70710

 The electronic state is 1-A.
 Alpha  occ. eigenvalues --  -46.87839 -46.87586 -19.26369 -19.26272 -19.19104
 Alpha  occ. eigenvalues --  -19.19086 -19.18849 -19.18660 -19.18227 -19.17980
 Alpha  occ. eigenvalues --  -14.42494 -14.42417 -14.41489 -14.41289 -14.39445
 Alpha  occ. eigenvalues --  -14.39279 -14.38632 -14.38527 -10.39161 -10.39015
 Alpha  occ. eigenvalues --  -10.35482 -10.35338 -10.34448 -10.34157 -10.31775
 Alpha  occ. eigenvalues --  -10.31680 -10.31452 -10.31222 -10.30954 -10.30940
 Alpha  occ. eigenvalues --  -10.30615 -10.30550 -10.30330 -10.30285 -10.30241
 Alpha  occ. eigenvalues --  -10.30074 -10.29960 -10.29830 -10.29674 -10.29365
 Alpha  occ. eigenvalues --  -10.29332 -10.29294 -10.28802 -10.28616 -10.28605
 Alpha  occ. eigenvalues --  -10.28554 -10.28410 -10.28330 -10.28164 -10.28024
 Alpha  occ. eigenvalues --  -10.27929 -10.27837 -10.27769 -10.27626 -10.27584
 Alpha  occ. eigenvalues --  -10.27525 -10.27516 -10.27474 -10.27468 -10.27450
 Alpha  occ. eigenvalues --  -10.27407 -10.27398 -10.27390 -10.27329 -10.27219
 Alpha  occ. eigenvalues --  -10.26972 -10.26767 -10.26598 -10.26439 -10.26369
 Alpha  occ. eigenvalues --  -10.26278 -10.26199 -10.26097 -10.26058 -10.25890
 Alpha  occ. eigenvalues --  -10.25868 -10.25866 -10.25789 -10.25455 -10.25362
 Alpha  occ. eigenvalues --  -10.24880 -10.24827 -10.24801 -10.24701 -10.24693
 Alpha  occ. eigenvalues --  -10.24623  -3.16582  -3.16336  -1.91464  -1.91219
 Alpha  occ. eigenvalues --   -1.91050  -1.90893  -1.90807  -1.90644  -1.16717
 Alpha  occ. eigenvalues --   -1.16566  -1.08687  -1.08588  -1.07250  -1.06914
 Alpha  occ. eigenvalues --   -1.06870  -1.06726  -1.04626  -1.04414  -1.03801
 Alpha  occ. eigenvalues --   -1.03589  -1.03276  -1.02969  -1.02453  -1.02039
 Alpha  occ. eigenvalues --   -0.92022  -0.91911  -0.89553  -0.89433  -0.89238
 Alpha  occ. eigenvalues --   -0.89047  -0.88318  -0.88164  -0.87916  -0.87724
 Alpha  occ. eigenvalues --   -0.87717  -0.87605  -0.87312  -0.87054  -0.85031
 Alpha  occ. eigenvalues --   -0.84909  -0.83968  -0.83823  -0.83000  -0.82874
 Alpha  occ. eigenvalues --   -0.82696  -0.82570  -0.81647  -0.81522  -0.80647
 Alpha  occ. eigenvalues --   -0.80369  -0.78838  -0.78565  -0.77260  -0.77065
 Alpha  occ. eigenvalues --   -0.76985  -0.76819  -0.75976  -0.75748  -0.74934
 Alpha  occ. eigenvalues --   -0.74743  -0.72817  -0.72626  -0.71715  -0.71503
 Alpha  occ. eigenvalues --   -0.69933  -0.69706  -0.68920  -0.68741  -0.67686
 Alpha  occ. eigenvalues --   -0.67531  -0.67270  -0.67119  -0.65337  -0.65183
 Alpha  occ. eigenvalues --   -0.64903  -0.64697  -0.64668  -0.64576  -0.64304
 Alpha  occ. eigenvalues --   -0.64143  -0.62361  -0.62206  -0.60479  -0.60275
 Alpha  occ. eigenvalues --   -0.59852  -0.59703  -0.59031  -0.58921  -0.58549
 Alpha  occ. eigenvalues --   -0.58354  -0.57645  -0.57479  -0.57351  -0.57173
 Alpha  occ. eigenvalues --   -0.56356  -0.56131  -0.56047  -0.55809  -0.55563
 Alpha  occ. eigenvalues --   -0.55383  -0.55381  -0.55186  -0.54574  -0.54425
 Alpha  occ. eigenvalues --   -0.53946  -0.53813  -0.53341  -0.53270  -0.53160
 Alpha  occ. eigenvalues --   -0.53065  -0.52969  -0.52825  -0.52797  -0.52594
 Alpha  occ. eigenvalues --   -0.52465  -0.52352  -0.51963  -0.51819  -0.51667
 Alpha  occ. eigenvalues --   -0.51573  -0.51244  -0.51130  -0.50606  -0.50411
 Alpha  occ. eigenvalues --   -0.50061  -0.49958  -0.49900  -0.49807  -0.49561
 Alpha  occ. eigenvalues --   -0.49411  -0.49263  -0.49146  -0.49122  -0.49013
 Alpha  occ. eigenvalues --   -0.48646  -0.48498  -0.48489  -0.48476  -0.48319
 Alpha  occ. eigenvalues --   -0.48274  -0.47738  -0.47518  -0.47338  -0.47049
 Alpha  occ. eigenvalues --   -0.46838  -0.46636  -0.46606  -0.46462  -0.46402
 Alpha  occ. eigenvalues --   -0.46208  -0.46202  -0.46021  -0.45878  -0.45748
 Alpha  occ. eigenvalues --   -0.45234  -0.45151  -0.44631  -0.44547  -0.44441
 Alpha  occ. eigenvalues --   -0.44390  -0.44185  -0.44134  -0.44068  -0.44042
 Alpha  occ. eigenvalues --   -0.44016  -0.43868  -0.43554  -0.43480  -0.43428
 Alpha  occ. eigenvalues --   -0.43306  -0.43072  -0.42857  -0.42828  -0.42767
 Alpha  occ. eigenvalues --   -0.42692  -0.42495  -0.42049  -0.41897  -0.41751
 Alpha  occ. eigenvalues --   -0.41595  -0.41582  -0.41376  -0.41184  -0.40913
 Alpha  occ. eigenvalues --   -0.40906  -0.40861  -0.40653  -0.40619  -0.40606
 Alpha  occ. eigenvalues --   -0.40428  -0.40289  -0.40138  -0.39465  -0.39375
 Alpha  occ. eigenvalues --   -0.38502  -0.38288  -0.37803  -0.37566  -0.37356
 Alpha  occ. eigenvalues --   -0.37314  -0.37199  -0.37114  -0.36780  -0.36700
 Alpha  occ. eigenvalues --   -0.36244  -0.36148  -0.34330  -0.34180  -0.33848
 Alpha  occ. eigenvalues --   -0.33788  -0.33232  -0.33103  -0.31379  -0.31219
 Alpha  occ. eigenvalues --   -0.31079  -0.30899  -0.30087  -0.29884  -0.29491
 Alpha  occ. eigenvalues --   -0.29368  -0.29259  -0.29141  -0.24124  -0.23962
 Alpha  occ. eigenvalues --   -0.21170  -0.21043
 Alpha virt. eigenvalues --   -0.08817  -0.08720  -0.01790  -0.01613  -0.00100
 Alpha virt. eigenvalues --    0.00042   0.02152   0.02276   0.03075   0.03292
 Alpha virt. eigenvalues --    0.04670   0.04816   0.05021   0.05240   0.06117

 Mulliken charges:
               1
     1  Mg   0.838656
     2  C   -0.003106
     3  C   -0.094132
     4  C   -0.045813
     5  C   -0.063912
     6  N   -0.256778
     7  C   -0.052523
     8  C   -0.014032
     9  C   -0.087005
    10  C    0.046310
    11  C    0.104785
    12  C    0.053477
    13  C   -0.071720
    14  H    0.035678
    15  N   -0.433168
    16  C    0.168466
    17  C   -0.177086
    18  C   -0.003930
    19  C    0.148732
    20  C    0.110142
    21  C    0.012326
    22  O   -0.249450
    23  C    0.062456
    24  N   -0.341146
    25  C    0.041297
    26  C   -0.028251
    27  C   -0.024000
    28  C    0.074854
    29  C    0.076124
    30  C    0.035104
    31  C   -0.004558
    32  N   -0.310433
    33  C    0.080322
    34  C   -0.169811
    35  C    0.008242
    36  C    0.082874
    37  C    0.127356
    38  C    0.045921
    39  O   -0.188762
    40  C   -0.005280
    41  C    0.212848
    42  O   -0.257525
    43  O   -0.304632
    44  C    0.157856
    45  H   -0.017513
    46  H   -0.016665
    47  H   -0.041393
    48  H    0.000898
    49  H   -0.003997
    50  H    0.025471
    51  H    0.016548
    52  H    0.016740
    53  H    0.011272
    54  H    0.043815
    55  H    0.017966
    56  H    0.018127
    57  H    0.005916
    58  H    0.026956
    59  H    0.039653
    60  H    0.037417
    61  H    0.035762
    62  H    0.031487
    63  H    0.016718
    64  H    0.009541
    65  H    0.023397
    66  H    0.012521
    67  H    0.004852
    68  H    0.006648
    69  H    0.004769
    70  H    0.008933
    71  H    0.018380
    72  H    0.028677
    73  H    0.047279
    74  H    0.009239
    75  H    0.046068
    76  H    0.035214
    77  H    0.042887
    78  H    0.046495
    79  H    0.053148
    80  Mg   0.837920
    81  C   -0.016790
    82  C   -0.087560
    83  C   -0.045636
    84  C   -0.064904
    85  N   -0.254633
    86  C   -0.049619
    87  C   -0.015146
    88  C   -0.090503
    89  C    0.045727
    90  C    0.114206
    91  C    0.062478
    92  C   -0.077893
    93  H    0.034595
    94  N   -0.423522
    95  C    0.162856
    96  C   -0.174421
    97  C   -0.007983
    98  C    0.152242
    99  C    0.099288
   100  C    0.015478
   101  O   -0.253510
   102  C    0.061231
   103  N   -0.350057
   104  C    0.037609
   105  C   -0.019789
   106  C   -0.034813
   107  C    0.088886
   108  C    0.073720
   109  C    0.034796
   110  C   -0.007632
   111  N   -0.324095
   112  C    0.078441
   113  C   -0.163210
   114  C    0.002253
   115  C    0.096188
   116  C    0.131485
   117  C    0.042343
   118  O   -0.188015
   119  C    0.000941
   120  C    0.211240
   121  O   -0.251161
   122  O   -0.305506
   123  C    0.152083
   124  H   -0.019047
   125  H   -0.015878
   126  H   -0.040633
   127  H   -0.000393
   128  H   -0.004227
   129  H    0.022619
   130  H    0.014764
   131  H    0.017361
   132  H    0.013798
   133  H    0.037469
   134  H    0.021160
   135  H    0.019699
   136  H    0.009148
   137  H    0.026213
   138  H    0.039623
   139  H    0.038289
   140  H    0.036081
   141  H    0.033908
   142  H    0.014194
   143  H    0.012372
   144  H    0.024720
   145  H    0.011737
   146  H    0.005561
   147  H    0.005992
   148  H    0.003600
   149  H    0.010802
   150  H    0.017789
   151  H    0.030250
   152  H    0.045852
   153  H    0.008361
   154  H    0.047004
   155  H    0.035303
   156  H    0.043830
   157  H    0.049650
   158  H    0.053417
 Sum of Mulliken charges =  -0.00000

 Dipole moment (field-independent basis, Debye):
    X=             -4.5256    Y=              2.6603    Z=             -4.4953  Tot=              6.9113
 Quadrupole moment (field-independent basis, Debye-Ang):
   XX=           -518.6903   YY=           -499.7840   ZZ=           -499.3578
   XY=             36.5305   XZ=             24.2669   YZ=              0.4258

 Normal termination of Gaussian 16 at Sun Sep 12 08:57:53 2021.
