 Gaussian 16, Revision A.03,
 Gaussian 16:  ES64L-G16RevA.03 25-Dec-2016

 -----------------------------------
 #p cam-b3lyp/Def2SVP td=(nstates=5)
 -----------------------------------

 --------------------------------
 TDDFT excited states in gaussian
 --------------------------------
 Symbolic Z-matrix:
 Charge =  0 Multiplicity = 1

                         Standard orientation:
 ---------------------------------------------------------------------
 Center     Atomic      Atomic             Coordinates (Angstroms)
 Number     Number       Type             X           Y           Z
 ---------------------------------------------------------------------
      1         12           0       -3.817114    0.597963    0.771091
      2          6           0       -4.452590   -2.259195   -1.289257
      3          6           0       -4.091288   -1.472606    3.469357
      4          6           0       -3.711086    3.172078    2.620229
      5          6           0       -4.712120    2.577776   -1.953787
      6          7           0       -4.220691   -1.572119    0.939971
      7          6           0       -4.386550   -2.565132    0.071877
      8          6           0       -4.408052   -3.972529    0.739818
      9          6           0       -4.856955   -3.546933    2.209292
     10          6           0       -4.327796   -2.123646    2.222263
     11          6           0       -6.370149   -3.510108    2.397415
     12          6           0       -2.996174   -4.649507    0.745614
     13          6           0       -2.989598   -6.144196    1.079103
     14          1           0       -2.027191   -7.006683    0.410346
     15          7           0       -3.411008    0.776697    2.696184
     16          6           0       -3.567361   -0.174041    3.648516
     17          6           0       -3.127985    0.444387    4.917837
     18          6           0       -2.883024    1.890381    4.658629
     19          6           0       -3.356493    2.011205    3.303414
     20          6           0       -2.934339   -0.328794    6.186081
     21          6           0       -2.322448    2.991199    5.502481
     22          8           0       -2.411567    4.220741    5.163572
     23          6           0       -1.736841    2.594364    6.795783
     24          7           0       -4.370068    2.587933    0.467948
     25          6           0       -4.164326    3.512788    1.412033
     26          6           0       -4.372038    4.897570    0.874285
     27          6           0       -4.527491    4.739035   -0.706998
     28          6           0       -4.459403    3.194526   -0.797145
     29          6           0       -5.583144    5.657600    1.432487
     30          6           0       -3.569717    5.572621   -1.594817
     31          6           0       -2.151203    5.076125   -1.426273
     32          7           0       -4.298831    0.261852   -1.318412
     33          6           0       -4.663987    1.229338   -2.265673
     34          6           0       -4.998843    0.511488   -3.509309
     35          6           0       -4.820017   -0.833597   -3.192114
     36          6           0       -4.425423   -0.950295   -1.828674
     37          6           0       -5.463439    1.106165   -4.715520
     38          6           0       -4.894322   -2.200894   -3.680823
     39          8           0       -5.083325   -2.719001   -4.782338
     40          6           0       -4.777533   -3.185445   -2.434690
     41          6           0       -3.771955   -4.247452   -2.787199
     42          8           0       -2.566658   -3.961968   -2.939265
     43          8           0       -4.338409   -5.456854   -2.656741
     44          6           0       -3.385353   -6.556787   -2.963312
     45          1           0       -4.387528   -1.975654    4.391922
     46          1           0       -3.581579    4.094089    3.190808
     47          1           0       -4.918076    3.134382   -2.869879
     48          1           0       -5.133909   -4.666163    0.315050
     49          1           0       -4.360587   -4.142747    2.975024
     50          1           0       -6.892805   -3.657536    1.452419
     51          1           0       -6.589017   -2.522315    2.803439
     52          1           0       -6.683146   -4.223644    3.160093
     53          1           0       -2.418549   -4.268931    1.587974
     54          1           0       -2.488033   -4.490219   -0.206093
     55          1           0       -3.991335   -6.570518    1.018422
     56          1           0       -2.709183   -6.259289    2.126156
     57          1           0       -3.351010   -1.332424    6.110860
     58          1           0       -3.537419    0.159017    6.951616
     59          1           0       -1.890203   -0.349690    6.498610
     60          1           0       -2.495945    2.091665    7.395452
     61          1           0       -1.306613    3.500123    7.221641
     62          1           0       -0.951204    1.859665    6.617066
     63          1           0       -3.512962    5.532567    1.086873
     64          1           0       -5.522661    5.022326   -1.050590
     65          1           0       -5.327195    6.613258    1.890650
     66          1           0       -6.091081    5.006619    2.143482
     67          1           0       -6.375609    5.848963    0.709441
     68          1           0       -3.582176    6.618035   -1.288384
     69          1           0       -3.822664    5.534580   -2.654450
     70          1           0       -1.816790    5.594838   -0.528533
     71          1           0       -1.544963    5.356963   -2.288140
     72          1           0       -2.126208    4.007227   -1.213395
     73          1           0       -4.922775    0.616136   -5.525163
     74          1           0       -5.291118    2.182222   -4.718464
     75          1           0       -6.522566    0.853009   -4.670575
     76          1           0       -5.771031   -3.601092   -2.269400
     77          1           0       -3.839654   -7.166817   -3.744151
     78          1           0       -3.154148   -7.040082   -2.013905
     79          1           0       -2.452198   -6.265329   -3.446648
     80         12           0        3.939289    0.682487   -0.947144
     81          6           0        4.182959   -2.353041    0.951617
     82          6           0        3.683529    2.342883    2.021397
     83          6           0        3.272011    3.313669   -2.590023
     84          6           0        3.073855   -1.272241   -3.699554
     85          7           0        3.946215   -0.024068    1.148800
     86          6           0        4.106774   -1.193084    1.750440
     87          6           0        4.270964   -1.106129    3.291555
     88          6           0        3.531413    0.298681    3.533293
     89          6           0        3.760413    0.934352    2.163562
     90          6           0        2.033842    0.160717    3.751473
     91          6           0        5.776387   -1.045647    3.729812
     92          6           0        6.020858   -1.270776    5.223565
     93          1           0        7.227331   -1.985258    5.631477
     94          7           0        4.022794    2.590090   -0.406198
     95          6           0        3.924226    3.086163    0.844992
     96          6           0        4.026299    4.547292    0.707671
     97          6           0        4.027757    4.883218   -0.742103
     98          6           0        3.747163    3.581797   -1.314521
     99          6           0        4.190363    5.465623    1.883762
    100          6           0        4.233334    6.166168   -1.489084
    101          8           0        3.955697    6.271281   -2.735958
    102          6           0        4.680793    7.321317   -0.697303
    103          7           0        3.065875    1.000046   -2.806880
    104          6           0        2.941130    2.241019   -3.309234
    105          6           0        2.541429    2.202587   -4.764965
    106          6           0        2.659577    0.668919   -5.202584
    107          6           0        3.037727    0.045653   -3.840985
    108          6           0        1.137124    2.715564   -5.083001
    109          6           0        3.554024    0.355067   -6.433084
    110          6           0        5.002382    0.636068   -6.103434
    111          7           0        3.848116   -1.430876   -1.386996
    112          6           0        3.434429   -2.033606   -2.595157
    113          6           0        3.433245   -3.494389   -2.374856
    114          6           0        3.827293   -3.640276   -1.036227
    115          6           0        4.038271   -2.359923   -0.456851
    116          6           0        3.051967   -4.479288   -3.329175
    117          6           0        4.102472   -4.585862    0.021534
    118          8           0        4.174565   -5.811973    0.093592
    119          6           0        4.222644   -3.790038    1.392163
    120          6           0        5.458371   -4.271381    2.101942
    121          8           0        6.585702   -4.063071    1.619945
    122          8           0        5.120775   -4.702875    3.330859
    123          6           0        6.314801   -5.180203    4.078052
    124          1           0        3.368021    2.934662    2.881128
    125          1           0        3.131742    4.185090   -3.233786
    126          1           0        2.910723   -1.953914   -4.537043
    127          1           0        3.770263   -1.890281    3.846695
    128          1           0        4.025879    0.876951    4.309492
    129          1           0        1.694768   -0.851755    3.589991
    130          1           0        1.569981    0.832837    3.041450
    131          1           0        1.761292    0.534430    4.742628
    132          1           0        6.135962   -0.013038    3.634102
    133          1           0        6.367378   -1.735213    3.158968
    134          1           0        5.139535   -1.685789    5.727528
    135          1           0        6.169977   -0.299289    5.701065
    136          1           0        3.988244    4.947972    2.829587
    137          1           0        3.399687    6.220385    1.812843
    138          1           0        5.159538    5.968904    1.893210
    139          1           0        3.957364    7.521936    0.089382
    140          1           0        4.857536    8.120203   -1.420086
    141          1           0        5.622124    7.061355   -0.200386
    142          1           0        3.219950    2.793368   -5.368026
    143          1           0        1.682053    0.247968   -5.480246
    144          1           0        1.130413    3.541064   -5.819601
    145          1           0        0.670044    3.027307   -4.158237
    146          1           0        0.442382    1.962100   -5.450192
    147          1           0        3.293006    1.010075   -7.267937
    148          1           0        3.461723   -0.667111   -6.784676
    149          1           0        5.088618    1.714057   -6.269535
    150          1           0        5.661213    0.080407   -6.767679
    151          1           0        5.208281    0.448395   -5.043226
    152          1           0        3.782870   -5.274372   -3.265013
    153          1           0        3.003814   -4.062537   -4.333045
    154          1           0        2.062928   -4.747451   -2.948174
    155          1           0        3.317033   -3.988478    1.966678
    156          1           0        6.105097   -6.207084    4.393063
    157          1           0        6.485981   -4.433515    4.876110
    158          1           0        7.234550   -5.313615    3.520635
 ---------------------------------------------------------------------

 SCF Done:  E(RCAM-B3LYP) =  -4069.81252277     A.U. after   19 cycles

 Excitation energies and oscillator strengths:

 Excited State   1:      Singlet-A      1.6562 eV  748.59 nm  f=0.2120  <S**2>=0.000
     309 -> 315        0.11685
     310 -> 316       -0.12142
     311 -> 313       -0.47492
     312 -> 314        0.49567
 This state for optimization and/or second-order correction.
 Total Energy, E(TD-HF/TD-DFT) =  -4069.75165716
 Copying the excited state density for this state as the 1-particle RhoCI density.

 Excited State   2:      Singlet-A      1.6849 eV  735.87 nm  f=0.4337  <S**2>=0.000
     309 -> 315       -0.12676
     310 -> 316       -0.12247
     311 -> 313        0.49436
     312 -> 314        0.47406

 Excited State   3:      Singlet-A      2.1844 eV  567.60 nm  f=0.0781  <S**2>=0.000
     309 -> 313       -0.24094
     310 -> 314        0.59583
     311 -> 315       -0.10033
     312 -> 316        0.25279

 Excited State   4:      Singlet-A      2.1892 eV  566.34 nm  f=0.1168  <S**2>=0.000
     309 -> 313        0.59433
     310 -> 314        0.23917
     311 -> 315        0.25578
     312 -> 316        0.10417

 Excited State   5:      Singlet-A      2.2346 eV  554.84 nm  f=0.0000  <S**2>=0.000
     312 -> 313        0.70700

 The electronic state is 1-A.
 Alpha  occ. eigenvalues --  -46.87916 -46.87418 -19.26339 -19.26309 -19.19115
 Alpha  occ. eigenvalues --  -19.19082 -19.19065 -19.18510 -19.18310 -19.17874
 Alpha  occ. eigenvalues --  -14.42558 -14.42274 -14.41562 -14.41101 -14.39540
 Alpha  occ. eigenvalues --  -14.39113 -14.38710 -14.38346 -10.39170 -10.39006
 Alpha  occ. eigenvalues --  -10.35705 -10.35191 -10.34523 -10.34055 -10.31757
 Alpha  occ. eigenvalues --  -10.31684 -10.31500 -10.31087 -10.31021 -10.30840
 Alpha  occ. eigenvalues --  -10.30691 -10.30646 -10.30332 -10.30136 -10.30097
 Alpha  occ. eigenvalues --  -10.30032 -10.29856 -10.29782 -10.29620 -10.29403
 Alpha  occ. eigenvalues --  -10.29171 -10.29136 -10.28783 -10.28648 -10.28629
 Alpha  occ. eigenvalues --  -10.28501 -10.28409 -10.28184 -10.28168 -10.28043
 Alpha  occ. eigenvalues --  -10.27942 -10.27841 -10.27751 -10.27751 -10.27678
 Alpha  occ. eigenvalues --  -10.27571 -10.27541 -10.27519 -10.27428 -10.27264
 Alpha  occ. eigenvalues --  -10.27264 -10.27213 -10.27202 -10.27171 -10.27092
 Alpha  occ. eigenvalues --  -10.26912 -10.26760 -10.26674 -10.26626 -10.26286
 Alpha  occ. eigenvalues --  -10.26238 -10.26189 -10.26134 -10.26011 -10.25991
 Alpha  occ. eigenvalues --  -10.25823 -10.25624 -10.25530 -10.25422 -10.25126
 Alpha  occ. eigenvalues --  -10.24979 -10.24916 -10.24628 -10.24618 -10.24466
 Alpha  occ. eigenvalues --  -10.24450  -3.16658  -3.16169  -1.91539  -1.91125
 Alpha  occ. eigenvalues --   -1.91051  -1.90968  -1.90640  -1.90476  -1.16695
 Alpha  occ. eigenvalues --   -1.16593  -1.08763  -1.08493  -1.07473  -1.06868
 Alpha  occ. eigenvalues --   -1.06767  -1.06731  -1.04691  -1.04280  -1.03877
 Alpha  occ. eigenvalues --   -1.03421  -1.03364  -1.02776  -1.02535  -1.01859
 Alpha  occ. eigenvalues --   -0.92090  -0.91776  -0.89607  -0.89234  -0.89225
 Alpha  occ. eigenvalues --   -0.89031  -0.88373  -0.88010  -0.87947  -0.87770
 Alpha  occ. eigenvalues --   -0.87509  -0.87469  -0.87435  -0.86879  -0.85047
 Alpha  occ. eigenvalues --   -0.84850  -0.84008  -0.83617  -0.83184  -0.82732
 Alpha  occ. eigenvalues --   -0.82707  -0.82494  -0.81666  -0.81436  -0.80707
 Alpha  occ. eigenvalues --   -0.80253  -0.78962  -0.78377  -0.77305  -0.76981
 Alpha  occ. eigenvalues --   -0.76959  -0.76721  -0.75998  -0.75679  -0.74984
 Alpha  occ. eigenvalues --   -0.74564  -0.72893  -0.72438  -0.71773  -0.71373
 Alpha  occ. eigenvalues --   -0.69952  -0.69482  -0.68961  -0.68665  -0.67778
 Alpha  occ. eigenvalues --   -0.67386  -0.67284  -0.67051  -0.65348  -0.65126
 Alpha  occ. eigenvalues --   -0.64954  -0.64701  -0.64550  -0.64471  -0.64354
 Alpha  occ. eigenvalues --   -0.63943  -0.62375  -0.62124  -0.60607  -0.60094
 Alpha  occ. eigenvalues --   -0.59884  -0.59637  -0.59096  -0.58760  -0.58619
 Alpha  occ. eigenvalues --   -0.58209  -0.57693  -0.57427  -0.57394  -0.56996
 Alpha  occ. eigenvalues --   -0.56449  -0.56043  -0.55976  -0.55756  -0.55678
 Alpha  occ. eigenvalues --   -0.55418  -0.55268  -0.55023  -0.54594  -0.54286
 Alpha  occ. eigenvalues --   -0.53947  -0.53800  -0.53462  -0.53332  -0.53040
 Alpha  occ. eigenvalues --   -0.53001  -0.52962  -0.52895  -0.52740  -0.52481
 Alpha  occ. eigenvalues --   -0.52478  -0.52130  -0.52054  -0.51708  -0.51539
 Alpha  occ. eigenvalues --   -0.51500  -0.51286  -0.50992  -0.50801  -0.50254
 Alpha  occ. eigenvalues --   -0.50119  -0.50083  -0.49809  -0.49629  -0.49608
 Alpha  occ. eigenvalues --   -0.49351  -0.49307  -0.49166  -0.49038  -0.48924
 Alpha  occ. eigenvalues --   -0.48693  -0.48645  -0.48550  -0.48391  -0.48159
 Alpha  occ. eigenvalues --   -0.48110  -0.47804  -0.47427  -0.47398  -0.46888
 Alpha  occ. eigenvalues --   -0.46886  -0.46612  -0.46503  -0.46473  -0.46387
 Alpha  occ. eigenvalues --   -0.46266  -0.46020  -0.45914  -0.45830  -0.45618
 Alpha  occ. eigenvalues --   -0.45294  -0.44971  -0.44709  -0.44625  -0.44374
 Alpha  occ. eigenvalues --   -0.44269  -0.44248  -0.44150  -0.44141  -0.43958
 Alpha  occ. eigenvalues --   -0.43850  -0.43751  -0.43591  -0.43459  -0.43401
 Alpha  occ. eigenvalues --   -0.43203  -0.43133  -0.42798  -0.42778  -0.42708
 Alpha  occ. eigenvalues --   -0.42685  -0.42299  -0.42061  -0.41817  -0.41757
 Alpha  occ. eigenvalues --   -0.41582  -0.41476  -0.41289  -0.41238  -0.41042
 Alpha  occ. eigenvalues --   -0.40899  -0.40810  -0.40640  -0.40562  -0.40538
 Alpha  occ. eigenvalues --   -0.40240  -0.40237  -0.40125  -0.39468  -0.39138
 Alpha  occ. eigenvalues --   -0.38535  -0.38111  -0.37776  -0.37539  -0.37408
 Alpha  occ. eigenvalues --   -0.37314  -0.37027  -0.36994  -0.36790  -0.36664
 Alpha  occ. eigenvalues --   -0.36272  -0.35996  -0.34402  -0.34020  -0.33874
 Alpha  occ. eigenvalues --   -0.33750  -0.33310  -0.32923  -0.31590  -0.31155
 Alpha  occ. eigenvalues --   -0.31070  -0.30746  -0.30163  -0.29784  -0.29616
 Alpha  occ. eigenvalues --   -0.29465  -0.29082  -0.28949  -0.24198  -0.23787
 Alpha  occ. eigenvalues --   -0.21253  -0.20865
 Alpha virt. eigenvalues --   -0.08917  -0.08541  -0.01881  -0.01436  -0.00237
 Alpha virt. eigenvalues --    0.00179   0.02057   0.02353   0.02569   0.03584
 Alpha virt. eigenvalues --    0.04653   0.04894   0.05007   0.05264   0.06173

 Mulliken charges:
               1
     1  Mg   0.838962
     2  C   -0.002706
     3  C   -0.094134
     4  C   -0.046080
     5  C   -0.064060
     6  N   -0.256944
     7  C   -0.051696
     8  C   -0.014161
     9  C   -0.086946
    10  C    0.046431
    11  C    0.104780
    12  C    0.053619
    13  C   -0.073589
    14  H    0.041025
    15  N   -0.433100
    16  C    0.168044
    17  C   -0.177481
    18  C   -0.005298
    19  C    0.148556
    20  C    0.110041
    21  C    0.010408
    22  O   -0.250279
    23  C    0.062847
    24  N   -0.341416
    25  C    0.041685
    26  C   -0.027964
    27  C   -0.024142
    28  C    0.075764
    29  C    0.076181
    30  C    0.034817
    31  C   -0.005823
    32  N   -0.310598
    33  C    0.080909
    34  C   -0.170469
    35  C    0.008144
    36  C    0.083343
    37  C    0.127417
    38  C    0.045665
    39  O   -0.188375
    40  C   -0.005178
    41  C    0.213116
    42  O   -0.258196
    43  O   -0.304563
    44  C    0.157706
    45  H   -0.017424
    46  H   -0.017440
    47  H   -0.041148
    48  H    0.001191
    49  H   -0.003520
    50  H    0.025521
    51  H    0.016133
    52  H    0.017034
    53  H    0.010945
    54  H    0.044188
    55  H    0.017220
    56  H    0.018373
    57  H    0.006685
    58  H    0.026976
    59  H    0.037509
    60  H    0.038644
    61  H    0.034463
    62  H    0.028531
    63  H    0.016046
    64  H    0.009567
    65  H    0.022938
    66  H    0.012425
    67  H    0.005086
    68  H    0.006559
    69  H    0.004771
    70  H    0.007810
    71  H    0.023566
    72  H    0.028515
    73  H    0.046676
    74  H    0.009509
    75  H    0.046573
    76  H    0.035614
    77  H    0.043137
    78  H    0.048000
    79  H    0.052939
    80  Mg   0.837345
    81  C   -0.017266
    82  C   -0.088139
    83  C   -0.045417
    84  C   -0.058721
    85  N   -0.254513
    86  C   -0.050256
    87  C   -0.014829
    88  C   -0.091184
    89  C    0.044920
    90  C    0.114246
    91  C    0.062782
    92  C   -0.077371
    93  H    0.034503
    94  N   -0.423456
    95  C    0.162049
    96  C   -0.174240
    97  C   -0.008365
    98  C    0.152012
    99  C    0.099370
   100  C    0.015027
   101  O   -0.254269
   102  C    0.061308
   103  N   -0.349928
   104  C    0.037523
   105  C   -0.020360
   106  C   -0.035835
   107  C    0.088576
   108  C    0.072648
   109  C    0.034524
   110  C   -0.007508
   111  N   -0.324683
   112  C    0.078071
   113  C   -0.159118
   114  C    0.001457
   115  C    0.096843
   116  C    0.130937
   117  C    0.042417
   118  O   -0.189661
   119  C    0.000860
   120  C    0.211019
   121  O   -0.250865
   122  O   -0.306300
   123  C    0.152161
   124  H   -0.018872
   125  H   -0.016550
   126  H   -0.037462
   127  H   -0.002705
   128  H   -0.005026
   129  H    0.021633
   130  H    0.018733
   131  H    0.011213
   132  H    0.014368
   133  H    0.037774
   134  H    0.019064
   135  H    0.019461
   136  H    0.009102
   137  H    0.027005
   138  H    0.038745
   139  H    0.038356
   140  H    0.035497
   141  H    0.033753
   142  H    0.013533
   143  H    0.017885
   144  H    0.022972
   145  H    0.011121
   146  H    0.008945
   147  H    0.005866
   148  H    0.004868
   149  H    0.010203
   150  H    0.017367
   151  H    0.029698
   152  H    0.043438
   153  H    0.009187
   154  H    0.053769
   155  H    0.033129
   156  H    0.042983
   157  H    0.049045
   158  H    0.053723
 Sum of Mulliken charges =  -0.00000

 Dipole moment (field-independent basis, Debye):
    X=             -2.7854    Y=              1.6873    Z=              6.5048  Tot=              7.2745
 Quadrupole moment (field-independent basis, Debye-Ang):
   XX=           -519.6062   YY=           -517.7122   ZZ=           -482.0295
   XY=             18.2609   XZ=              1.9871   YZ=            -18.4572

 Normal termination of Gaussian 16 at Thu Sep  9 02:44:59 2021.
