 Gaussian 16, Revision A.03,
 Gaussian 16:  ES64L-G16RevA.03 25-Dec-2016

 -----------------------------------
 #p cam-b3lyp/Def2SVP td=(nstates=5)
 -----------------------------------

 --------------------------------
 TDDFT excited states in gaussian
 --------------------------------
 Symbolic Z-matrix:
 Charge =  0 Multiplicity = 1

                         Standard orientation:
 ---------------------------------------------------------------------
 Center     Atomic      Atomic             Coordinates (Angstroms)
 Number     Number       Type             X           Y           Z
 ---------------------------------------------------------------------
      1         12           0        6.792551   -0.524654    0.479421
      2          6           0        7.037830    2.518064   -1.389781
      3          6           0        7.463138    1.313174    3.275090
      4          6           0        7.030727   -3.250662    2.082161
      5          6           0        7.269773   -2.233041   -2.520468
      6          7           0        7.180735    1.634404    0.776790
      7          6           0        7.187167    2.703285   -0.013541
      8          6           0        7.292032    4.047834    0.766565
      9          6           0        7.979546    3.511465    2.101343
     10          6           0        7.483969    2.076422    2.070079
     11          6           0        9.503667    3.506173    2.041933
     12          6           0        5.888188    4.677046    1.058188
     13          6           0        5.909849    6.136469    1.521835
     14          1           0        4.837413    7.022701    1.095427
     15          7           0        6.705718   -0.881377    2.420570
     16          6           0        6.997410   -0.011836    3.417616
     17          6           0        6.779431   -0.750907    4.679734
     18          6           0        6.520726   -2.176157    4.333571
     19          6           0        6.771187   -2.164741    2.914939
     20          6           0        6.779826   -0.096419    6.027100
     21          6           0        6.122754   -3.362713    5.153226
     22          8           0        6.177109   -4.555045    4.695007
     23          6           0        5.746905   -3.097473    6.553736
     24          7           0        7.323431   -2.462699   -0.086072
     25          6           0        7.288742   -3.471516    0.791464
     26          6           0        7.430681   -4.797560    0.104878
     27          6           0        7.326043   -4.498477   -1.460162
     28          6           0        7.217755   -2.954855   -1.398708
     29          6           0        8.728904   -5.564413    0.392219
     30          6           0        6.251966   -5.282129   -2.255567
     31          6           0        4.870952   -4.846877   -1.819156
     32          7           0        6.924741    0.005333   -1.621218
     33          6           0        7.148744   -0.864919   -2.697860
     34          6           0        7.266028   -0.032347   -3.909114
     35          6           0        7.117665    1.274091   -3.447536
     36          6           0        6.946433    1.260337   -2.033753
     37          6           0        7.539935   -0.505909   -5.222562
     38          6           0        7.088577    2.680088   -3.816566
     39          8           0        7.088323    3.296918   -4.882874
     40          6           0        7.157606    3.549377   -2.484126
     41          6           0        6.090202    4.605665   -2.574764
     42          8           0        4.881255    4.296584   -2.558005
     43          8           0        6.649413    5.816533   -2.427716
     44          6           0        5.640599    6.908277   -2.478140
     45          1           0        7.895750    1.743880    4.180231
     46          1           0        7.010909   -4.222048    2.580614
     47          1           0        7.334657   -2.701841   -3.504068
     48          1           0        7.927754    4.797992    0.295880
     49          1           0        7.603152    4.023136    2.986918
     50          1           0        9.864280    3.750889    1.042937
     51          1           0        9.802164    2.494428    2.317187
     52          1           0        9.923381    4.160790    2.806193
     53          1           0        5.460771    4.207284    1.944021
     54          1           0        5.235871    4.584497    0.189141
     55          1           0        6.881167    6.597732    1.341044
     56          1           0        5.800226    6.151987    2.606243
     57          1           0        7.161571    0.922566    5.977253
     58          1           0        7.506887   -0.629201    6.639664
     59          1           0        5.799644   -0.135398    6.502554
     60          1           0        6.584113   -2.624717    7.067674
     61          1           0        5.406711   -4.049656    6.959279
     62          1           0        4.930209   -2.375177    6.569414
     63          1           0        6.628243   -5.475226    0.393474
     64          1           0        8.257403   -4.719648   -1.982009
     65          1           0        8.566751   -6.563588    0.797263
     66          1           0        9.333703   -4.961499    1.068979
     67          1           0        9.397406   -5.667705   -0.462095
     68          1           0        6.331705   -6.349158   -2.050536
     69          1           0        6.329821   -5.144938   -3.334162
     70          1           0        4.694836   -5.451316   -0.930074
     71          1           0        4.138433   -5.071294   -2.595213
     72          1           0        4.862284   -3.801628   -1.509535
     73          1           0        6.867302    0.034847   -5.888232
     74          1           0        7.387922   -1.582592   -5.295012
     75          1           0        8.587912   -0.224384   -5.324264
     76          1           0        8.157462    3.980270   -2.442412
     77          1           0        5.952316    7.597341   -3.263160
     78          1           0        5.557439    7.300409   -1.464373
     79          1           0        4.646800    6.630367   -2.830943
     80         12           0       -6.406054   -0.814691   -0.292971
     81          6           0       -8.970856    1.599833    0.393205
     82          6           0       -4.334452    1.804500   -0.987876
     83          6           0       -4.266398   -2.912605   -1.336102
     84          6           0       -8.931743   -3.188133   -0.658183
     85          7           0       -6.726895    1.373565   -0.264416
     86          6           0       -7.724696    2.177100    0.071849
     87          6           0       -7.344457    3.680493    0.141097
     88          6           0       -6.079694    3.654461   -0.848121
     89          6           0       -5.658693    2.197366   -0.668305
     90          6           0       -6.451482    3.867760   -2.306075
     91          6           0       -6.932968    4.126938    1.587949
     92          6           0       -6.848076    5.640892    1.794072
     93          1           0       -7.246778    6.190774    3.086801
     94          7           0       -4.451508   -0.621944   -0.577862
     95          6           0       -3.773826    0.518565   -0.825353
     96          6           0       -2.364878    0.124181   -0.978678
     97          6           0       -2.289654   -1.362051   -0.965066
     98          6           0       -3.699381   -1.697501   -0.980368
     99          6           0       -1.243177    1.119916   -1.039617
    100          6           0       -1.139218   -2.322557   -0.954603
    101          8           0       -1.303753   -3.572779   -1.184207
    102          6           0        0.197561   -1.742282   -0.760158
    103          7           0       -6.580503   -2.716116   -1.115478
    104          6           0       -5.489349   -3.434215   -1.434303
    105          6           0       -5.851300   -4.866356   -1.747875
    106          6           0       -7.389033   -5.020780   -1.336628
    107          6           0       -7.687563   -3.563376   -0.921595
    108          6           0       -5.668535   -5.295256   -3.203569
    109          6           0       -7.740193   -6.159683   -0.340512
    110          6           0       -7.144563   -5.860468    1.016352
    111          7           0       -8.543661   -0.871362    0.016022
    112          6           0       -9.411509   -1.959374   -0.223018
    113          6           0      -10.787218   -1.481662    0.025269
    114          6           0      -10.624863   -0.131875    0.371976
    115          6           0       -9.247139    0.212979    0.322268
    116          6           0      -11.975101   -2.251104   -0.126414
    117          6           0      -11.306664    1.082431    0.758374
    118          8           0      -12.467364    1.373657    1.044214
    119          6           0      -10.278029    2.290681    0.666467
    120          6           0      -10.393665    3.096377    1.931376
    121          8           0      -10.067531    2.604555    3.026069
    122          8           0      -10.661396    4.376572    1.615446
    123          6           0      -10.774382    5.217627    2.836785
    124          1           0       -3.671658    2.539045   -1.446161
    125          1           0       -3.560094   -3.704050   -1.597288
    126          1           0       -9.765871   -3.893041   -0.655348
    127          1           0       -8.099710    4.358035   -0.238764
    128          1           0       -5.295150    4.323291   -0.503866
    129          1           0       -7.521499    3.883930   -2.450776
    130          1           0       -6.009066    3.041127   -2.846441
    131          1           0       -5.969104    4.771303   -2.689807
    132          1           0       -5.884037    3.854519    1.761991
    133          1           0       -7.589783    3.698834    2.320032
    134          1           0       -7.325107    6.195533    0.976904
    135          1           0       -5.798210    5.939644    1.743697
    136          1           0       -1.618152    2.139360   -1.192992
    137          1           0       -0.670764    0.901569   -1.947660
    138          1           0       -0.575998    1.056096   -0.177378
    139          1           0        0.394096   -1.016778   -1.545955
    140          1           0        0.878464   -2.593009   -0.692956
    141          1           0        0.205166   -1.190660    0.186558
    142          1           0       -5.258660   -5.553415   -1.156423
    143          1           0       -8.024362   -5.235669   -2.208416
    144          1           0       -4.998063   -6.167509   -3.320698
    145          1           0       -5.293422   -4.449325   -3.764121
    146          1           0       -6.588951   -5.533902   -3.733733
    147          1           0       -7.298487   -7.102546   -0.672288
    148          1           0       -8.806928   -6.324530   -0.231522
    149          1           0       -6.114245   -6.215003    0.917192
    150          1           0       -7.675434   -6.403211    1.795871
    151          1           0       -7.105338   -4.780380    1.199442
    152          1           0      -12.598703   -2.033237    0.730409
    153          1           0      -11.753887   -3.313976   -0.198114
    154          1           0      -12.351087   -1.845545   -1.069504
    155          1           0      -10.537795    2.875609   -0.216680
    156          1           0      -11.752316    5.707369    2.798108
    157          1           0       -9.882659    5.872282    2.832238
    158          1           0      -10.830174    4.709074    3.792143
 ---------------------------------------------------------------------

 SCF Done:  E(RCAM-B3LYP) =  -4069.81224736     A.U. after   19 cycles

 Excitation energies and oscillator strengths:

 Excited State   1:      Singlet-A      1.6717 eV  741.68 nm  f=0.3336  <S**2>=0.000
     310 -> 316        0.14174
     311 -> 313        0.39278
     312 -> 314        0.56268
 This state for optimization and/or second-order correction.
 Total Energy, E(TD-HF/TD-DFT) =  -4069.75081485
 Copying the excited state density for this state as the 1-particle RhoCI density.

 Excited State   2:      Singlet-A      1.6826 eV  736.88 nm  f=0.4532  <S**2>=0.000
     309 -> 315        0.14481
     310 -> 316       -0.10031
     311 -> 313        0.56213
     312 -> 314       -0.39257

 Excited State   3:      Singlet-A      2.1869 eV  566.95 nm  f=0.0334  <S**2>=0.000
     309 -> 313       -0.22996
     310 -> 314        0.60035
     312 -> 316       -0.25524

 Excited State   4:      Singlet-A      2.1951 eV  564.83 nm  f=0.1537  <S**2>=0.000
     309 -> 313        0.59805
     310 -> 314        0.22819
     311 -> 315       -0.26147

 Excited State   5:      Singlet-A      2.6012 eV  476.65 nm  f=0.0000  <S**2>=0.000
     312 -> 313        0.70690

 The electronic state is 1-A.
 Alpha  occ. eigenvalues --  -46.87963 -46.87519 -19.26547 -19.26267 -19.19300
 Alpha  occ. eigenvalues --  -19.19072 -19.18918 -19.18537 -19.18350 -19.17923
 Alpha  occ. eigenvalues --  -14.42615 -14.42356 -14.41591 -14.41219 -14.39561
 Alpha  occ. eigenvalues --  -14.39204 -14.38756 -14.38459 -10.39348 -10.38998
 Alpha  occ. eigenvalues --  -10.35548 -10.35212 -10.34575 -10.34103 -10.31952
 Alpha  occ. eigenvalues --  -10.31692 -10.31577 -10.31171 -10.31079 -10.30871
 Alpha  occ. eigenvalues --  -10.30734 -10.30657 -10.30324 -10.30261 -10.30215
 Alpha  occ. eigenvalues --  -10.30053 -10.29990 -10.29779 -10.29770 -10.29398
 Alpha  occ. eigenvalues --  -10.29275 -10.29239 -10.28949 -10.28788 -10.28593
 Alpha  occ. eigenvalues --  -10.28576 -10.28532 -10.28296 -10.28253 -10.28001
 Alpha  occ. eigenvalues --  -10.27947 -10.27883 -10.27848 -10.27730 -10.27608
 Alpha  occ. eigenvalues --  -10.27571 -10.27557 -10.27512 -10.27512 -10.27400
 Alpha  occ. eigenvalues --  -10.27359 -10.27344 -10.27298 -10.27261 -10.27134
 Alpha  occ. eigenvalues --  -10.26958 -10.26933 -10.26593 -10.26488 -10.26390
 Alpha  occ. eigenvalues --  -10.26186 -10.26177 -10.26151 -10.26036 -10.25979
 Alpha  occ. eigenvalues --  -10.25874 -10.25793 -10.25734 -10.25490 -10.25290
 Alpha  occ. eigenvalues --  -10.24995 -10.24925 -10.24726 -10.24635 -10.24629
 Alpha  occ. eigenvalues --  -10.24551  -3.16708  -3.16269  -1.91590  -1.91175
 Alpha  occ. eigenvalues --   -1.91152  -1.91018  -1.90740  -1.90577  -1.16897
 Alpha  occ. eigenvalues --   -1.16559  -1.08816  -1.08536  -1.07315  -1.06916
 Alpha  occ. eigenvalues --   -1.06855  -1.06789  -1.04748  -1.04352  -1.03906
 Alpha  occ. eigenvalues --   -1.03521  -1.03388  -1.02896  -1.02564  -1.01968
 Alpha  occ. eigenvalues --   -0.92145  -0.91851  -0.89619  -0.89374  -0.89364
 Alpha  occ. eigenvalues --   -0.89020  -0.88377  -0.88096  -0.88023  -0.87832
 Alpha  occ. eigenvalues --   -0.87658  -0.87541  -0.87405  -0.86912  -0.85160
 Alpha  occ. eigenvalues --   -0.84867  -0.84016  -0.83759  -0.83063  -0.82809
 Alpha  occ. eigenvalues --   -0.82747  -0.82501  -0.81780  -0.81483  -0.80762
 Alpha  occ. eigenvalues --   -0.80310  -0.78937  -0.78452  -0.77358  -0.77100
 Alpha  occ. eigenvalues --   -0.76997  -0.76782  -0.76098  -0.75698  -0.75002
 Alpha  occ. eigenvalues --   -0.74675  -0.72918  -0.72554  -0.71819  -0.71446
 Alpha  occ. eigenvalues --   -0.69955  -0.69641  -0.69039  -0.68689  -0.67795
 Alpha  occ. eigenvalues --   -0.67462  -0.67402  -0.67060  -0.65470  -0.65144
 Alpha  occ. eigenvalues --   -0.65019  -0.64775  -0.64637  -0.64528  -0.64370
 Alpha  occ. eigenvalues --   -0.64078  -0.62495  -0.62168  -0.60566  -0.60162
 Alpha  occ. eigenvalues --   -0.59980  -0.59659  -0.59137  -0.58858  -0.58657
 Alpha  occ. eigenvalues --   -0.58288  -0.57786  -0.57438  -0.57437  -0.57094
 Alpha  occ. eigenvalues --   -0.56465  -0.56193  -0.56049  -0.55769  -0.55663
 Alpha  occ. eigenvalues --   -0.55466  -0.55296  -0.55131  -0.54668  -0.54379
 Alpha  occ. eigenvalues --   -0.54084  -0.53783  -0.53434  -0.53386  -0.53093
 Alpha  occ. eigenvalues --   -0.53085  -0.52995  -0.52895  -0.52774  -0.52474
 Alpha  occ. eigenvalues --   -0.52465  -0.52288  -0.52064  -0.51795  -0.51760
 Alpha  occ. eigenvalues --   -0.51510  -0.51347  -0.51073  -0.50680  -0.50256
 Alpha  occ. eigenvalues --   -0.50124  -0.50036  -0.49813  -0.49722  -0.49671
 Alpha  occ. eigenvalues --   -0.49377  -0.49330  -0.49265  -0.49046  -0.48975
 Alpha  occ. eigenvalues --   -0.48773  -0.48590  -0.48562  -0.48426  -0.48255
 Alpha  occ. eigenvalues --   -0.48161  -0.47837  -0.47438  -0.47435  -0.46940
 Alpha  occ. eigenvalues --   -0.46933  -0.46738  -0.46574  -0.46505  -0.46418
 Alpha  occ. eigenvalues --   -0.46305  -0.46115  -0.46000  -0.45957  -0.45707
 Alpha  occ. eigenvalues --   -0.45296  -0.45081  -0.44748  -0.44637  -0.44386
 Alpha  occ. eigenvalues --   -0.44338  -0.44282  -0.44228  -0.44170  -0.43992
 Alpha  occ. eigenvalues --   -0.43936  -0.43767  -0.43677  -0.43534  -0.43444
 Alpha  occ. eigenvalues --   -0.43253  -0.43176  -0.42923  -0.42821  -0.42769
 Alpha  occ. eigenvalues --   -0.42732  -0.42414  -0.42120  -0.41858  -0.41846
 Alpha  occ. eigenvalues --   -0.41700  -0.41538  -0.41333  -0.41291  -0.41022
 Alpha  occ. eigenvalues --   -0.40948  -0.40852  -0.40662  -0.40587  -0.40545
 Alpha  occ. eigenvalues --   -0.40440  -0.40373  -0.40102  -0.39472  -0.39312
 Alpha  occ. eigenvalues --   -0.38572  -0.38230  -0.37951  -0.37539  -0.37450
 Alpha  occ. eigenvalues --   -0.37432  -0.37138  -0.37062  -0.36931  -0.36676
 Alpha  occ. eigenvalues --   -0.36351  -0.36098  -0.34445  -0.34115  -0.34031
 Alpha  occ. eigenvalues --   -0.33763  -0.33346  -0.33034  -0.31449  -0.31187
 Alpha  occ. eigenvalues --   -0.31100  -0.30831  -0.30213  -0.29831  -0.29599
 Alpha  occ. eigenvalues --   -0.29484  -0.29163  -0.29063  -0.24239  -0.23896
 Alpha  occ. eigenvalues --   -0.21278  -0.20969
 Alpha virt. eigenvalues --   -0.08925  -0.08639  -0.01894  -0.01541  -0.00200
 Alpha virt. eigenvalues --    0.00139   0.02041   0.02341   0.02778   0.03348
 Alpha virt. eigenvalues --    0.04544   0.04844   0.04860   0.05262   0.05958

 Mulliken charges:
               1
     1  Mg   0.836197
     2  C   -0.004030
     3  C   -0.094425
     4  C   -0.045367
     5  C   -0.063401
     6  N   -0.256881
     7  C   -0.053000
     8  C   -0.013789
     9  C   -0.086907
    10  C    0.045957
    11  C    0.104706
    12  C    0.053509
    13  C   -0.071601
    14  H    0.034902
    15  N   -0.433376
    16  C    0.168179
    17  C   -0.177194
    18  C   -0.003762
    19  C    0.148522
    20  C    0.110107
    21  C    0.012547
    22  O   -0.248626
    23  C    0.062421
    24  N   -0.341206
    25  C    0.041335
    26  C   -0.028309
    27  C   -0.024142
    28  C    0.074858
    29  C    0.076030
    30  C    0.034865
    31  C   -0.004968
    32  N   -0.310316
    33  C    0.079760
    34  C   -0.169880
    35  C    0.008173
    36  C    0.081991
    37  C    0.127399
    38  C    0.045442
    39  O   -0.188696
    40  C   -0.005043
    41  C    0.213270
    42  O   -0.259315
    43  O   -0.304216
    44  C    0.157899
    45  H   -0.017294
    46  H   -0.015963
    47  H   -0.040845
    48  H    0.001114
    49  H   -0.004056
    50  H    0.025614
    51  H    0.016824
    52  H    0.016981
    53  H    0.010653
    54  H    0.042504
    55  H    0.018598
    56  H    0.018341
    57  H    0.005854
    58  H    0.027372
    59  H    0.039699
    60  H    0.037424
    61  H    0.036513
    62  H    0.031375
    63  H    0.017619
    64  H    0.009570
    65  H    0.023845
    66  H    0.012334
    67  H    0.004979
    68  H    0.007179
    69  H    0.004717
    70  H    0.010259
    71  H    0.021472
    72  H    0.026499
    73  H    0.047164
    74  H    0.009727
    75  H    0.046282
    76  H    0.035559
    77  H    0.043471
    78  H    0.046526
    79  H    0.052377
    80  Mg   0.837438
    81  C   -0.016888
    82  C   -0.087694
    83  C   -0.045532
    84  C   -0.064960
    85  N   -0.254525
    86  C   -0.050220
    87  C   -0.015093
    88  C   -0.090386
    89  C    0.045485
    90  C    0.114270
    91  C    0.062587
    92  C   -0.077585
    93  H    0.033991
    94  N   -0.423631
    95  C    0.162587
    96  C   -0.174004
    97  C   -0.007739
    98  C    0.152260
    99  C    0.098877
   100  C    0.015509
   101  O   -0.253765
   102  C    0.059867
   103  N   -0.350056
   104  C    0.037686
   105  C   -0.019885
   106  C   -0.034641
   107  C    0.088627
   108  C    0.073719
   109  C    0.034837
   110  C   -0.007608
   111  N   -0.323958
   112  C    0.078022
   113  C   -0.163532
   114  C    0.002057
   115  C    0.095878
   116  C    0.131578
   117  C    0.042061
   118  O   -0.188588
   119  C    0.001003
   120  C    0.211189
   121  O   -0.251282
   122  O   -0.305577
   123  C    0.152165
   124  H   -0.018186
   125  H   -0.015724
   126  H   -0.040894
   127  H   -0.000883
   128  H   -0.004183
   129  H    0.022170
   130  H    0.014932
   131  H    0.016652
   132  H    0.013788
   133  H    0.037387
   134  H    0.020834
   135  H    0.019521
   136  H    0.010009
   137  H    0.030485
   138  H    0.039999
   139  H    0.041821
   140  H    0.036360
   141  H    0.033156
   142  H    0.014230
   143  H    0.012171
   144  H    0.024788
   145  H    0.011931
   146  H    0.005497
   147  H    0.005952
   148  H    0.003415
   149  H    0.010893
   150  H    0.017583
   151  H    0.030206
   152  H    0.045564
   153  H    0.008205
   154  H    0.046647
   155  H    0.034867
   156  H    0.043672
   157  H    0.049380
   158  H    0.053300
 Sum of Mulliken charges =  -0.00000

 Dipole moment (field-independent basis, Debye):
    X=              5.4167    Y=              2.7648    Z=              2.0845  Tot=              6.4288
 Quadrupole moment (field-independent basis, Debye-Ang):
   XX=           -552.6157   YY=           -470.8805   ZZ=           -514.3434
   XY=             15.0300   XZ=             50.8081   YZ=             36.4086

 Normal termination of Gaussian 16 at Sat Sep 11 03:09:18 2021.
