 Gaussian 16, Revision A.03,
 Gaussian 16:  ES64L-G16RevA.03 25-Dec-2016

 -----------------------------------
 #p cam-b3lyp/Def2SVP td=(nstates=5)
 -----------------------------------

 --------------------------------
 TDDFT excited states in gaussian
 --------------------------------
 Symbolic Z-matrix:
 Charge =  0 Multiplicity = 1

                         Standard orientation:
 ---------------------------------------------------------------------
 Center     Atomic      Atomic             Coordinates (Angstroms)
 Number     Number       Type             X           Y           Z
 ---------------------------------------------------------------------
      1         12           0        8.142982    0.368302    0.132524
      2          6           0        8.204836   -3.090966   -0.785000
      3          6           0        9.001878    1.085223   -3.091044
      4          6           0        8.538598    3.385912    1.023670
      5          6           0        8.411099   -0.659439    3.451789
      6          7           0        8.524760   -0.925160   -1.622995
      7          6           0        8.456755   -2.231973   -1.857059
      8          6           0        8.603623   -2.598128   -3.364287
      9          6           0        9.398278   -1.308039   -3.860465
     10          6           0        8.920424   -0.312585   -2.818040
     11          6           0       10.913308   -1.445778   -3.749945
     12          6           0        7.218201   -2.728839   -4.082096
     13          6           0        7.256381   -3.397563   -5.459305
     14          1           0        6.143021   -4.245876   -5.856977
     15          7           0        8.209755    2.023729   -0.943558
     16          6           0        8.565670    2.128903   -2.246459
     17          6           0        8.454633    3.564148   -2.584722
     18          6           0        8.188683    4.309708   -1.323173
     19          6           0        8.329553    3.259111   -0.347581
     20          6           0        8.549760    4.089405   -3.984296
     21          6           0        7.870106    5.743876   -1.040680
     22          8           0        7.904661    6.228088    0.142079
     23          6           0        7.599247    6.599347   -2.210230
     24          7           0        8.654079    1.256542    1.951162
     25          6           0        8.699815    2.587012    2.080558
     26          6           0        8.805930    2.992195    3.520872
     27          6           0        8.577825    1.660903    4.372566
     28          6           0        8.454544    0.651667    3.204442
     29          6           0       10.132191    3.643267    3.936980
     30          6           0        7.456226    1.693131    5.440928
     31          6           0        6.107175    1.799000    4.765688
     32          7           0        8.106961   -1.524525    1.194104
     33          6           0        8.259094   -1.720098    2.574423
     34          6           0        8.272424   -3.176286    2.805524
     35          6           0        8.142921   -3.730407    1.533509
     36          6           0        8.080698   -2.686828    0.566367
     37          6           0        8.451021   -3.819028    4.062274
     38          6           0        8.067406   -4.961704    0.764054
     39          8           0        7.977456   -6.157169    1.047366
     40          6           0        8.227027   -4.599279   -0.778346
     41          6           0        7.142202   -5.321793   -1.529635
     42          8           0        5.942204   -5.019242   -1.368906
     43          8           0        7.695276   -6.083526   -2.485884
     44          6           0        6.671483   -6.805085   -3.287978
     45          1           0        9.496938    1.416338   -4.006040
     46          1           0        8.569631    4.415380    1.386535
     47          1           0        8.406514   -1.053268    4.469792
     48          1           0        9.191629   -3.495243   -3.558858
     49          1           0        9.084229   -0.994496   -4.855847
     50          1           0       11.193120   -2.360130   -3.226890
     51          1           0       11.245118   -0.570642   -3.190900
     52          1           0       11.381811   -1.369638   -4.731518
     53          1           0        6.866037   -1.737425   -4.366949
     54          1           0        6.502478   -3.252017   -3.446998
     55          1           0        8.204927   -3.908046   -5.628348
     56          1           0        7.229967   -2.616424   -6.219124
     57          1           0        8.913310    3.328498   -4.673786
     58          1           0        9.328465    4.851852   -3.985996
     59          1           0        7.609473    4.523521   -4.324497
     60          1           0        8.467164    6.592360   -2.869941
     61          1           0        7.303506    7.569067   -1.811443
     62          1           0        6.776850    6.167087   -2.780986
     63          1           0        8.036820    3.718491    3.780470
     64          1           0        9.469260    1.375129    4.931450
     65          1           0       10.014524    4.633423    4.377945
     66          1           0       10.779187    3.679669    3.060988
     67          1           0       10.734561    3.052873    4.626909
     68          1           0        7.565277    2.569560    6.078836
     69          1           0        7.449432    0.813316    6.084457
     70          1           0        6.007549    2.869087    4.587306
     71          1           0        5.320327    1.438904    5.429323
     72          1           0        6.108692    1.305374    3.793671
     73          1           0        7.722406   -4.628896    4.096961
     74          1           0        8.307887   -3.121802    4.887496
     75          1           0        9.484385   -4.153722    3.972861
     76          1           0        9.221466   -4.929722   -1.076710
     77          1           0        6.913176   -7.866771   -3.236579
     78          1           0        6.661154   -6.335564   -4.271771
     79          1           0        5.657267   -6.805273   -2.887100
     80         12           0       -7.729681    0.961223    0.346459
     81          6           0       -9.712364   -2.022294    0.130449
     82          6           0       -9.019265    1.858420   -2.681182
     83          6           0       -5.666155    3.370875    0.293055
     84          6           0       -5.781639   -0.672364    2.730205
     85          7           0       -9.171682   -0.036203   -1.001879
     86          6           0       -9.906170   -1.137217   -0.950530
     87          6           0      -10.961880   -1.259465   -2.081937
     88          6           0      -10.257641   -0.312747   -3.171268
     89          6           0       -9.456817    0.586833   -2.232060
     90          6           0       -9.281933   -1.052930   -4.070962
     91          6           0      -12.363766   -0.699117   -1.654460
     92          6           0      -13.515959   -1.065173   -2.592665
     93          1           0      -14.832293   -1.317457   -2.012933
     94          7           0       -7.731344    2.629891   -0.727829
     95          6           0       -8.324086    2.826893   -1.924132
     96          6           0       -8.014690    4.214353   -2.302808
     97          6           0       -7.053625    4.768183   -1.310668
     98          6           0       -6.757241    3.578397   -0.538219
     99          6           0       -8.673459    4.908339   -3.459451
    100          6           0       -6.484441    6.138653   -1.100812
    101          8           0       -5.483875    6.340760   -0.325654
    102          6           0       -7.073023    7.222555   -1.900934
    103          7           0       -5.854827    1.231248    1.203404
    104          6           0       -5.193801    2.394279    1.067939
    105          6           0       -4.001566    2.455008    1.992752
    106          6           0       -4.139421    1.185381    2.955366
    107          6           0       -5.394276    0.532647    2.335164
    108          6           0       -2.631862    2.432891    1.314654
    109          6           0       -4.126807    1.457017    4.484659
    110          6           0       -5.372797    2.213895    4.884690
    111          7           0       -7.827004   -0.914264    1.414697
    112          6           0       -6.893378   -1.412941    2.349431
    113          6           0       -7.330496   -2.775412    2.716891
    114          6           0       -8.484490   -2.985329    1.947006
    115          6           0       -8.736591   -1.842690    1.140581
    116          6           0       -6.656900   -3.651584    3.613954
    117          6           0       -9.540715   -3.917842    1.625263
    118          8           0       -9.893695   -5.013874    2.058669
    119          6           0      -10.311246   -3.385221    0.341135
    120          6           0      -11.787426   -3.466662    0.618194
    121          8           0      -12.304648   -2.760263    1.501416
    122          8           0      -12.376718   -4.198883   -0.344588
    123          6           0      -13.843398   -4.299192   -0.119569
    124          1           0       -9.186230    2.125666   -3.725011
    125          1           0       -4.982758    4.217177    0.394206
    126          1           0       -5.283069   -1.209555    3.539855
    127          1           0      -11.085325   -2.258701   -2.482025
    128          1           0      -10.991789    0.269026   -3.722567
    129          1           0       -9.134291   -2.073836   -3.751447
    130          1           0       -8.352959   -0.500766   -4.014648
    131          1           0       -9.607614   -0.989348   -5.113189
    132          1           0      -12.364476    0.392086   -1.772890
    133          1           0      -12.604378   -0.998297   -0.652848
    134          1           0      -13.242086   -1.867820   -3.288143
    135          1           0      -13.722243   -0.208917   -3.239423
    136          1           0       -9.209293    4.198842   -4.102027
    137          1           0       -7.872402    5.299700   -4.095860
    138          1           0       -9.311955    5.736795   -3.145388
    139          1           0       -6.965846    6.990398   -2.957849
    140          1           0       -6.597012    8.138948   -1.546639
    141          1           0       -8.148487    7.264759   -1.695472
    142          1           0       -4.023840    3.355767    2.593773
    143          1           0       -3.312391    0.474355    2.812918
    144          1           0       -2.002356    3.305010    1.573901
    145          1           0       -2.781589    2.376644    0.244627
    146          1           0       -2.033542    1.544869    1.511195
    147          1           0       -3.278749    2.093344    4.749283
    148          1           0       -4.051746    0.555121    5.082935
    149          1           0       -5.112949    3.252862    4.660861
    150          1           0       -5.579745    2.078287    5.944324
    151          1           0       -6.220963    1.941290    4.245976
    152          1           0       -7.416700   -4.101401    4.239152
    153          1           0       -5.915929   -3.120139    4.207497
    154          1           0       -6.195034   -4.341567    2.902711
    155          1           0      -10.017514   -4.013015   -0.500996
    156          1           0      -14.090478   -5.365011   -0.093588
    157          1           0      -14.310358   -3.693206   -0.918616
    158          1           0      -14.227092   -3.969709    0.838899
 ---------------------------------------------------------------------

 SCF Done:  E(RCAM-B3LYP) =  -4069.81177297     A.U. after   19 cycles

 Excitation energies and oscillator strengths:

 Excited State   1:      Singlet-A      1.6696 eV  742.59 nm  f=0.0186  <S**2>=0.000
     309 -> 315       -0.10233
     310 -> 316       -0.13878
     311 -> 313       -0.40599
     312 -> 314        0.55342
 This state for optimization and/or second-order correction.
 Total Energy, E(TD-HF/TD-DFT) =  -4069.75041595
 Copying the excited state density for this state as the 1-particle RhoCI density.

 Excited State   2:      Singlet-A      1.6854 eV  735.62 nm  f=0.7376  <S**2>=0.000
     309 -> 315        0.14274
     310 -> 316       -0.10418
     311 -> 313        0.55259
     312 -> 314        0.40545

 Excited State   3:      Singlet-A      2.1855 eV  567.30 nm  f=0.0844  <S**2>=0.000
     310 -> 314        0.63550
     312 -> 316        0.26974

 Excited State   4:      Singlet-A      2.1931 eV  565.34 nm  f=0.1138  <S**2>=0.000
     309 -> 313        0.63357
     311 -> 315       -0.27543

 Excited State   5:      Singlet-A      2.7692 eV  447.73 nm  f=0.0000  <S**2>=0.000
     312 -> 313        0.70702

 The electronic state is 1-A.
 Alpha  occ. eigenvalues --  -46.87811 -46.87584 -19.26295 -19.26291 -19.19100
 Alpha  occ. eigenvalues --  -19.19034 -19.18814 -19.18653 -19.18180 -19.17977
 Alpha  occ. eigenvalues --  -14.42464 -14.42424 -14.41464 -14.41278 -14.39415
 Alpha  occ. eigenvalues --  -14.39278 -14.38602 -14.38523 -10.39093 -10.39029
 Alpha  occ. eigenvalues --  -10.35446 -10.35332 -10.34400 -10.34154 -10.31705
 Alpha  occ. eigenvalues --  -10.31687 -10.31420 -10.31235 -10.30957 -10.30920
 Alpha  occ. eigenvalues --  -10.30584 -10.30521 -10.30319 -10.30284 -10.30220
 Alpha  occ. eigenvalues --  -10.30059 -10.29936 -10.29808 -10.29642 -10.29362
 Alpha  occ. eigenvalues --  -10.29326 -10.29266 -10.28762 -10.28660 -10.28610
 Alpha  occ. eigenvalues --  -10.28554 -10.28377 -10.28333 -10.28129 -10.28080
 Alpha  occ. eigenvalues --  -10.27925 -10.27804 -10.27740 -10.27597 -10.27594
 Alpha  occ. eigenvalues --  -10.27520 -10.27486 -10.27465 -10.27416 -10.27416
 Alpha  occ. eigenvalues --  -10.27415 -10.27410 -10.27395 -10.27275 -10.27170
 Alpha  occ. eigenvalues --  -10.26980 -10.26720 -10.26641 -10.26397 -10.26372
 Alpha  occ. eigenvalues --  -10.26245 -10.26215 -10.26041 -10.26035 -10.25968
 Alpha  occ. eigenvalues --  -10.25857 -10.25849 -10.25745 -10.25445 -10.25278
 Alpha  occ. eigenvalues --  -10.24845 -10.24800 -10.24796 -10.24733 -10.24647
 Alpha  occ. eigenvalues --  -10.24611  -3.16554  -3.16334  -1.91436  -1.91216
 Alpha  occ. eigenvalues --   -1.91023  -1.90865  -1.90805  -1.90642  -1.16644
 Alpha  occ. eigenvalues --   -1.16585  -1.08638  -1.08584  -1.07214  -1.06906
 Alpha  occ. eigenvalues --   -1.06884  -1.06655  -1.04594  -1.04423  -1.03774
 Alpha  occ. eigenvalues --   -1.03587  -1.03247  -1.02959  -1.02425  -1.02034
 Alpha  occ. eigenvalues --   -0.91985  -0.91913  -0.89538  -0.89410  -0.89201
 Alpha  occ. eigenvalues --   -0.89089  -0.88304  -0.88130  -0.87883  -0.87708
 Alpha  occ. eigenvalues --   -0.87686  -0.87610  -0.87280  -0.87057  -0.84994
 Alpha  occ. eigenvalues --   -0.84935  -0.83956  -0.83787  -0.82971  -0.82868
 Alpha  occ. eigenvalues --   -0.82659  -0.82589  -0.81598  -0.81527  -0.80607
 Alpha  occ. eigenvalues --   -0.80374  -0.78806  -0.78565  -0.77233  -0.77073
 Alpha  occ. eigenvalues --   -0.76948  -0.76826  -0.75935  -0.75772  -0.74913
 Alpha  occ. eigenvalues --   -0.74714  -0.72788  -0.72620  -0.71685  -0.71503
 Alpha  occ. eigenvalues --   -0.69932  -0.69667  -0.68885  -0.68762  -0.67652
 Alpha  occ. eigenvalues --   -0.67528  -0.67230  -0.67141  -0.65300  -0.65206
 Alpha  occ. eigenvalues --   -0.64867  -0.64695  -0.64635  -0.64584  -0.64287
 Alpha  occ. eigenvalues --   -0.64118  -0.62310  -0.62209  -0.60451  -0.60268
 Alpha  occ. eigenvalues --   -0.59817  -0.59730  -0.59001  -0.58915  -0.58517
 Alpha  occ. eigenvalues --   -0.58350  -0.57597  -0.57483  -0.57322  -0.57158
 Alpha  occ. eigenvalues --   -0.56321  -0.56130  -0.55990  -0.55823  -0.55527
 Alpha  occ. eigenvalues --   -0.55388  -0.55356  -0.55164  -0.54540  -0.54408
 Alpha  occ. eigenvalues --   -0.53908  -0.53851  -0.53309  -0.53230  -0.53154
 Alpha  occ. eigenvalues --   -0.53076  -0.52928  -0.52835  -0.52761  -0.52612
 Alpha  occ. eigenvalues --   -0.52464  -0.52314  -0.51928  -0.51792  -0.51626
 Alpha  occ. eigenvalues --   -0.51599  -0.51211  -0.51126  -0.50574  -0.50417
 Alpha  occ. eigenvalues --   -0.50049  -0.49925  -0.49914  -0.49782  -0.49523
 Alpha  occ. eigenvalues --   -0.49425  -0.49225  -0.49136  -0.49107  -0.49035
 Alpha  occ. eigenvalues --   -0.48605  -0.48489  -0.48473  -0.48450  -0.48286
 Alpha  occ. eigenvalues --   -0.48276  -0.47706  -0.47526  -0.47307  -0.47045
 Alpha  occ. eigenvalues --   -0.46813  -0.46632  -0.46567  -0.46490  -0.46373
 Alpha  occ. eigenvalues --   -0.46193  -0.46176  -0.46001  -0.45835  -0.45744
 Alpha  occ. eigenvalues --   -0.45217  -0.45120  -0.44590  -0.44517  -0.44445
 Alpha  occ. eigenvalues --   -0.44405  -0.44160  -0.44100  -0.44060  -0.44028
 Alpha  occ. eigenvalues --   -0.44002  -0.43875  -0.43507  -0.43483  -0.43399
 Alpha  occ. eigenvalues --   -0.43313  -0.43040  -0.42864  -0.42825  -0.42713
 Alpha  occ. eigenvalues --   -0.42674  -0.42471  -0.42029  -0.41887  -0.41717
 Alpha  occ. eigenvalues --   -0.41595  -0.41547  -0.41391  -0.41153  -0.40915
 Alpha  occ. eigenvalues --   -0.40885  -0.40826  -0.40662  -0.40633  -0.40589
 Alpha  occ. eigenvalues --   -0.40408  -0.40246  -0.40172  -0.39468  -0.39336
 Alpha  occ. eigenvalues --   -0.38486  -0.38263  -0.37762  -0.37593  -0.37337
 Alpha  occ. eigenvalues --   -0.37277  -0.37184  -0.37132  -0.36727  -0.36704
 Alpha  occ. eigenvalues --   -0.36207  -0.36138  -0.34300  -0.34177  -0.33798
 Alpha  occ. eigenvalues --   -0.33784  -0.33200  -0.33099  -0.31344  -0.31212
 Alpha  occ. eigenvalues --   -0.31048  -0.30898  -0.30040  -0.29881  -0.29459
 Alpha  occ. eigenvalues --   -0.29334  -0.29256  -0.29134  -0.24094  -0.23959
 Alpha  occ. eigenvalues --   -0.21141  -0.21041
 Alpha virt. eigenvalues --   -0.08786  -0.08717  -0.01763  -0.01607  -0.00064
 Alpha virt. eigenvalues --    0.00037   0.02188   0.02285   0.03095   0.03297
 Alpha virt. eigenvalues --    0.04704   0.04800   0.05085   0.05228   0.06163

 Mulliken charges:
               1
     1  Mg   0.838512
     2  C   -0.003008
     3  C   -0.094089
     4  C   -0.045869
     5  C   -0.064054
     6  N   -0.256774
     7  C   -0.052527
     8  C   -0.013997
     9  C   -0.087007
    10  C    0.046324
    11  C    0.104802
    12  C    0.053476
    13  C   -0.071797
    14  H    0.036084
    15  N   -0.433190
    16  C    0.168436
    17  C   -0.177087
    18  C   -0.003906
    19  C    0.148711
    20  C    0.110176
    21  C    0.012419
    22  O   -0.249479
    23  C    0.062407
    24  N   -0.341092
    25  C    0.041178
    26  C   -0.028205
    27  C   -0.023966
    28  C    0.074731
    29  C    0.076140
    30  C    0.035171
    31  C   -0.004514
    32  N   -0.310432
    33  C    0.080253
    34  C   -0.169868
    35  C    0.008361
    36  C    0.082844
    37  C    0.127344
    38  C    0.046050
    39  O   -0.188373
    40  C   -0.005291
    41  C    0.212920
    42  O   -0.257257
    43  O   -0.304764
    44  C    0.157668
    45  H   -0.017549
    46  H   -0.016725
    47  H   -0.041558
    48  H    0.000979
    49  H   -0.004032
    50  H    0.025513
    51  H    0.016474
    52  H    0.016689
    53  H    0.011169
    54  H    0.044053
    55  H    0.017928
    56  H    0.017929
    57  H    0.005836
    58  H    0.026899
    59  H    0.039695
    60  H    0.037272
    61  H    0.035957
    62  H    0.031668
    63  H    0.016579
    64  H    0.009545
    65  H    0.023325
    66  H    0.012610
    67  H    0.004790
    68  H    0.006478
    69  H    0.004696
    70  H    0.008926
    71  H    0.017566
    72  H    0.028871
    73  H    0.047504
    74  H    0.009011
    75  H    0.046100
    76  H    0.035213
    77  H    0.043062
    78  H    0.046377
    79  H    0.053687
    80  Mg   0.837814
    81  C   -0.016886
    82  C   -0.087954
    83  C   -0.045566
    84  C   -0.064449
    85  N   -0.254549
    86  C   -0.049822
    87  C   -0.015103
    88  C   -0.090501
    89  C    0.045768
    90  C    0.114416
    91  C    0.062557
    92  C   -0.077795
    93  H    0.034750
    94  N   -0.423435
    95  C    0.162877
    96  C   -0.174869
    97  C   -0.007928
    98  C    0.152069
    99  C    0.099480
   100  C    0.015407
   101  O   -0.253203
   102  C    0.061245
   103  N   -0.350032
   104  C    0.037591
   105  C   -0.019937
   106  C   -0.034959
   107  C    0.088957
   108  C    0.073380
   109  C    0.034685
   110  C   -0.007652
   111  N   -0.324150
   112  C    0.078476
   113  C   -0.162855
   114  C    0.002260
   115  C    0.096238
   116  C    0.131519
   117  C    0.042512
   118  O   -0.187782
   119  C    0.000879
   120  C    0.211212
   121  O   -0.251084
   122  O   -0.305611
   123  C    0.152070
   124  H   -0.019976
   125  H   -0.015573
   126  H   -0.039950
   127  H   -0.000691
   128  H   -0.004532
   129  H    0.022554
   130  H    0.014464
   131  H    0.015988
   132  H    0.013868
   133  H    0.037679
   134  H    0.020737
   135  H    0.019467
   136  H    0.008587
   137  H    0.025782
   138  H    0.039583
   139  H    0.038000
   140  H    0.036228
   141  H    0.033838
   142  H    0.014258
   143  H    0.013367
   144  H    0.025176
   145  H    0.011470
   146  H    0.006701
   147  H    0.006326
   148  H    0.003866
   149  H    0.010829
   150  H    0.017769
   151  H    0.029959
   152  H    0.045896
   153  H    0.008783
   154  H    0.047631
   155  H    0.035085
   156  H    0.043876
   157  H    0.049385
   158  H    0.053530
 Sum of Mulliken charges =  -0.00000

 Dipole moment (field-independent basis, Debye):
    X=              2.1493    Y=              4.1753    Z=             -7.3852  Tot=              8.7518
 Quadrupole moment (field-independent basis, Debye-Ang):
   XX=           -469.6743   YY=           -562.6847   ZZ=           -451.9940
   XY=            -13.5676   XZ=             30.1239   YZ=              5.7945

 Normal termination of Gaussian 16 at Sun Sep 12 07:11:35 2021.
