 Gaussian 16, Revision A.03,
 Gaussian 16:  ES64L-G16RevA.03 25-Dec-2016

 -----------------------------------
 #p cam-b3lyp/Def2SVP td=(nstates=5)
 -----------------------------------

 --------------------------------
 TDDFT excited states in gaussian
 --------------------------------
 Symbolic Z-matrix:
 Charge =  0 Multiplicity = 1

                         Standard orientation:
 ---------------------------------------------------------------------
 Center     Atomic      Atomic             Coordinates (Angstroms)
 Number     Number       Type             X           Y           Z
 ---------------------------------------------------------------------
      1         12           0       -6.510697   -0.781809    0.151025
      2          6           0       -6.713110    2.785671    0.361575
      3          6           0       -7.423060   -0.491491   -3.124089
      4          6           0       -6.781085   -3.940144    0.059200
      5          6           0       -6.732635   -0.852096    3.628304
      6          7           0       -6.979209    0.978225   -1.107315
      7          6           0       -6.961635    2.294480   -0.922019
      8          6           0       -7.157694    3.106224   -2.237316
      9          6           0       -7.919682    2.004449   -3.101877
     10          6           0       -7.382776    0.753547   -2.428899
     11          6           0       -9.435382    2.039999   -2.934875
     12          6           0       -5.795491    3.509704   -2.895599
     13          6           0       -5.890122    4.572480   -3.994192
     14          1           0       -4.816444    5.546421   -4.120698
     15          7           0       -6.547123   -2.020362   -1.387646
     16          6           0       -6.930947   -1.728144   -2.653574
     17          6           0       -6.779226   -2.980652   -3.424861
     18          6           0       -6.457225   -4.071165   -2.462993
     19          6           0       -6.610046   -3.383752   -1.206217
     20          6           0       -6.890499   -3.046608   -4.917181
     21          6           0       -6.083023   -5.507922   -2.646941
     22          8           0       -6.072118   -6.337818   -1.674456
     23          6           0       -5.811733   -5.944408   -4.028579
     24          7           0       -6.946578   -2.212653    1.607160
     25          6           0       -6.943649   -3.517830    1.314775
     26          6           0       -7.000650   -4.355896    2.557488
     27          6           0       -6.797440   -3.348593    3.779698
     28          6           0       -6.737281   -2.021308    2.984106
     29          6           0       -8.293332   -5.156885    2.765822
     30          6           0       -5.649639   -3.667404    4.770319
     31          6           0       -4.314650   -3.503239    4.078978
     32          7           0       -6.513463    0.685393    1.750511
     33          6           0       -6.638436    0.434478    3.124592
     34          6           0       -6.695869    1.744204    3.799417
     35          6           0       -6.616480    2.672106    2.762817
     36          6           0       -6.542270    1.985566    1.517246
     37          6           0       -6.865581    1.955254    5.196231
     38          6           0       -6.601897    4.083945    2.415895
     39          8           0       -6.545958    5.134029    3.057523
     40          6           0       -6.786661    4.214519    0.839621
     41          6           0       -5.745829    5.178177    0.338281
     42          8           0       -4.532626    4.888953    0.381345
     43          8           0       -6.347798    6.177321   -0.324958
     44          6           0       -5.369153    7.153470   -0.874086
     45          1           0       -7.928715   -0.540306   -4.090459
     46          1           0       -6.768052   -5.031806    0.082466
     47          1           0       -6.716651   -0.795535    4.718257
     48          1           0       -7.780588    3.994945   -2.134350
     49          1           0       -7.619504    2.029821   -4.149241
     50          1           0       -9.733419    2.733636   -2.148769
     51          1           0       -9.723343    1.021601   -2.673268
     52          1           0       -9.924842    2.255054   -3.885116
     53          1           0       -5.416717    2.671527   -3.480450
     54          1           0       -5.082767    3.836977   -2.137811
     55          1           0       -6.859403    5.071764   -3.983309
     56          1           0       -5.855595    4.068978   -4.960366
     57          1           0       -7.296568   -2.123842   -5.329680
     58          1           0       -7.642505   -3.801071   -5.147357
     59          1           0       -5.944516   -3.314914   -5.387776
     60          1           0       -6.695234   -5.766830   -4.642126
     61          1           0       -5.473377   -6.977455   -3.956612
     62          1           0       -5.018771   -5.323104   -4.445881
     63          1           0       -6.201062   -5.095481    2.567408
     64          1           0       -7.684204   -3.287345    4.411023
     65          1           0       -8.131165   -6.229624    2.873693
     66          1           0       -8.959906   -4.944189    1.930519
     67          1           0       -8.898496   -4.835746    3.613208
     68          1           0       -5.713065   -4.702693    5.103637
     69          1           0       -5.657199   -3.032633    5.656467
     70          1           0       -4.182902   -4.459428    3.573828
     71          1           0       -3.524594   -3.336825    4.812006
     72          1           0       -4.356771   -2.731574    3.310053
     73          1           0       -6.164436    2.742438    5.473188
     74          1           0       -6.678595    1.041773    5.760316
     75          1           0       -7.911653    2.259430    5.228863
     76          1           0       -7.798800    4.581384    0.671972
     77          1           0       -5.645655    8.135590   -0.490392
     78          1           0       -5.366814    7.014985   -1.955391
     79          1           0       -4.346047    7.069289   -0.505972
     80         12           0        6.724575   -0.770217   -0.005674
     81          6           0        6.355844    2.792537    0.217644
     82          6           0        5.662696   -0.527619   -3.238036
     83          6           0        6.606410   -3.939520   -0.100321
     84          6           0        6.644774   -0.857414    3.477393
     85          7           0        6.117923    0.963711   -1.237632
     86          6           0        6.076910    2.276289   -1.064978
     87          6           0        5.795073    3.086673   -2.358584
     88          6           0        5.044738    1.943089   -3.200064
     89          6           0        5.668294    0.710819   -2.547867
     90          6           0        3.544955    1.904115   -2.958283
     91          6           0        7.113102    3.552730   -3.071022
     92          6           0        6.915657    4.605424   -4.164002
     93          1           0        7.940906    5.630983   -4.335975
     94          7           0        6.686937   -2.008230   -1.556312
     95          6           0        6.244248   -1.738522   -2.802334
     96          6           0        6.409735   -2.984597   -3.566585
     97          6           0        6.832374   -4.058523   -2.627025
     98          6           0        6.701983   -3.366851   -1.360262
     99          6           0        6.248353   -3.052277   -5.057494
    100          6           0        7.267944   -5.477642   -2.833367
    101          8           0        7.360661   -6.302335   -1.856582
    102          6           0        7.492583   -5.898861   -4.223915
    103          7           0        6.425965   -2.214423    1.459743
    104          6           0        6.474297   -3.524188    1.159585
    105          6           0        6.507038   -4.369624    2.410410
    106          6           0        6.715573   -3.342170    3.618077
    107          6           0        6.676240   -2.014316    2.830271
    108          6           0        5.262635   -5.217480    2.673040
    109          6           0        7.918347   -3.604277    4.565340
    110          6           0        9.217073   -3.387966    3.822435
    111          7           0        6.721950    0.689638    1.587080
    112          6           0        6.659497    0.437532    2.975106
    113          6           0        6.566933    1.747477    3.651794
    114          6           0        6.558691    2.677158    2.601022
    115          6           0        6.619980    1.993827    1.356518
    116          6           0        6.455488    1.952404    5.055972
    117          6           0        6.501358    4.080716    2.261269
    118          8           0        6.525965    5.131138    2.901375
    119          6           0        6.239891    4.212217    0.698989
    120          6           0        7.211357    5.220159    0.148683
    121          8           0        8.433288    4.988976    0.154760
    122          8           0        6.528023    6.188818   -0.487802
    123          6           0        7.448894    7.206592   -1.060477
    124          1           0        5.126019   -0.591399   -4.185025
    125          1           0        6.673123   -5.029573   -0.071559
    126          1           0        6.714792   -0.795067    4.565454
    127          1           0        5.141348    3.940456   -2.226379
    128          1           0        5.307666    1.991129   -4.253593
    129          1           0        3.246611    2.577109   -2.168208
    130          1           0        3.316726    0.880902   -2.689993
    131          1           0        3.007598    2.098149   -3.890980
    132          1           0        7.505049    2.724999   -3.675997
    133          1           0        7.829165    3.905643   -2.354550
    134          1           0        5.919104    5.061551   -4.121765
    135          1           0        6.940816    4.105899   -5.135525
    136          1           0        5.774107   -2.145314   -5.452341
    137          1           0        5.525836   -3.848983   -5.265073
    138          1           0        7.183926   -3.280647   -5.572496
    139          1           0        6.578413   -5.758769   -4.795857
    140          1           0        7.884200   -6.916022   -4.161499
    141          1           0        8.247206   -5.242042   -4.670859
    142          1           0        7.341064   -5.060292    2.388635
    143          1           0        5.850334   -3.330453    4.297087
    144          1           0        5.482962   -6.297222    2.771525
    145          1           0        4.556689   -5.045007    1.871506
    146          1           0        4.687440   -4.933383    3.552602
    147          1           0        7.919829   -4.645732    4.896283
    148          1           0        7.910622   -2.983621    5.455137
    149          1           0        9.368165   -4.341109    3.306894
    150          1           0       10.027436   -3.183287    4.519187
    151          1           0        9.107404   -2.612238    3.055707
    152          1           0        7.121885    2.767341    5.305542
    153          1           0        6.704620    1.050049    5.610462
    154          1           0        5.393766    2.201576    5.133050
    155          1           0        5.204107    4.526701    0.565516
    156          1           0        7.137929    8.178007   -0.663815
    157          1           0        7.399139    7.071032   -2.157249
    158          1           0        8.486879    7.174102   -0.750685
 ---------------------------------------------------------------------

 SCF Done:  E(RCAM-B3LYP) =  -4069.81159458     A.U. after   19 cycles

 Excitation energies and oscillator strengths:

 Excited State   1:      Singlet-A      1.6654 eV  744.49 nm  f=0.0064  <S**2>=0.000
     309 -> 315       -0.11044
     310 -> 316        0.13098
     311 -> 313       -0.44095
     312 -> 314        0.52633
 This state for optimization and/or second-order correction.
 Total Energy, E(TD-HF/TD-DFT) =  -4069.75039362
 Copying the excited state density for this state as the 1-particle RhoCI density.

 Excited State   2:      Singlet-A      1.6893 eV  733.94 nm  f=0.7370  <S**2>=0.000
     309 -> 315        0.13651
     310 -> 316        0.11363
     311 -> 313        0.52512
     312 -> 314        0.44003

 Excited State   3:      Singlet-A      2.1846 eV  567.55 nm  f=0.0401  <S**2>=0.000
     309 -> 313       -0.20153
     310 -> 314        0.61072
     312 -> 316       -0.25830

 Excited State   4:      Singlet-A      2.1934 eV  565.27 nm  f=0.1488  <S**2>=0.000
     309 -> 313        0.60827
     310 -> 314        0.19976
     311 -> 315       -0.26511

 Excited State   5:      Singlet-A      2.6466 eV  468.46 nm  f=0.0000  <S**2>=0.000
     312 -> 313        0.70710

 The electronic state is 1-A.
 Alpha  occ. eigenvalues --  -46.87858 -46.87548 -19.26332 -19.26226 -19.19070
 Alpha  occ. eigenvalues --  -19.19041 -19.18876 -19.18626 -19.18212 -19.17916
 Alpha  occ. eigenvalues --  -14.42514 -14.42384 -14.41509 -14.41248 -14.39465
 Alpha  occ. eigenvalues --  -14.39242 -14.38645 -14.38483 -10.39130 -10.38967
 Alpha  occ. eigenvalues --  -10.35511 -10.35306 -10.34433 -10.34091 -10.31725
 Alpha  occ. eigenvalues --  -10.31646 -10.31467 -10.31190 -10.30977 -10.30914
 Alpha  occ. eigenvalues --  -10.30628 -10.30563 -10.30283 -10.30267 -10.30244
 Alpha  occ. eigenvalues --  -10.30040 -10.29973 -10.29779 -10.29688 -10.29331
 Alpha  occ. eigenvalues --  -10.29316 -10.29291 -10.28828 -10.28651 -10.28604
 Alpha  occ. eigenvalues --  -10.28577 -10.28426 -10.28290 -10.28191 -10.28022
 Alpha  occ. eigenvalues --  -10.27886 -10.27849 -10.27791 -10.27645 -10.27563
 Alpha  occ. eigenvalues --  -10.27561 -10.27551 -10.27497 -10.27464 -10.27422
 Alpha  occ. eigenvalues --  -10.27399 -10.27368 -10.27360 -10.27276 -10.27209
 Alpha  occ. eigenvalues --  -10.26909 -10.26807 -10.26599 -10.26484 -10.26352
 Alpha  occ. eigenvalues --  -10.26299 -10.26232 -10.26077 -10.26053 -10.25878
 Alpha  occ. eigenvalues --  -10.25876 -10.25825 -10.25715 -10.25478 -10.25297
 Alpha  occ. eigenvalues --  -10.24887 -10.24845 -10.24753 -10.24739 -10.24651
 Alpha  occ. eigenvalues --  -10.24579  -3.16601  -3.16298  -1.91483  -1.91180
 Alpha  occ. eigenvalues --   -1.91070  -1.90912  -1.90768  -1.90605  -1.16681
 Alpha  occ. eigenvalues --   -1.16521  -1.08669  -1.08520  -1.07277  -1.06880
 Alpha  occ. eigenvalues --   -1.06824  -1.06691  -1.04645  -1.04381  -1.03820
 Alpha  occ. eigenvalues --   -1.03551  -1.03293  -1.02927  -1.02470  -1.01998
 Alpha  occ. eigenvalues --   -0.92029  -0.91866  -0.89574  -0.89389  -0.89264
 Alpha  occ. eigenvalues --   -0.89037  -0.88340  -0.88118  -0.87920  -0.87739
 Alpha  occ. eigenvalues --   -0.87672  -0.87575  -0.87340  -0.87029  -0.85056
 Alpha  occ. eigenvalues --   -0.84892  -0.83987  -0.83775  -0.83032  -0.82847
 Alpha  occ. eigenvalues --   -0.82716  -0.82548  -0.81641  -0.81481  -0.80656
 Alpha  occ. eigenvalues --   -0.80332  -0.78859  -0.78533  -0.77281  -0.77039
 Alpha  occ. eigenvalues --   -0.76999  -0.76790  -0.75984  -0.75722  -0.74950
 Alpha  occ. eigenvalues --   -0.74697  -0.72831  -0.72586  -0.71730  -0.71467
 Alpha  occ. eigenvalues --   -0.69959  -0.69662  -0.68943  -0.68720  -0.67700
 Alpha  occ. eigenvalues --   -0.67493  -0.67300  -0.67105  -0.65357  -0.65160
 Alpha  occ. eigenvalues --   -0.64911  -0.64681  -0.64659  -0.64543  -0.64324
 Alpha  occ. eigenvalues --   -0.64100  -0.62349  -0.62163  -0.60504  -0.60242
 Alpha  occ. eigenvalues --   -0.59873  -0.59682  -0.59045  -0.58881  -0.58560
 Alpha  occ. eigenvalues --   -0.58313  -0.57636  -0.57426  -0.57364  -0.57129
 Alpha  occ. eigenvalues --   -0.56368  -0.56095  -0.56036  -0.55775  -0.55581
 Alpha  occ. eigenvalues --   -0.55390  -0.55349  -0.55139  -0.54574  -0.54380
 Alpha  occ. eigenvalues --   -0.53970  -0.53801  -0.53358  -0.53289  -0.53123
 Alpha  occ. eigenvalues --   -0.53035  -0.52973  -0.52827  -0.52794  -0.52579
 Alpha  occ. eigenvalues --   -0.52489  -0.52308  -0.51958  -0.51755  -0.51690
 Alpha  occ. eigenvalues --   -0.51557  -0.51251  -0.51087  -0.50645  -0.50395
 Alpha  occ. eigenvalues --   -0.50088  -0.49984  -0.49877  -0.49769  -0.49582
 Alpha  occ. eigenvalues --   -0.49386  -0.49273  -0.49161  -0.49089  -0.48984
 Alpha  occ. eigenvalues --   -0.48648  -0.48518  -0.48500  -0.48443  -0.48271
 Alpha  occ. eigenvalues --   -0.48240  -0.47758  -0.47492  -0.47357  -0.47020
 Alpha  occ. eigenvalues --   -0.46857  -0.46629  -0.46603  -0.46449  -0.46416
 Alpha  occ. eigenvalues --   -0.46214  -0.46165  -0.45972  -0.45872  -0.45701
 Alpha  occ. eigenvalues --   -0.45254  -0.45104  -0.44631  -0.44575  -0.44400
 Alpha  occ. eigenvalues --   -0.44370  -0.44203  -0.44158  -0.44076  -0.44013
 Alpha  occ. eigenvalues --   -0.43979  -0.43835  -0.43547  -0.43451  -0.43441
 Alpha  occ. eigenvalues --   -0.43275  -0.43084  -0.42816  -0.42782  -0.42750
 Alpha  occ. eigenvalues --   -0.42706  -0.42456  -0.42068  -0.41863  -0.41760
 Alpha  occ. eigenvalues --   -0.41607  -0.41550  -0.41355  -0.41201  -0.40939
 Alpha  occ. eigenvalues --   -0.40892  -0.40875  -0.40631  -0.40627  -0.40599
 Alpha  occ. eigenvalues --   -0.40389  -0.40324  -0.40132  -0.39494  -0.39333
 Alpha  occ. eigenvalues --   -0.38527  -0.38249  -0.37832  -0.37556  -0.37378
 Alpha  occ. eigenvalues --   -0.37336  -0.37161  -0.37091  -0.36764  -0.36655
 Alpha  occ. eigenvalues --   -0.36248  -0.36108  -0.34345  -0.34140  -0.33822
 Alpha  occ. eigenvalues --   -0.33743  -0.33245  -0.33063  -0.31405  -0.31184
 Alpha  occ. eigenvalues --   -0.31095  -0.30860  -0.30071  -0.29819  -0.29510
 Alpha  occ. eigenvalues --   -0.29376  -0.29221  -0.29091  -0.24140  -0.23921
 Alpha  occ. eigenvalues --   -0.21187  -0.21005
 Alpha virt. eigenvalues --   -0.08834  -0.08680  -0.01810  -0.01575  -0.00120
 Alpha virt. eigenvalues --    0.00074   0.02150   0.02331   0.03048   0.03327
 Alpha virt. eigenvalues --    0.04647   0.04840   0.05048   0.05289   0.06089

 Mulliken charges:
               1
     1  Mg   0.838507
     2  C   -0.003072
     3  C   -0.094485
     4  C   -0.045779
     5  C   -0.063867
     6  N   -0.256742
     7  C   -0.052563
     8  C   -0.013941
     9  C   -0.086940
    10  C    0.046160
    11  C    0.104803
    12  C    0.053616
    13  C   -0.071562
    14  H    0.035531
    15  N   -0.433125
    16  C    0.168259
    17  C   -0.177427
    18  C   -0.004057
    19  C    0.148623
    20  C    0.110239
    21  C    0.012244
    22  O   -0.249405
    23  C    0.062565
    24  N   -0.341145
    25  C    0.041194
    26  C   -0.028200
    27  C   -0.024027
    28  C    0.074893
    29  C    0.076116
    30  C    0.035086
    31  C   -0.004498
    32  N   -0.310537
    33  C    0.080489
    34  C   -0.169448
    35  C    0.008549
    36  C    0.083001
    37  C    0.127237
    38  C    0.046347
    39  O   -0.187849
    40  C   -0.005404
    41  C    0.213021
    42  O   -0.257168
    43  O   -0.304790
    44  C    0.157559
    45  H   -0.017707
    46  H   -0.016720
    47  H   -0.041265
    48  H    0.001130
    49  H   -0.004375
    50  H    0.025620
    51  H    0.016566
    52  H    0.016630
    53  H    0.010584
    54  H    0.044020
    55  H    0.018262
    56  H    0.017569
    57  H    0.005689
    58  H    0.026939
    59  H    0.038895
    60  H    0.037358
    61  H    0.035813
    62  H    0.030950
    63  H    0.016623
    64  H    0.009614
    65  H    0.023327
    66  H    0.012558
    67  H    0.004859
    68  H    0.006474
    69  H    0.004856
    70  H    0.008842
    71  H    0.018046
    72  H    0.028915
    73  H    0.048031
    74  H    0.009206
    75  H    0.046156
    76  H    0.035259
    77  H    0.043358
    78  H    0.046004
    79  H    0.053903
    80  Mg   0.837986
    81  C   -0.016647
    82  C   -0.087858
    83  C   -0.045541
    84  C   -0.064768
    85  N   -0.254550
    86  C   -0.049385
    87  C   -0.015151
    88  C   -0.090660
    89  C    0.045919
    90  C    0.114363
    91  C    0.062593
    92  C   -0.077653
    93  H    0.034521
    94  N   -0.423440
    95  C    0.162871
    96  C   -0.174933
    97  C   -0.007979
    98  C    0.152033
    99  C    0.099555
   100  C    0.015416
   101  O   -0.253334
   102  C    0.061283
   103  N   -0.349992
   104  C    0.037506
   105  C   -0.019814
   106  C   -0.034821
   107  C    0.089040
   108  C    0.073678
   109  C    0.034749
   110  C   -0.007623
   111  N   -0.324229
   112  C    0.078717
   113  C   -0.162843
   114  C    0.002727
   115  C    0.096171
   116  C    0.131345
   117  C    0.042911
   118  O   -0.187304
   119  C    0.000681
   120  C    0.211140
   121  O   -0.251363
   122  O   -0.305276
   123  C    0.152148
   124  H   -0.020252
   125  H   -0.015756
   126  H   -0.040466
   127  H   -0.000073
   128  H   -0.005000
   129  H    0.024261
   130  H    0.014479
   131  H    0.015413
   132  H    0.013660
   133  H    0.037643
   134  H    0.020872
   135  H    0.019156
   136  H    0.008322
   137  H    0.025583
   138  H    0.039413
   139  H    0.037957
   140  H    0.036138
   141  H    0.033722
   142  H    0.014165
   143  H    0.012474
   144  H    0.024890
   145  H    0.011954
   146  H    0.005581
   147  H    0.006055
   148  H    0.003618
   149  H    0.010813
   150  H    0.017755
   151  H    0.030188
   152  H    0.045916
   153  H    0.008202
   154  H    0.048075
   155  H    0.036520
   156  H    0.044027
   157  H    0.049170
   158  H    0.053334
 Sum of Mulliken charges =  -0.00000

 Dipole moment (field-independent basis, Debye):
    X=             -4.2608    Y=             -2.4097    Z=             -7.4108  Tot=              8.8816
 Quadrupole moment (field-independent basis, Debye-Ang):
   XX=           -518.5804   YY=           -552.2542   ZZ=           -447.4794
   XY=             -5.7962   XZ=              4.4163   YZ=            -48.0898

 Normal termination of Gaussian 16 at Sat Sep 11 15:14:27 2021.
