 Gaussian 16, Revision A.03,
 Gaussian 16:  ES64L-G16RevA.03 25-Dec-2016

 -----------------------------------
 #p cam-b3lyp/Def2SVP td=(nstates=5)
 -----------------------------------

 --------------------------------
 TDDFT excited states in gaussian
 --------------------------------
 Symbolic Z-matrix:
 Charge =  0 Multiplicity = 1

                         Standard orientation:
 ---------------------------------------------------------------------
 Center     Atomic      Atomic             Coordinates (Angstroms)
 Number     Number       Type             X           Y           Z
 ---------------------------------------------------------------------
      1         12           0       15.781604   -0.674965    0.433093
      2          6           0       16.072452    1.896729   -2.039560
      3          6           0       16.760167    1.639892    2.741104
      4          6           0       15.971769   -3.027136    2.551524
      5          6           0       15.938823   -2.989055   -2.168047
      6          7           0       16.318160    1.465070    0.251423
      7          6           0       16.331318    2.347075   -0.743095
      8          6           0       16.572040    3.811024   -0.267406
      9          6           0       17.320742    3.509067    1.107464
     10          6           0       16.739575    2.137957    1.404490
     11          6           0       18.833592    3.380269    0.961870
     12          6           0       15.232845    4.587460   -0.031959
     13          6           0       15.374774    6.105160    0.115680
     14          1           0       14.329124    6.961951   -0.422718
     15          7           0       15.813739   -0.621311    2.407666
     16          6           0       16.227795    0.409434    3.183171
     17          6           0       16.057657   -0.038965    4.581982
     18          6           0       15.690223   -1.482016    4.555730
     19          6           0       15.838066   -1.778282    3.153679
     20          6           0       16.194115    0.874531    5.761242
     21          6           0       15.282341   -2.444278    5.626158
     22          8           0       15.232401   -3.705678    5.423797
     23          6           0       15.024837   -1.872435    6.960223
     24          7           0       16.153940   -2.721118    0.253489
     25          6           0       16.122511   -3.524645    1.322293
     26          6           0       16.135352   -4.969530    0.919700
     27          6           0       15.936244   -4.988804   -0.664515
     28          6           0       15.924836   -3.461352   -0.919525
     29          6           0       17.402895   -5.754635    1.284330
     30          6           0       14.762875   -5.837358   -1.215496
     31          6           0       13.445284   -5.222447   -0.799639
     32          7           0       15.793462   -0.595284   -1.735906
     33          6           0       15.887066   -1.680678   -2.618986
     34          6           0       15.966185   -1.123263   -3.981740
     35          6           0       15.929570    0.257099   -3.794381
     36          6           0       15.860119    0.544298   -2.401189
     37          6           0       16.116052   -1.873286   -5.181507
     38          6           0       15.957802    1.556673   -4.445663
     39          8           0       15.917484    1.941602   -5.615149
     40          6           0       16.174316    2.671812   -3.329682
     41          6           0       15.167998    3.762679   -3.575937
     42          8           0       13.947136    3.552807   -3.424888
     43          8           0       15.807504    4.933870   -3.716955
     44          6           0       14.864528    6.063259   -3.934736
     45          1           0       17.281756    2.213172    3.510023
     46          1           0       15.930067   -3.872456    3.241548
     47          1           0       15.904629   -3.651917   -3.034591
     48          1           0       17.215767    4.400955   -0.920108
     49          1           0       17.040283    4.216603    1.887501
     50          1           0       19.135239    3.389221   -0.085436
     51          1           0       19.090326    2.426772    1.423849
     52          1           0       19.345533    4.144385    1.547380
     53          1           0       14.843126    4.340630    0.955590
     54          1           0       14.515264    4.367747   -0.823242
     55          1           0       16.356299    6.447566   -0.213374
     56          1           0       15.344679    6.349308    1.177605
     57          1           0       16.631314    1.831254    5.478252
     58          1           0       16.930375    0.426012    6.427921
     59          1           0       15.250156    1.005087    6.290609
     60          1           0       15.923573   -1.367427    7.314890
     61          1           0       14.658612   -2.694498    7.574179
     62          1           0       14.255886   -1.104318    6.872704
     63          1           0       15.316840   -5.513595    1.389229
     64          1           0       16.812753   -5.379220   -1.182185
     65          1           0       17.211096   -6.635705    1.897220
     66          1           0       18.089726   -5.072370    1.784400
     67          1           0       18.000768   -6.078483    0.432809
     68          1           0       14.793455   -6.843130   -0.797843
     69          1           0       14.770860   -5.928911   -2.301684
     70          1           0       13.297975   -5.618487    0.204494
     71          1           0       12.646693   -5.546082   -1.468013
     72          1           0       13.521242   -4.138265   -0.714406
     73          1           0       15.430630   -1.431786   -5.904862
     74          1           0       15.895330   -2.928069   -5.019280
     75          1           0       17.168887   -1.695846   -5.400388
     76          1           0       17.198474    3.027820   -3.436829
     77          1           0       15.159385    6.553199   -4.862773
     78          1           0       14.878131    6.658757   -3.021718
     79          1           0       13.833106    5.792769   -4.163522
     80         12           0      -15.951319    0.572596    0.588925
     81          6           0      -15.867220   -2.252920   -1.622065
     82          6           0      -15.011885    2.491942   -2.069683
     83          6           0      -15.578467    2.998916    2.599245
     84          6           0      -15.758390   -1.675669    3.244825
     85          7           0      -15.525738    0.069265   -1.522420
     86          6           0      -15.586470   -1.027782   -2.262113
     87          6           0      -15.411163   -0.786859   -3.785531
     88          6           0      -14.596258    0.595264   -3.718196
     89          6           0      -15.097222    1.108946   -2.369925
     90          6           0      -13.091592    0.402909   -3.626900
     91          6           0      -16.783902   -0.608893   -4.524398
     92          6           0      -16.706271   -0.678668   -6.051114
     93          1           0      -17.816382   -1.289205   -6.777316
     94          7           0      -15.860361    2.524679    0.242998
     95          6           0      -15.479344    3.131540   -0.900613
     96          6           0      -15.566088    4.576338   -0.637594
     97          6           0      -15.871003    4.772908    0.805707
     98          6           0      -15.758752    3.410528    1.286761
     99          6           0      -15.445316    5.609194   -1.720202
    100          6           0      -16.195692    5.987996    1.620773
    101          8           0      -16.191098    5.960187    2.902196
    102          6           0      -16.427642    7.234208    0.876029
    103          7           0      -15.491521    0.667697    2.614244
    104          6           0      -15.442203    1.847511    3.257298
    105          6           0      -15.367803    1.651000    4.752705
    106          6           0      -15.622327    0.090709    4.994167
    107          6           0      -15.715305   -0.380658    3.526324
    108          6           0      -14.051066    2.059691    5.412677
    109          6           0      -16.770288   -0.292706    5.967748
    110          6           0      -18.104387    0.091317    5.369326
    111          7           0      -16.018935   -1.574842    0.816957
    112          6           0      -15.893824   -2.309615    2.016341
    113          6           0      -15.887598   -3.741099    1.651326
    114          6           0      -15.987152   -3.739230    0.251833
    115          6           0      -16.030573   -2.400665   -0.223410
    116          6           0      -15.750400   -4.830110    2.557601
    117          6           0      -16.054678   -4.565075   -0.932280
    118          8           0      -16.145178   -5.773587   -1.144503
    119          6           0      -15.852607   -3.637790   -2.207309
    120          6           0      -16.919243   -3.986427   -3.208935
    121          8           0      -18.117546   -3.767912   -2.958068
    122          8           0      -16.336796   -4.315974   -4.376202
    123          6           0      -17.354518   -4.659178   -5.404922
    124          1           0      -14.500958    3.145829   -2.776968
    125          1           0      -15.555296    3.797128    3.344773
    126          1           0      -15.800001   -2.441079    4.022701
    127          1           0      -14.825391   -1.539197   -4.299957
    128          1           0      -14.894263    1.268838   -4.517475
    129          1           0      -12.825063   -0.636180   -3.502861
    130          1           0      -12.772741    0.980296   -2.768986
    131          1           0      -12.600542    0.854638   -4.493577
    132          1           0      -17.125431    0.426872   -4.400776
    133          1           0      -17.504109   -1.318649   -4.166390
    134          1           0      -15.749336   -1.088140   -6.396891
    135          1           0      -16.720328    0.340016   -6.446204
    136          1           0      -15.058757    5.173999   -2.650030
    137          1           0      -14.667012    6.312792   -1.405495
    138          1           0      -16.374469    6.159555   -1.882833
    139          1           0      -15.545787    7.471619    0.285738
    140          1           0      -16.733044    7.968876    1.623593
    141          1           0      -17.246520    7.070566    0.166609
    142          1           0      -16.143101    2.215550    5.255989
    143          1           0      -14.740593   -0.403660    5.427731
    144          1           0      -14.179650    2.810211    6.215336
    145          1           0      -13.386307    2.433665    4.645346
    146          1           0      -13.474328    1.240578    5.838846
    147          1           0      -16.676881    0.266118    6.902168
    148          1           0      -16.785965   -1.346975    6.223182
    149          1           0      -18.193056    1.151668    5.624026
    150          1           0      -18.907084   -0.490741    5.817587
    151          1           0      -18.081697    0.015705    4.275975
    152          1           0      -16.473002   -5.577473    2.257954
    153          1           0      -15.908195   -4.513420    3.586474
    154          1           0      -14.710639   -5.110697    2.369365
    155          1           0      -14.850414   -3.826478   -2.594087
    156          1           0      -17.111713   -5.660850   -5.772845
    157          1           0      -17.327400   -3.832463   -6.139465
    158          1           0      -18.376476   -4.798082   -5.072112
 ---------------------------------------------------------------------

 SCF Done:  E(RCAM-B3LYP) =  -4069.81178405     A.U. after   19 cycles

 Excitation energies and oscillator strengths:

 Excited State   1:      Singlet-A      1.6756 eV  739.95 nm  f=0.3875  <S**2>=0.000
     310 -> 316        0.17347
     312 -> 313        0.68561
     310 <- 316        0.10455
 This state for optimization and/or second-order correction.
 Total Energy, E(TD-HF/TD-DFT) =  -4069.75020754
 Copying the excited state density for this state as the 1-particle RhoCI density.

 Excited State   2:      Singlet-A      1.6799 eV  738.06 nm  f=0.3887  <S**2>=0.000
     309 -> 315        0.17545
     311 -> 314        0.68526
     309 <- 315        0.10508

 Excited State   3:      Singlet-A      2.1861 eV  567.15 nm  f=0.1024  <S**2>=0.000
     310 -> 313        0.64248
     312 -> 316       -0.27308

 Excited State   4:      Singlet-A      2.1926 eV  565.47 nm  f=0.0986  <S**2>=0.000
     309 -> 314        0.64071
     311 -> 315       -0.27832

 Excited State   5:      Singlet-A      3.0660 eV  404.38 nm  f=0.0000  <S**2>=0.000
     311 -> 313        0.70711

 The electronic state is 1-A.
 Alpha  occ. eigenvalues --  -46.87797 -46.87660 -19.26345 -19.26290 -19.19158
 Alpha  occ. eigenvalues --  -19.19025 -19.18813 -19.18715 -19.18172 -19.18050
 Alpha  occ. eigenvalues --  -14.42496 -14.42450 -14.41449 -14.41359 -14.39402
 Alpha  occ. eigenvalues --  -14.39352 -14.38599 -14.38587 -10.39087 -10.39084
 Alpha  occ. eigenvalues --  -10.35446 -10.35392 -10.34392 -10.34227 -10.31751
 Alpha  occ. eigenvalues --  -10.31686 -10.31406 -10.31307 -10.31021 -10.30909
 Alpha  occ. eigenvalues --  -10.30570 -10.30507 -10.30398 -10.30360 -10.30206
 Alpha  occ. eigenvalues --  -10.30142 -10.29920 -10.29896 -10.29631 -10.29436
 Alpha  occ. eigenvalues --  -10.29401 -10.29254 -10.28750 -10.28714 -10.28647
 Alpha  occ. eigenvalues --  -10.28542 -10.28404 -10.28365 -10.28135 -10.28117
 Alpha  occ. eigenvalues --  -10.28000 -10.27793 -10.27727 -10.27667 -10.27584
 Alpha  occ. eigenvalues --  -10.27521 -10.27499 -10.27483 -10.27480 -10.27467
 Alpha  occ. eigenvalues --  -10.27463 -10.27448 -10.27404 -10.27379 -10.27161
 Alpha  occ. eigenvalues --  -10.27048 -10.26707 -10.26687 -10.26415 -10.26406
 Alpha  occ. eigenvalues --  -10.26235 -10.26182 -10.26142 -10.26019 -10.26017
 Alpha  occ. eigenvalues --  -10.25935 -10.25852 -10.25845 -10.25433 -10.25402
 Alpha  occ. eigenvalues --  -10.24872 -10.24833 -10.24787 -10.24736 -10.24690
 Alpha  occ. eigenvalues --  -10.24685  -3.16539  -3.16410  -1.91421  -1.91292
 Alpha  occ. eigenvalues --   -1.91008  -1.90881  -1.90850  -1.90718  -1.16640
 Alpha  occ. eigenvalues --   -1.16638  -1.08657  -1.08630  -1.07214  -1.06967
 Alpha  occ. eigenvalues --   -1.06942  -1.06647  -1.04581  -1.04494  -1.03760
 Alpha  occ. eigenvalues --   -1.03663  -1.03234  -1.03039  -1.02411  -1.02111
 Alpha  occ. eigenvalues --   -0.91986  -0.91973  -0.89519  -0.89496  -0.89189
 Alpha  occ. eigenvalues --   -0.89147  -0.88286  -0.88222  -0.87871  -0.87794
 Alpha  occ. eigenvalues --   -0.87683  -0.87673  -0.87273  -0.87120  -0.84997
 Alpha  occ. eigenvalues --   -0.84983  -0.83936  -0.83878  -0.82965  -0.82932
 Alpha  occ. eigenvalues --   -0.82650  -0.82649  -0.81594  -0.81588  -0.80597
 Alpha  occ. eigenvalues --   -0.80441  -0.78797  -0.78635  -0.77219  -0.77143
 Alpha  occ. eigenvalues --   -0.76936  -0.76896  -0.75925  -0.75836  -0.74897
 Alpha  occ. eigenvalues --   -0.74804  -0.72774  -0.72699  -0.71672  -0.71580
 Alpha  occ. eigenvalues --   -0.69906  -0.69760  -0.68874  -0.68825  -0.67641
 Alpha  occ. eigenvalues --   -0.67601  -0.67220  -0.67197  -0.65288  -0.65269
 Alpha  occ. eigenvalues --   -0.64855  -0.64770  -0.64652  -0.64621  -0.64269
 Alpha  occ. eigenvalues --   -0.64205  -0.62301  -0.62277  -0.60441  -0.60340
 Alpha  occ. eigenvalues --   -0.59805  -0.59793  -0.58992  -0.58988  -0.58504
 Alpha  occ. eigenvalues --   -0.58425  -0.57587  -0.57553  -0.57309  -0.57237
 Alpha  occ. eigenvalues --   -0.56310  -0.56203  -0.55982  -0.55884  -0.55520
 Alpha  occ. eigenvalues --   -0.55451  -0.55340  -0.55248  -0.54525  -0.54488
 Alpha  occ. eigenvalues --   -0.53908  -0.53896  -0.53299  -0.53227  -0.53222
 Alpha  occ. eigenvalues --   -0.53140  -0.52916  -0.52900  -0.52755  -0.52666
 Alpha  occ. eigenvalues --   -0.52437  -0.52404  -0.51916  -0.51886  -0.51656
 Alpha  occ. eigenvalues --   -0.51617  -0.51201  -0.51197  -0.50570  -0.50475
 Alpha  occ. eigenvalues --   -0.50030  -0.49978  -0.49918  -0.49869  -0.49515
 Alpha  occ. eigenvalues --   -0.49486  -0.49215  -0.49200  -0.49102  -0.49097
 Alpha  occ. eigenvalues --   -0.48594  -0.48556  -0.48460  -0.48445  -0.48377
 Alpha  occ. eigenvalues --   -0.48338  -0.47695  -0.47593  -0.47297  -0.47118
 Alpha  occ. eigenvalues --   -0.46797  -0.46709  -0.46556  -0.46551  -0.46359
 Alpha  occ. eigenvalues --   -0.46270  -0.46163  -0.46086  -0.45824  -0.45821
 Alpha  occ. eigenvalues --   -0.45210  -0.45200  -0.44579  -0.44513  -0.44506
 Alpha  occ. eigenvalues --   -0.44474  -0.44144  -0.44125  -0.44089  -0.44078
 Alpha  occ. eigenvalues --   -0.44020  -0.43938  -0.43551  -0.43497  -0.43386
 Alpha  occ. eigenvalues --   -0.43384  -0.43028  -0.42928  -0.42900  -0.42701
 Alpha  occ. eigenvalues --   -0.42655  -0.42555  -0.42009  -0.41964  -0.41705
 Alpha  occ. eigenvalues --   -0.41668  -0.41534  -0.41457  -0.41141  -0.40988
 Alpha  occ. eigenvalues --   -0.40869  -0.40822  -0.40721  -0.40697  -0.40571
 Alpha  occ. eigenvalues --   -0.40494  -0.40235  -0.40223  -0.39439  -0.39429
 Alpha  occ. eigenvalues --   -0.38468  -0.38351  -0.37750  -0.37650  -0.37320
 Alpha  occ. eigenvalues --   -0.37266  -0.37264  -0.37197  -0.36769  -0.36716
 Alpha  occ. eigenvalues --   -0.36217  -0.36194  -0.34286  -0.34253  -0.33859
 Alpha  occ. eigenvalues --   -0.33774  -0.33187  -0.33175  -0.31343  -0.31274
 Alpha  occ. eigenvalues --   -0.31036  -0.30972  -0.30031  -0.29954  -0.29449
 Alpha  occ. eigenvalues --   -0.29327  -0.29322  -0.29211  -0.24081  -0.24036
 Alpha  occ. eigenvalues --   -0.21128  -0.21117
 Alpha virt. eigenvalues --   -0.08792  -0.08774  -0.01749  -0.01684  -0.00057
 Alpha virt. eigenvalues --   -0.00028   0.02199   0.02207   0.03123   0.03226
 Alpha virt. eigenvalues --    0.04717   0.04732   0.05094   0.05168   0.06175

 Mulliken charges:
               1
     1  Mg   0.838801
     2  C   -0.002993
     3  C   -0.094115
     4  C   -0.045871
     5  C   -0.063960
     6  N   -0.256795
     7  C   -0.052472
     8  C   -0.014010
     9  C   -0.087025
    10  C    0.046350
    11  C    0.104811
    12  C    0.053461
    13  C   -0.071792
    14  H    0.036082
    15  N   -0.433164
    16  C    0.168422
    17  C   -0.177130
    18  C   -0.003983
    19  C    0.148714
    20  C    0.110163
    21  C    0.012298
    22  O   -0.249591
    23  C    0.062471
    24  N   -0.341165
    25  C    0.041260
    26  C   -0.028182
    27  C   -0.023967
    28  C    0.074838
    29  C    0.076159
    30  C    0.035116
    31  C   -0.004500
    32  N   -0.310466
    33  C    0.080407
    34  C   -0.169730
    35  C    0.008331
    36  C    0.082979
    37  C    0.127318
    38  C    0.046100
    39  O   -0.188503
    40  C   -0.005322
    41  C    0.212856
    42  O   -0.257125
    43  O   -0.304786
    44  C    0.157714
    45  H   -0.017588
    46  H   -0.016806
    47  H   -0.041497
    48  H    0.000926
    49  H   -0.004027
    50  H    0.025465
    51  H    0.016461
    52  H    0.016666
    53  H    0.011224
    54  H    0.044099
    55  H    0.017869
    56  H    0.017972
    57  H    0.005878
    58  H    0.026851
    59  H    0.039585
    60  H    0.037352
    61  H    0.035692
    62  H    0.031513
    63  H    0.016581
    64  H    0.009461
    65  H    0.023243
    66  H    0.012545
    67  H    0.004757
    68  H    0.006395
    69  H    0.004717
    70  H    0.008808
    71  H    0.018143
    72  H    0.028960
    73  H    0.047524
    74  H    0.009114
    75  H    0.046000
    76  H    0.035145
    77  H    0.042911
    78  H    0.046412
    79  H    0.053643
    80  Mg   0.837845
    81  C   -0.016790
    82  C   -0.087749
    83  C   -0.045520
    84  C   -0.064881
    85  N   -0.254558
    86  C   -0.049834
    87  C   -0.015097
    88  C   -0.090514
    89  C    0.045759
    90  C    0.114362
    91  C    0.062518
    92  C   -0.077922
    93  H    0.034910
    94  N   -0.423506
    95  C    0.162930
    96  C   -0.174578
    97  C   -0.007809
    98  C    0.152133
    99  C    0.099338
   100  C    0.015566
   101  O   -0.253214
   102  C    0.061205
   103  N   -0.350061
   104  C    0.037525
   105  C   -0.019825
   106  C   -0.034813
   107  C    0.088901
   108  C    0.073648
   109  C    0.034738
   110  C   -0.007669
   111  N   -0.324122
   112  C    0.078442
   113  C   -0.163143
   114  C    0.002251
   115  C    0.096172
   116  C    0.131491
   117  C    0.042379
   118  O   -0.187860
   119  C    0.000916
   120  C    0.211263
   121  O   -0.251036
   122  O   -0.305606
   123  C    0.152022
   124  H   -0.019587
   125  H   -0.015588
   126  H   -0.040482
   127  H   -0.000604
   128  H   -0.004284
   129  H    0.022488
   130  H    0.014435
   131  H    0.016390
   132  H    0.013909
   133  H    0.037656
   134  H    0.020843
   135  H    0.019622
   136  H    0.008821
   137  H    0.026183
   138  H    0.039811
   139  H    0.038282
   140  H    0.036378
   141  H    0.033905
   142  H    0.014382
   143  H    0.012410
   144  H    0.025107
   145  H    0.011672
   146  H    0.005666
   147  H    0.006232
   148  H    0.003640
   149  H    0.010922
   150  H    0.017917
   151  H    0.030123
   152  H    0.045997
   153  H    0.008484
   154  H    0.046959
   155  H    0.035083
   156  H    0.043933
   157  H    0.049527
   158  H    0.053565
 Sum of Mulliken charges =  -0.00000

 Dipole moment (field-independent basis, Debye):
    X=              4.2021    Y=              4.7956    Z=              1.7176  Tot=              6.6035
 Quadrupole moment (field-independent basis, Debye-Ang):
   XX=           -517.5670   YY=           -506.9008   ZZ=           -492.0268
   XY=            -29.1585   XZ=             91.5444   YZ=              6.5155

 Normal termination of Gaussian 16 at Sun Sep 12 22:53:04 2021.
