 Gaussian 16, Revision A.03,
 Gaussian 16:  ES64L-G16RevA.03 25-Dec-2016

 -----------------------------------
 #p cam-b3lyp/Def2SVP td=(nstates=5)
 -----------------------------------

 --------------------------------
 TDDFT excited states in gaussian
 --------------------------------
 Symbolic Z-matrix:
 Charge =  0 Multiplicity = 1

                         Standard orientation:
 ---------------------------------------------------------------------
 Center     Atomic      Atomic             Coordinates (Angstroms)
 Number     Number       Type             X           Y           Z
 ---------------------------------------------------------------------
      1         12           0       16.045581   -0.644133    0.444354
      2          6           0       16.291516    2.329854   -1.532293
      3          6           0       16.853365    1.267685    3.152768
      4          6           0       16.280267   -3.321387    2.127760
      5          6           0       16.380308   -2.459534   -2.511646
      6          7           0       16.490829    1.513986    0.656300
      7          6           0       16.492884    2.556207   -0.168893
      8          6           0       16.654206    3.922628    0.562025
      9          6           0       17.376138    3.414289    1.889580
     10          6           0       16.848652    1.990715    1.923037
     11          6           0       18.896773    3.372163    1.778236
     12          6           0       15.275446    4.592969    0.880453
     13          6           0       15.345068    6.065802    1.294300
     14          1           0       14.277922    6.962048    0.875624
     15          7           0       16.018938   -0.935538    2.398126
     16          6           0       16.364175   -0.040982    3.355135
     17          6           0       16.174430   -0.733484    4.647853
     18          6           0       15.872818   -2.162926    4.358334
     19          6           0       16.073705   -2.203331    2.932365
     20          6           0       16.236187   -0.035761    5.971907
     21          6           0       15.478019   -3.312808    5.230136
     22          8           0       15.490352   -4.520324    4.810226
     23          6           0       15.157237   -2.993681    6.633097
     24          7           0       16.514052   -2.611173   -0.074224
     25          6           0       16.488121   -3.589897    0.837045
     26          6           0       16.577067   -4.940444    0.190477
     27          6           0       16.424299   -4.690031   -1.379144
     28          6           0       16.351851   -3.143153   -1.365381
     29          6           0       17.867545   -5.727093    0.458545
     30          6           0       15.306262   -5.474297   -2.110813
     31          6           0       13.951155   -4.993584   -1.642094
     32          7           0       16.115737   -0.185819   -1.676040
     33          6           0       16.282958   -1.095482   -2.730186
     34          6           0       16.375908   -0.305595   -3.971760
     35          6           0       16.272249    1.018200   -3.549071
     36          6           0       16.150301    1.054298   -2.130579
     37          6           0       16.593344   -0.827717   -5.277342
     38          6           0       16.260884    2.411767   -3.963438
     39          8           0       16.236767    2.993483   -5.049033
     40          6           0       16.395369    3.322065   -2.663785
     41          6           0       15.348693    4.399022   -2.752902
     42          8           0       14.134630    4.118420   -2.684496
     43          8           0       15.938928    5.600902   -2.665430
     44          6           0       14.952970    6.713251   -2.717563
     45          1           0       17.326637    1.717540    4.027745
     46          1           0       16.256753   -4.275362    2.658625
     47          1           0       16.400538   -2.961396   -3.480758
     48          1           0       17.289256    4.642346    0.045168
     49          1           0       17.042169    3.962939    2.770017
     50          1           0       19.227472    3.575980    0.759895
     51          1           0       19.182620    2.363320    2.076600
     52          1           0       19.357105    4.041472    2.505488
     53          1           0       14.869144    4.162139    1.795530
     54          1           0       14.591279    4.487208    0.037805
     55          1           0       16.319281    6.498581    1.065125
     56          1           0       15.273797    6.119039    2.380710
     57          1           0       16.638044    0.972057    5.875164
     58          1           0       16.972455   -0.564880    6.576598
     59          1           0       15.272615   -0.036817    6.481671
     60          1           0       16.021997   -2.523782    7.102068
     61          1           0       14.810788   -3.924148    7.081487
     62          1           0       14.357504   -2.252741    6.652698
     63          1           0       15.770652   -5.589822    0.528749
     64          1           0       17.331806   -4.949309   -1.924927
     65          1           0       17.697945   -6.708609    0.901904
     66          1           0       18.508620   -5.116527    1.093780
     67          1           0       18.503356   -5.873363   -0.414247
     68          1           0       15.369877   -6.535650   -1.873264
     69          1           0       15.349319   -5.374029   -3.195406
     70          1           0       13.793122   -5.564635   -0.727896
     71          1           0       13.187234   -5.226251   -2.384726
     72          1           0       13.976073   -3.938906   -1.367286
     73          1           0       15.909774   -0.293601   -5.937206
     74          1           0       16.415492   -1.902420   -5.308702
     75          1           0       17.643003   -0.573719   -5.424166
     76          1           0       17.405215    3.731071   -2.670677
     77          1           0       15.251969    7.369134   -3.535274
     78          1           0       14.913866    7.139904   -1.715144
     79          1           0       13.941628    6.446865   -3.026700
     80         12           0      -15.689815   -0.682033   -0.311299
     81          6           0      -18.084403    1.731330    0.837911
     82          6           0      -13.868348    1.929306   -1.535114
     83          6           0      -13.793942   -2.796678   -1.726007
     84          6           0      -18.191206   -3.092314   -0.029682
     85          7           0      -16.035686    1.502486   -0.288784
     86          6           0      -16.949623    2.308284    0.230589
     87          6           0      -16.590428    3.816881    0.162358
     88          6           0      -15.573231    3.765964   -1.079248
     89          6           0      -15.097035    2.320919   -0.945992
     90          6           0      -16.259558    3.920389   -2.426255
     91          6           0      -15.879603    4.321667    1.466934
     92          6           0      -15.778675    5.843085    1.596731
     93          1           0      -15.893831    6.437435    2.925625
     94          7           0      -13.849149   -0.480962   -1.025511
     95          6           0      -13.262799    0.656008   -1.455359
     96          6           0      -11.914991    0.269999   -1.900976
     97          6           0      -11.812017   -1.213845   -1.852704
     98          6           0      -13.184529   -1.563488   -1.546011
     99          6           0      -10.851985    1.273712   -2.241560
    100          6           0      -10.670316   -2.161913   -2.062175
    101          8           0      -10.858811   -3.421464   -2.206490
    102          6           0       -9.334054   -1.561579   -2.186677
    103          7           0      -16.006404   -2.614779   -1.008878
    104          6           0      -14.999106   -3.333628   -1.534742
    105          6           0      -15.395341   -4.780095   -1.711200
    106          6           0      -16.802377   -4.933993   -0.966787
    107          6           0      -17.028625   -3.464966   -0.547048
    108          6           0      -15.528733   -5.261827   -3.155678
    109          6           0      -16.906012   -6.037880    0.121042
    110          6           0      -16.032673   -5.681795    1.302517
    111          7           0      -17.706199   -0.748025    0.461949
    112          6           0      -18.585731   -1.852783    0.457457
    113          6           0      -19.881782   -1.379593    0.985461
    114          6           0      -19.671501   -0.016142    1.240961
    115          6           0      -18.344645    0.340130    0.877594
    116          6           0      -21.060032   -2.165863    1.125469
    117          6           0      -20.273545    1.205120    1.725485
    118          8           0      -21.348280    1.495499    2.249273
    119          6           0      -19.311924    2.419101    1.367795
    120          6           0      -19.161648    3.270808    2.598452
    121          8           0      -18.594551    2.823902    3.611022
    122          8           0      -19.515035    4.535461    2.304936
    123          6           0      -19.372355    5.420884    3.491307
    124          1           0      -13.335487    2.652516   -2.153117
    125          1           0      -13.148086   -3.590432   -2.108504
    126          1           0      -18.991642   -3.804783    0.180937
    127          1           0      -17.422620    4.472142   -0.065393
    128          1           0      -14.744368    4.455008   -0.939334
    129          1           0      -17.335374    3.920553   -2.332612
    130          1           0      -15.931757    3.078343   -3.021691
    131          1           0      -15.889376    4.813508   -2.937757
    132          1           0      -14.813351    4.066351    1.415419
    133          1           0      -16.352047    3.915072    2.339923
    134          1           0      -16.433203    6.361757    0.885729
    135          1           0      -14.770945    6.150040    1.306408
    136          1           0      -11.269656    2.282898   -2.343979
    137          1           0      -10.488911    1.026881   -3.245119
    138          1           0      -10.010866    1.249063   -1.545446
    139          1           0       -9.327705   -0.864369   -3.021131
    140          1           0       -8.639871   -2.402418   -2.241374
    141          1           0       -9.128808   -0.974558   -1.284515
    142          1           0      -14.675180   -5.438463   -1.241073
    143          1           0      -17.609524   -5.187901   -1.669540
    144          1           0      -14.884792   -6.131244   -3.387057
    145          1           0      -15.300937   -4.434018   -3.813991
    146          1           0      -16.538617   -5.529369   -3.461883
    147          1           0      -16.531054   -6.988198   -0.266837
    148          1           0      -17.919734   -6.208982    0.467582
    149          1           0      -15.043028   -6.029666    0.991584
    150          1           0      -16.369794   -6.199916    2.198035
    151          1           0      -15.973576   -4.595238    1.434930
    152          1           0      -21.484279   -1.921945    2.090364
    153          1           0      -20.840959   -3.228454    1.043764
    154          1           0      -21.640958   -1.799923    0.274646
    155          1           0      -19.769526    2.967675    0.543650
    156          1           0      -20.343557    5.899171    3.651653
    157          1           0      -18.515221    6.083635    3.268099
    158          1           0      -19.208093    4.948245    4.452595
 ---------------------------------------------------------------------

 SCF Done:  E(RCAM-B3LYP) =  -4069.81179477     A.U. after   19 cycles

 Excitation energies and oscillator strengths:

 Excited State   1:      Singlet-A      1.6756 eV  739.96 nm  f=0.3557  <S**2>=0.000
     310 -> 316        0.17214
     312 -> 313        0.68012
     310 <- 316        0.10376
 This state for optimization and/or second-order correction.
 Total Energy, E(TD-HF/TD-DFT) =  -4069.75021922
 Copying the excited state density for this state as the 1-particle RhoCI density.

 Excited State   2:      Singlet-A      1.6799 eV  738.03 nm  f=0.4255  <S**2>=0.000
     309 -> 315        0.17407
     311 -> 314        0.67977
     309 <- 315        0.10424

 Excited State   3:      Singlet-A      2.1862 eV  567.11 nm  f=0.0953  <S**2>=0.000
     310 -> 313        0.64209
     312 -> 316       -0.27305

 Excited State   4:      Singlet-A      2.1926 eV  565.47 nm  f=0.1048  <S**2>=0.000
     309 -> 314        0.64033
     311 -> 315       -0.27819

 Excited State   5:      Singlet-A      3.0675 eV  404.19 nm  f=0.0000  <S**2>=0.000
     312 -> 314        0.70710

 The electronic state is 1-A.
 Alpha  occ. eigenvalues --  -46.87802 -46.87659 -19.26353 -19.26297 -19.19164
 Alpha  occ. eigenvalues --  -19.19032 -19.18817 -19.18706 -19.18177 -19.18052
 Alpha  occ. eigenvalues --  -14.42496 -14.42456 -14.41454 -14.41358 -14.39408
 Alpha  occ. eigenvalues --  -14.39351 -14.38599 -14.38592 -10.39093 -10.39092
 Alpha  occ. eigenvalues --  -10.35450 -10.35383 -10.34398 -10.34230 -10.31760
 Alpha  occ. eigenvalues --  -10.31695 -10.31411 -10.31309 -10.31021 -10.30915
 Alpha  occ. eigenvalues --  -10.30576 -10.30513 -10.30397 -10.30360 -10.30211
 Alpha  occ. eigenvalues --  -10.30139 -10.29926 -10.29895 -10.29636 -10.29434
 Alpha  occ. eigenvalues --  -10.29399 -10.29259 -10.28757 -10.28718 -10.28655
 Alpha  occ. eigenvalues --  -10.28549 -10.28403 -10.28370 -10.28139 -10.28123
 Alpha  occ. eigenvalues --  -10.28000 -10.27798 -10.27732 -10.27668 -10.27589
 Alpha  occ. eigenvalues --  -10.27518 -10.27504 -10.27484 -10.27483 -10.27464
 Alpha  occ. eigenvalues --  -10.27456 -10.27452 -10.27410 -10.27375 -10.27167
 Alpha  occ. eigenvalues --  -10.27052 -10.26714 -10.26693 -10.26410 -10.26400
 Alpha  occ. eigenvalues --  -10.26240 -10.26186 -10.26138 -10.26024 -10.26024
 Alpha  occ. eigenvalues --  -10.25934 -10.25854 -10.25850 -10.25437 -10.25397
 Alpha  occ. eigenvalues --  -10.24872 -10.24839 -10.24792 -10.24731 -10.24689
 Alpha  occ. eigenvalues --  -10.24689  -3.16545  -3.16409  -1.91426  -1.91292
 Alpha  occ. eigenvalues --   -1.91013  -1.90880  -1.90855  -1.90717  -1.16646
 Alpha  occ. eigenvalues --   -1.16646  -1.08660  -1.08636  -1.07218  -1.06958
 Alpha  occ. eigenvalues --   -1.06948  -1.06655  -1.04587  -1.04494  -1.03766
 Alpha  occ. eigenvalues --   -1.03662  -1.03239  -1.03038  -1.02416  -1.02110
 Alpha  occ. eigenvalues --   -0.91987  -0.91979  -0.89524  -0.89494  -0.89195
 Alpha  occ. eigenvalues --   -0.89151  -0.88291  -0.88220  -0.87876  -0.87794
 Alpha  occ. eigenvalues --   -0.87683  -0.87679  -0.87277  -0.87114  -0.84999
 Alpha  occ. eigenvalues --   -0.84989  -0.83940  -0.83876  -0.82970  -0.82925
 Alpha  occ. eigenvalues --   -0.82655  -0.82650  -0.81597  -0.81595  -0.80603
 Alpha  occ. eigenvalues --   -0.80442  -0.78802  -0.78632  -0.77224  -0.77143
 Alpha  occ. eigenvalues --   -0.76942  -0.76899  -0.75931  -0.75838  -0.74903
 Alpha  occ. eigenvalues --   -0.74802  -0.72780  -0.72698  -0.71678  -0.71580
 Alpha  occ. eigenvalues --   -0.69910  -0.69757  -0.68879  -0.68826  -0.67647
 Alpha  occ. eigenvalues --   -0.67600  -0.67226  -0.67197  -0.65294  -0.65271
 Alpha  occ. eigenvalues --   -0.64860  -0.64770  -0.64654  -0.64627  -0.64274
 Alpha  occ. eigenvalues --   -0.64203  -0.62307  -0.62280  -0.60446  -0.60336
 Alpha  occ. eigenvalues --   -0.59811  -0.59796  -0.58993  -0.58992  -0.58510
 Alpha  occ. eigenvalues --   -0.58425  -0.57593  -0.57556  -0.57314  -0.57235
 Alpha  occ. eigenvalues --   -0.56316  -0.56203  -0.55989  -0.55887  -0.55525
 Alpha  occ. eigenvalues --   -0.55449  -0.55345  -0.55248  -0.54531  -0.54489
 Alpha  occ. eigenvalues --   -0.53912  -0.53902  -0.53304  -0.53228  -0.53226
 Alpha  occ. eigenvalues --   -0.53140  -0.52922  -0.52902  -0.52760  -0.52661
 Alpha  occ. eigenvalues --   -0.52442  -0.52401  -0.51921  -0.51886  -0.51656
 Alpha  occ. eigenvalues --   -0.51623  -0.51202  -0.51201  -0.50575  -0.50467
 Alpha  occ. eigenvalues --   -0.50035  -0.49977  -0.49922  -0.49865  -0.49520
 Alpha  occ. eigenvalues --   -0.49484  -0.49221  -0.49200  -0.49104  -0.49103
 Alpha  occ. eigenvalues --   -0.48600  -0.48558  -0.48465  -0.48450  -0.48376
 Alpha  occ. eigenvalues --   -0.48333  -0.47700  -0.47592  -0.47302  -0.47115
 Alpha  occ. eigenvalues --   -0.46802  -0.46709  -0.46562  -0.46552  -0.46364
 Alpha  occ. eigenvalues --   -0.46269  -0.46169  -0.46086  -0.45830  -0.45824
 Alpha  occ. eigenvalues --   -0.45208  -0.45205  -0.44585  -0.44514  -0.44511
 Alpha  occ. eigenvalues --   -0.44475  -0.44149  -0.44126  -0.44094  -0.44076
 Alpha  occ. eigenvalues --   -0.44025  -0.43935  -0.43554  -0.43503  -0.43391
 Alpha  occ. eigenvalues --   -0.43385  -0.43033  -0.42931  -0.42902  -0.42708
 Alpha  occ. eigenvalues --   -0.42661  -0.42552  -0.42015  -0.41964  -0.41710
 Alpha  occ. eigenvalues --   -0.41669  -0.41540  -0.41458  -0.41147  -0.40989
 Alpha  occ. eigenvalues --   -0.40875  -0.40826  -0.40719  -0.40695  -0.40576
 Alpha  occ. eigenvalues --   -0.40493  -0.40242  -0.40225  -0.39444  -0.39426
 Alpha  occ. eigenvalues --   -0.38473  -0.38350  -0.37756  -0.37653  -0.37325
 Alpha  occ. eigenvalues --   -0.37270  -0.37265  -0.37198  -0.36773  -0.36723
 Alpha  occ. eigenvalues --   -0.36217  -0.36200  -0.34292  -0.34253  -0.33864
 Alpha  occ. eigenvalues --   -0.33781  -0.33192  -0.33175  -0.31347  -0.31266
 Alpha  occ. eigenvalues --   -0.31041  -0.30972  -0.30037  -0.29957  -0.29454
 Alpha  occ. eigenvalues --   -0.29328  -0.29324  -0.29211  -0.24086  -0.24035
 Alpha  occ. eigenvalues --   -0.21133  -0.21116
 Alpha virt. eigenvalues --   -0.08790  -0.08779  -0.01755  -0.01682  -0.00062
 Alpha virt. eigenvalues --   -0.00025   0.02194   0.02207   0.03114   0.03226
 Alpha virt. eigenvalues --    0.04712   0.04730   0.05087   0.05163   0.06168

 Mulliken charges:
               1
     1  Mg   0.838655
     2  C   -0.003000
     3  C   -0.094108
     4  C   -0.045843
     5  C   -0.063946
     6  N   -0.256777
     7  C   -0.052467
     8  C   -0.014017
     9  C   -0.086979
    10  C    0.046302
    11  C    0.104804
    12  C    0.053464
    13  C   -0.071782
    14  H    0.036040
    15  N   -0.433128
    16  C    0.168432
    17  C   -0.177145
    18  C   -0.003974
    19  C    0.148724
    20  C    0.110181
    21  C    0.012312
    22  O   -0.249579
    23  C    0.062461
    24  N   -0.341115
    25  C    0.041239
    26  C   -0.028180
    27  C   -0.023985
    28  C    0.074844
    29  C    0.076167
    30  C    0.035127
    31  C   -0.004511
    32  N   -0.310443
    33  C    0.080369
    34  C   -0.169732
    35  C    0.008341
    36  C    0.082963
    37  C    0.127319
    38  C    0.046092
    39  O   -0.188513
    40  C   -0.005326
    41  C    0.212874
    42  O   -0.257146
    43  O   -0.304784
    44  C    0.157722
    45  H   -0.017585
    46  H   -0.016796
    47  H   -0.041494
    48  H    0.000919
    49  H   -0.004030
    50  H    0.025468
    51  H    0.016468
    52  H    0.016670
    53  H    0.011215
    54  H    0.044083
    55  H    0.017880
    56  H    0.017972
    57  H    0.005874
    58  H    0.026861
    59  H    0.039586
    60  H    0.037359
    61  H    0.035715
    62  H    0.031513
    63  H    0.016590
    64  H    0.009464
    65  H    0.023251
    66  H    0.012548
    67  H    0.004760
    68  H    0.006400
    69  H    0.004716
    70  H    0.008819
    71  H    0.018144
    72  H    0.028955
    73  H    0.047517
    74  H    0.009118
    75  H    0.046004
    76  H    0.035148
    77  H    0.042913
    78  H    0.046406
    79  H    0.053619
    80  Mg   0.837782
    81  C   -0.016814
    82  C   -0.087773
    83  C   -0.045468
    84  C   -0.064898
    85  N   -0.254569
    86  C   -0.049855
    87  C   -0.015087
    88  C   -0.090509
    89  C    0.045751
    90  C    0.114363
    91  C    0.062515
    92  C   -0.077902
    93  H    0.034864
    94  N   -0.423502
    95  C    0.162938
    96  C   -0.174579
    97  C   -0.007743
    98  C    0.152111
    99  C    0.099342
   100  C    0.015600
   101  O   -0.253133
   102  C    0.061175
   103  N   -0.350056
   104  C    0.037519
   105  C   -0.019839
   106  C   -0.034806
   107  C    0.088917
   108  C    0.073642
   109  C    0.034740
   110  C   -0.007682
   111  N   -0.324088
   112  C    0.078413
   113  C   -0.163165
   114  C    0.002223
   115  C    0.096161
   116  C    0.131485
   117  C    0.042357
   118  O   -0.187939
   119  C    0.000927
   120  C    0.211257
   121  O   -0.251033
   122  O   -0.305635
   123  C    0.152042
   124  H   -0.019585
   125  H   -0.015521
   126  H   -0.040491
   127  H   -0.000672
   128  H   -0.004283
   129  H    0.022438
   130  H    0.014447
   131  H    0.016326
   132  H    0.013939
   133  H    0.037657
   134  H    0.020788
   135  H    0.019632
   136  H    0.008791
   137  H    0.026269
   138  H    0.039898
   139  H    0.038339
   140  H    0.036529
   141  H    0.033919
   142  H    0.014430
   143  H    0.012395
   144  H    0.025185
   145  H    0.011662
   146  H    0.005658
   147  H    0.006271
   148  H    0.003620
   149  H    0.010964
   150  H    0.017913
   151  H    0.030102
   152  H    0.045973
   153  H    0.008495
   154  H    0.046910
   155  H    0.035002
   156  H    0.043886
   157  H    0.049503
   158  H    0.053562
 Sum of Mulliken charges =  -0.00000

 Dipole moment (field-independent basis, Debye):
    X=              4.6543    Y=              2.9913    Z=              1.2706  Tot=              5.6767
 Quadrupole moment (field-independent basis, Debye-Ang):
   XX=           -551.4095   YY=           -467.9157   ZZ=           -521.6172
   XY=              6.3553   XZ=            120.3756   YZ=             28.4699

 Normal termination of Gaussian 16 at Sun Sep 12 10:04:55 2021.
