 Gaussian 16, Revision A.03,
 Gaussian 16:  ES64L-G16RevA.03 25-Dec-2016

 -----------------------------------
 #p cam-b3lyp/Def2SVP td=(nstates=5)
 -----------------------------------

 --------------------------------
 TDDFT excited states in gaussian
 --------------------------------
 Symbolic Z-matrix:
 Charge =  0 Multiplicity = 1

                         Standard orientation:
 ---------------------------------------------------------------------
 Center     Atomic      Atomic             Coordinates (Angstroms)
 Number     Number       Type             X           Y           Z
 ---------------------------------------------------------------------
      1         12           0        4.423244   -0.640585    0.260493
      2          6           0        4.665334    2.649595   -1.128149
      3          6           0        5.038936    0.762266    3.309427
      4          6           0        4.665184   -3.574226    1.440253
      5          6           0        4.956752   -1.876595   -2.954053
      6          7           0        4.787251    1.452255    0.883522
      7          6           0        4.794376    2.627531    0.262357
      8          6           0        4.876185    3.840696    1.236478
      9          6           0        5.550613    3.115298    2.485855
     10          6           0        5.068894    1.697621    2.232745
     11          6           0        7.075380    3.129932    2.448767
     12          6           0        3.462736    4.408981    1.598341
     13          6           0        3.464547    5.782550    2.275585
     14          1           0        2.389746    6.714943    1.970963
     15          7           0        4.313582   -1.284820    2.124839
     16          6           0        4.583695   -0.572455    3.245045
     17          6           0        4.355620   -1.493884    4.378902
     18          6           0        4.114895   -2.852980    3.819432
     19          6           0        4.384336   -2.627276    2.422351
     20          6           0        4.331757   -1.048737    5.808945
     21          6           0        3.716984   -4.151809    4.446202
     22          8           0        3.788617   -5.261577    3.815441
     23          6           0        3.319837   -4.102174    5.864952
     24          7           0        4.979732   -2.468119   -0.580980
     25          6           0        4.942619   -3.597283    0.134977
     26          6           0        5.106148   -4.804393   -0.740284
     27          6           0        5.019831   -4.274891   -2.244255
     28          6           0        4.896347   -2.758734   -1.953928
     29          6           0        6.407469   -5.596292   -0.551943
     30          6           0        3.963921   -4.938187   -3.163772
     31          6           0        2.573155   -4.583202   -2.687481
     32          7           0        4.578791    0.199183   -1.734912
     33          6           0        4.825384   -0.498246   -2.926322
     34          6           0        4.951221    0.507278   -3.997375
     35          6           0        4.784485    1.728681   -3.347590
     36          6           0        4.594347    1.501963   -1.954486
     37          6           0        5.247207    0.237898   -5.362754
     38          6           0        4.747274    3.173859   -3.502290
     39          8           0        4.755645    3.943516   -4.464086
     40          6           0        4.790235    3.834107   -2.053824
     41          6           0        3.714355    4.884343   -2.000960
     42          8           0        2.508223    4.567554   -2.048477
     43          8           0        4.260227    6.063487   -1.666018
     44          6           0        3.242055    7.143172   -1.567224
     45          1           0        5.455277    1.055551    4.275131
     46          1           0        4.647701   -4.609462    1.787268
     47          1           0        5.039254   -2.192206   -3.995704
     48          1           0        5.511176    4.657478    0.892853
     49          1           0        5.157566    3.485745    3.432430
     50          1           0        7.447129    3.524194    1.503103
     51          1           0        7.379553    2.090535    2.573766
     52          1           0        7.478637    3.665615    3.308537
     53          1           0        3.027813    3.808701    2.397446
     54          1           0        2.823083    4.443035    0.715726
     55          1           0        4.433874    6.272673    2.180230
     56          1           0        3.340178    5.634580    3.348356
     57          1           0        4.704628   -0.031071    5.917886
     58          1           0        5.055427   -1.662065    6.345451
     59          1           0        3.345661   -1.165583    6.258718
     60          1           0        4.145601   -3.705774    6.456162
     61          1           0        2.983094   -5.106804    6.118274
     62          1           0        2.496310   -3.396279    5.976596
     63          1           0        4.306242   -5.523412   -0.568273
     64          1           0        5.960161   -4.408649   -2.779570
     65          1           0        6.249188   -6.646027   -0.303531
     66          1           0        6.997448   -5.097282    0.216305
     67          1           0        7.088358   -5.565568   -1.402157
     68          1           0        4.050827   -6.023291   -3.119696
     69          1           0        4.055025   -4.640337   -4.208395
     70          1           0        2.390711   -5.315315   -1.901633
     71          1           0        1.853285   -4.694037   -3.499093
     72          1           0        2.550576   -3.596253   -2.224980
     73          1           0        4.578597    0.867460   -5.949765
     74          1           0        5.106222   -0.816831   -5.597856
     75          1           0        6.293791    0.539017   -5.405709
     76          1           0        5.785380    4.261061   -1.933336
     77          1           0        3.557892    7.944331   -2.235526
     78          1           0        3.141589    7.378330   -0.507502
     79          1           0        2.255735    6.914137   -1.972260
     80         12           0       -4.552434   -0.824275   -0.419190
     81          6           0       -4.496305    2.607161    0.630163
     82          6           0       -3.903384   -1.670088    2.820866
     83          6           0       -4.149064   -3.819274   -1.385986
     84          6           0       -4.057981    0.308795   -3.677621
     85          7           0       -4.259558    0.400084    1.399447
     86          6           0       -4.322062    1.691169    1.688481
     87          6           0       -4.270803    2.013759    3.205993
     88          6           0       -3.519985    0.686234    3.708822
     89          6           0       -3.944493   -0.270736    2.596762
     90          6           0       -2.005230    0.805505    3.683927
     91          6           0       -5.701020    2.139474    3.838992
     92          6           0       -5.732481    2.754675    5.239816
     93          1           0       -6.862549    3.606200    5.600814
     94          7           0       -4.580317   -2.520843    0.610114
     95          6           0       -4.313698   -2.680314    1.923413
     96          6           0       -4.449683   -4.120754    2.189527
     97          6           0       -4.656803   -4.819935    0.892246
     98          6           0       -4.444685   -3.725622   -0.033806
     99          6           0       -4.458142   -4.694726    3.576579
    100          6           0       -4.978322   -6.241366    0.542442
    101          8           0       -4.878304   -6.678457   -0.658297
    102          6           0       -5.323501   -7.129963    1.661698
    103          7           0       -3.950194   -1.652894   -2.228342
    104          6           0       -3.910090   -2.986023   -2.398852
    105          6           0       -3.716781   -3.344395   -3.853018
    106          6           0       -3.878199   -1.972408   -4.658733
    107          6           0       -4.056138   -1.000998   -3.471264
    108          6           0       -2.376119   -3.987533   -4.207112
    109          6           0       -4.931965   -1.946022   -5.799589
    110          6           0       -6.323197   -2.063842   -5.219962
    111          7           0       -4.500635    1.096590   -1.406928
    112          6           0       -4.252881    1.346062   -2.774573
    113          6           0       -4.205234    2.812379   -2.948006
    114          6           0       -4.407273    3.318015   -1.654940
    115          6           0       -4.549259    2.242556   -0.736947
    116          6           0       -3.950068    3.497773   -4.169173
    117          6           0       -4.522123    4.516942   -0.856140
    118          8           0       -4.570231    5.721921   -1.099937
    119          6           0       -4.458692    4.109440    0.678887
    120          6           0       -5.578166    4.815508    1.393553
    121          8           0       -6.763862    4.542723    1.136013
    122          8           0       -5.067966    5.533961    2.410359
    123          6           0       -6.140970    6.243878    3.156344
    124          1           0       -3.477549   -2.033380    3.756583
    125          1           0       -4.109306   -4.833187   -1.790803
    126          1           0       -4.005805    0.742114   -4.678710
    127          1           0       -3.689186    2.890457    3.464647
    128          1           0       -3.907672    0.352384    4.667778
    129          1           0       -1.681056    1.724633    3.218892
    130          1           0       -1.652128   -0.048454    3.120794
    131          1           0       -1.601250    0.688631    4.693621
    132          1           0       -6.081550    1.135327    4.066203
    133          1           0       -6.358323    2.684798    3.189995
    134          1           0       -4.785093    3.244125    5.496429
    135          1           0       -5.824080    1.947956    5.971132
    136          1           0       -4.120602   -3.960047    4.317999
    137          1           0       -3.693261   -5.478389    3.603019
    138          1           0       -5.421916   -5.132355    3.845463
    139          1           0       -4.499710   -7.153918    2.371105
    140          1           0       -5.607861   -8.079466    1.204028
    141          1           0       -6.183536   -6.706387    2.192292
    142          1           0       -4.479061   -4.038587   -4.184868
    143          1           0       -2.944428   -1.684007   -5.163450
    144          1           0       -2.481045   -4.974897   -4.695150
    145          1           0       -1.788109   -4.070932   -3.302776
    146          1           0       -1.731237   -3.388221   -4.847544
    147          1           0       -4.796933   -2.806261   -6.459829
    148          1           0       -4.878536   -1.055134   -6.416401
    149          1           0       -6.443378   -3.142819   -5.084125
    150          1           0       -7.062129   -1.668698   -5.914138
    151          1           0       -6.377280   -1.598772   -4.228789
    152          1           0       -4.656268    4.315779   -4.220528
    153          1           0       -4.046793    2.833662   -5.025550
    154          1           0       -2.914743    3.808654   -4.005684
    155          1           0       -3.479758    4.407044    1.056650
    156          1           0       -5.878346    7.306281    3.160003
    157          1           0       -6.207320    5.738017    4.137899
    158          1           0       -7.127938    6.271539    2.709591
 ---------------------------------------------------------------------

 SCF Done:  E(RCAM-B3LYP) =  -4069.81164214     A.U. after   19 cycles

 Excitation energies and oscillator strengths:

 Excited State   1:      Singlet-A      1.6525 eV  750.27 nm  f=0.0825  <S**2>=0.000
     309 -> 315       -0.11567
     310 -> 316        0.12165
     311 -> 313        0.47217
     312 -> 314        0.49928
 This state for optimization and/or second-order correction.
 Total Energy, E(TD-HF/TD-DFT) =  -4069.75091291
 Copying the excited state density for this state as the 1-particle RhoCI density.

 Excited State   2:      Singlet-A      1.6971 eV  730.55 nm  f=0.5986  <S**2>=0.000
     309 -> 315       -0.13044
     310 -> 316       -0.12347
     311 -> 313        0.49721
     312 -> 314       -0.47043

 Excited State   3:      Singlet-A      2.1833 eV  567.89 nm  f=0.0327  <S**2>=0.000
     309 -> 313       -0.35482
     310 -> 314        0.53727
     311 -> 315       -0.14828
     312 -> 316       -0.22634

 Excited State   4:      Singlet-A      2.1930 eV  565.37 nm  f=0.1521  <S**2>=0.000
     309 -> 313        0.53406
     310 -> 314        0.35147
     311 -> 315        0.23338
     312 -> 316       -0.15478

 Excited State   5:      Singlet-A      2.3489 eV  527.83 nm  f=0.0000  <S**2>=0.000
     312 -> 313        0.70708

 The electronic state is 1-A.
 Alpha  occ. eigenvalues --  -46.87891 -46.87447 -19.26250 -19.26235 -19.19033
 Alpha  occ. eigenvalues --  -19.18996 -19.18970 -19.18513 -19.18241 -19.17822
 Alpha  occ. eigenvalues --  -14.42543 -14.42299 -14.41539 -14.41148 -14.39507
 Alpha  occ. eigenvalues --  -14.39139 -14.38679 -14.38368 -10.39062 -10.38956
 Alpha  occ. eigenvalues --  -10.35609 -10.35193 -10.34456 -10.34001 -10.31699
 Alpha  occ. eigenvalues --  -10.31563 -10.31489 -10.31108 -10.31002 -10.30851
 Alpha  occ. eigenvalues --  -10.30664 -10.30604 -10.30309 -10.30163 -10.30127
 Alpha  occ. eigenvalues --  -10.30000 -10.29936 -10.29739 -10.29668 -10.29367
 Alpha  occ. eigenvalues --  -10.29216 -10.29164 -10.28814 -10.28626 -10.28611
 Alpha  occ. eigenvalues --  -10.28550 -10.28463 -10.28192 -10.28191 -10.28036
 Alpha  occ. eigenvalues --  -10.27898 -10.27826 -10.27763 -10.27703 -10.27657
 Alpha  occ. eigenvalues --  -10.27572 -10.27513 -10.27488 -10.27476 -10.27320
 Alpha  occ. eigenvalues --  -10.27281 -10.27278 -10.27238 -10.27201 -10.27200
 Alpha  occ. eigenvalues --  -10.26851 -10.26760 -10.26641 -10.26613 -10.26301
 Alpha  occ. eigenvalues --  -10.26239 -10.26235 -10.26115 -10.25968 -10.25958
 Alpha  occ. eigenvalues --  -10.25945 -10.25704 -10.25495 -10.25452 -10.25260
 Alpha  occ. eigenvalues --  -10.24931 -10.24878 -10.24727 -10.24622 -10.24565
 Alpha  occ. eigenvalues --  -10.24480  -3.16634  -3.16197  -1.91515  -1.91102
 Alpha  occ. eigenvalues --   -1.91079  -1.90944  -1.90668  -1.90504  -1.16590
 Alpha  occ. eigenvalues --   -1.16536  -1.08690  -1.08432  -1.07373  -1.06817
 Alpha  occ. eigenvalues --   -1.06768  -1.06618  -1.04673  -1.04299  -1.03852
 Alpha  occ. eigenvalues --   -1.03452  -1.03332  -1.02818  -1.02505  -1.01891
 Alpha  occ. eigenvalues --   -0.92050  -0.91776  -0.89597  -0.89291  -0.89259
 Alpha  occ. eigenvalues --   -0.89031  -0.88361  -0.88030  -0.87970  -0.87763
 Alpha  occ. eigenvalues --   -0.87533  -0.87471  -0.87417  -0.86910  -0.85058
 Alpha  occ. eigenvalues --   -0.84857  -0.83999  -0.83693  -0.83121  -0.82743
 Alpha  occ. eigenvalues --   -0.82722  -0.82502  -0.81613  -0.81428  -0.80664
 Alpha  occ. eigenvalues --   -0.80261  -0.78922  -0.78410  -0.77301  -0.76979
 Alpha  occ. eigenvalues --   -0.76974  -0.76751  -0.75977  -0.75682  -0.74961
 Alpha  occ. eigenvalues --   -0.74631  -0.72867  -0.72472  -0.71748  -0.71405
 Alpha  occ. eigenvalues --   -0.69970  -0.69577  -0.68956  -0.68674  -0.67734
 Alpha  occ. eigenvalues --   -0.67405  -0.67307  -0.67055  -0.65354  -0.65125
 Alpha  occ. eigenvalues --   -0.64920  -0.64679  -0.64577  -0.64490  -0.64342
 Alpha  occ. eigenvalues --   -0.64013  -0.62307  -0.62123  -0.60564  -0.60134
 Alpha  occ. eigenvalues --   -0.59886  -0.59639  -0.59067  -0.58793  -0.58583
 Alpha  occ. eigenvalues --   -0.58230  -0.57632  -0.57383  -0.57359  -0.57035
 Alpha  occ. eigenvalues --   -0.56411  -0.55991  -0.55984  -0.55750  -0.55626
 Alpha  occ. eigenvalues --   -0.55387  -0.55268  -0.55067  -0.54552  -0.54329
 Alpha  occ. eigenvalues --   -0.53965  -0.53790  -0.53411  -0.53311  -0.53025
 Alpha  occ. eigenvalues --   -0.52979  -0.52975  -0.52871  -0.52745  -0.52498
 Alpha  occ. eigenvalues --   -0.52495  -0.52220  -0.52008  -0.51703  -0.51556
 Alpha  occ. eigenvalues --   -0.51505  -0.51261  -0.51005  -0.50747  -0.50293
 Alpha  occ. eigenvalues --   -0.50114  -0.50044  -0.49824  -0.49685  -0.49610
 Alpha  occ. eigenvalues --   -0.49315  -0.49304  -0.49166  -0.49033  -0.48924
 Alpha  occ. eigenvalues --   -0.48648  -0.48585  -0.48511  -0.48384  -0.48192
 Alpha  occ. eigenvalues --   -0.48150  -0.47782  -0.47428  -0.47388  -0.46935
 Alpha  occ. eigenvalues --   -0.46875  -0.46626  -0.46527  -0.46443  -0.46416
 Alpha  occ. eigenvalues --   -0.46224  -0.46066  -0.45872  -0.45870  -0.45618
 Alpha  occ. eigenvalues --   -0.45275  -0.45032  -0.44657  -0.44606  -0.44370
 Alpha  occ. eigenvalues --   -0.44284  -0.44231  -0.44167  -0.44095  -0.43959
 Alpha  occ. eigenvalues --   -0.43892  -0.43750  -0.43530  -0.43463  -0.43400
 Alpha  occ. eigenvalues --   -0.43218  -0.43103  -0.42779  -0.42751  -0.42705
 Alpha  occ. eigenvalues --   -0.42642  -0.42365  -0.42071  -0.41800  -0.41781
 Alpha  occ. eigenvalues --   -0.41603  -0.41475  -0.41313  -0.41219  -0.40977
 Alpha  occ. eigenvalues --   -0.40924  -0.40825  -0.40638  -0.40571  -0.40547
 Alpha  occ. eigenvalues --   -0.40315  -0.40302  -0.40116  -0.39499  -0.39241
 Alpha  occ. eigenvalues --   -0.38537  -0.38181  -0.37807  -0.37541  -0.37398
 Alpha  occ. eigenvalues --   -0.37335  -0.37076  -0.37026  -0.36723  -0.36640
 Alpha  occ. eigenvalues --   -0.36228  -0.36045  -0.34376  -0.34044  -0.33771
 Alpha  occ. eigenvalues --   -0.33716  -0.33269  -0.32961  -0.31496  -0.31123
 Alpha  occ. eigenvalues --   -0.31075  -0.30770  -0.30095  -0.29730  -0.29568
 Alpha  occ. eigenvalues --   -0.29421  -0.29102  -0.28953  -0.24170  -0.23820
 Alpha  occ. eigenvalues --   -0.21225  -0.20900
 Alpha virt. eigenvalues --   -0.08879  -0.08566  -0.01848  -0.01475  -0.00181
 Alpha virt. eigenvalues --    0.00174   0.02112   0.02440   0.02854   0.03485
 Alpha virt. eigenvalues --    0.04645   0.04906   0.05102   0.05307   0.06147

 Mulliken charges:
               1
     1  Mg   0.838756
     2  C   -0.002707
     3  C   -0.094791
     4  C   -0.045675
     5  C   -0.064191
     6  N   -0.256779
     7  C   -0.052315
     8  C   -0.013855
     9  C   -0.086862
    10  C    0.046166
    11  C    0.104812
    12  C    0.053633
    13  C   -0.072697
    14  H    0.038752
    15  N   -0.433057
    16  C    0.168056
    17  C   -0.178009
    18  C   -0.004594
    19  C    0.148733
    20  C    0.110327
    21  C    0.011568
    22  O   -0.249305
    23  C    0.063080
    24  N   -0.341258
    25  C    0.041320
    26  C   -0.028309
    27  C   -0.024070
    28  C    0.075318
    29  C    0.076090
    30  C    0.034938
    31  C   -0.005648
    32  N   -0.310587
    33  C    0.080816
    34  C   -0.169999
    35  C    0.008539
    36  C    0.083219
    37  C    0.127344
    38  C    0.046148
    39  O   -0.187731
    40  C   -0.005238
    41  C    0.212839
    42  O   -0.256667
    43  O   -0.305156
    44  C    0.156908
    45  H   -0.017732
    46  H   -0.016752
    47  H   -0.041455
    48  H    0.001448
    49  H   -0.004372
    50  H    0.025710
    51  H    0.016352
    52  H    0.016732
    53  H    0.009572
    54  H    0.044911
    55  H    0.018089
    56  H    0.017020
    57  H    0.005967
    58  H    0.027040
    59  H    0.037276
    60  H    0.037898
    61  H    0.035080
    62  H    0.028986
    63  H    0.017056
    64  H    0.009618
    65  H    0.023459
    66  H    0.012426
    67  H    0.004880
    68  H    0.007043
    69  H    0.004175
    70  H    0.010448
    71  H    0.018624
    72  H    0.028729
    73  H    0.047382
    74  H    0.008970
    75  H    0.046446
    76  H    0.035340
    77  H    0.043308
    78  H    0.046559
    79  H    0.055878
    80  Mg   0.838023
    81  C   -0.016415
    82  C   -0.088006
    83  C   -0.045191
    84  C   -0.062802
    85  N   -0.254418
    86  C   -0.049579
    87  C   -0.014995
    88  C   -0.090669
    89  C    0.045652
    90  C    0.114641
    91  C    0.062723
    92  C   -0.077368
    93  H    0.034467
    94  N   -0.423437
    95  C    0.162501
    96  C   -0.174550
    97  C   -0.007861
    98  C    0.151735
    99  C    0.099316
   100  C    0.015577
   101  O   -0.253842
   102  C    0.061188
   103  N   -0.349780
   104  C    0.037036
   105  C   -0.019852
   106  C   -0.035260
   107  C    0.088988
   108  C    0.072850
   109  C    0.034725
   110  C   -0.007549
   111  N   -0.324693
   112  C    0.078860
   113  C   -0.159998
   114  C    0.003567
   115  C    0.096492
   116  C    0.130032
   117  C    0.044239
   118  O   -0.188127
   119  C    0.000280
   120  C    0.210886
   121  O   -0.251211
   122  O   -0.305882
   123  C    0.152214
   124  H   -0.021223
   125  H   -0.016115
   126  H   -0.039321
   127  H   -0.001536
   128  H   -0.005483
   129  H    0.023164
   130  H    0.015342
   131  H    0.012784
   132  H    0.013980
   133  H    0.037824
   134  H    0.019720
   135  H    0.019065
   136  H    0.007445
   137  H    0.026795
   138  H    0.038982
   139  H    0.038752
   140  H    0.035822
   141  H    0.033371
   142  H    0.013924
   143  H    0.013622
   144  H    0.023837
   145  H    0.012959
   146  H    0.005281
   147  H    0.005602
   148  H    0.004204
   149  H    0.010528
   150  H    0.017662
   151  H    0.030210
   152  H    0.044701
   153  H    0.007953
   154  H    0.054202
   155  H    0.035810
   156  H    0.043206
   157  H    0.048892
   158  H    0.053560
 Sum of Mulliken charges =  -0.00000

 Dipole moment (field-independent basis, Debye):
    X=              3.5941    Y=             -1.8545    Z=              7.0814  Tot=              8.1549
 Quadrupole moment (field-independent basis, Debye-Ang):
   XX=           -519.0664   YY=           -538.7751   ZZ=           -460.4878
   XY=             14.0988   XZ=             -0.9339   YZ=             36.6492

 Normal termination of Gaussian 16 at Fri Sep  3 22:54:37 2021.
