 Gaussian 16, Revision A.03,
 Gaussian 16:  ES64L-G16RevA.03 25-Dec-2016

 -----------------------------------
 #p cam-b3lyp/Def2SVP td=(nstates=5)
 -----------------------------------

 --------------------------------
 TDDFT excited states in gaussian
 --------------------------------
 Symbolic Z-matrix:
 Charge =  0 Multiplicity = 1

                         Standard orientation:
 ---------------------------------------------------------------------
 Center     Atomic      Atomic             Coordinates (Angstroms)
 Number     Number       Type             X           Y           Z
 ---------------------------------------------------------------------
      1         12           0       -7.859695   -0.724302    0.166993
      2          6           0       -8.037431    2.850690    0.159608
      3          6           0       -8.771743   -0.627958   -3.119639
      4          6           0       -8.151871   -3.880416    0.267976
      5          6           0       -8.080302   -0.580870    3.642107
      6          7           0       -8.316733    0.958912   -1.196295
      7          6           0       -8.290000    2.283864   -1.091617
      8          6           0       -8.481151    3.015221   -2.453950
      9          6           0       -9.251156    1.868060   -3.249635
     10          6           0       -8.722525    0.656850   -2.501676
     11          6           0      -10.766489    1.924192   -3.084960
     12          6           0       -7.116544    3.368392   -3.135750
     13          6           0       -7.204427    4.362822   -4.297102
     14          1           0       -6.124135    5.319799   -4.482875
     15          7           0       -7.905449   -2.054101   -1.293278
     16          6           0       -8.287912   -1.836984   -2.574632
     17          6           0       -8.145219   -3.135214   -3.268115
     18          6           0       -7.830234   -4.167237   -2.241564
     19          6           0       -7.977664   -3.403423   -1.029034
     20          6           0       -8.257720   -3.291283   -4.753623
     21          6           0       -7.466029   -5.615086   -2.337586
     22          8           0       -7.460331   -6.384189   -1.316301
     23          6           0       -7.198469   -6.136879   -3.690060
     24          7           0       -8.304660   -2.060640    1.707721
     25          6           0       -8.310870   -3.381207    1.495476
     26          6           0       -8.372993   -4.141516    2.786990
     27          6           0       -8.162215   -3.062981    3.945475
     28          6           0       -8.093334   -1.787131    3.070414
     29          6           0       -9.671050   -4.919365    3.043914
     30          6           0       -7.016121   -3.328705    4.953581
     31          6           0       -5.680394   -3.216226    4.253382
     32          7           0       -7.851526    0.837695    1.674024
     33          6           0       -7.977509    0.671911    3.060862
     34          6           0       -8.025572    2.020717    3.654563
     35          6           0       -7.940335    2.883107    2.563296
     36          6           0       -7.871502    2.121390    1.361905
     37          6           0       -8.193099    2.317722    5.035923
     38          6           0       -7.916212    4.271028    2.130918
     39          8           0       -7.852711    5.357874    2.707307
     40          6           0       -8.100893    4.306505    0.549633
     41          6           0       -7.053712    5.230587   -0.009646
     42          8           0       -5.842507    4.936158    0.050856
     43          8           0       -7.649133    6.191558   -0.732523
     44          6           0       -6.664076    7.125623   -1.340257
     45          1           0       -9.278225   -0.732122   -4.081184
     46          1           0       -8.146342   -4.968692    0.357773
     47          1           0       -8.063362   -0.458057    4.726581
     48          1           0       -9.097857    3.912846   -2.405312
     49          1           0       -8.951356    1.827441   -4.296626
     50          1           0      -11.059333    2.666519   -2.342589
     51          1           0      -11.061318    0.925656   -2.761704
     52          1           0      -11.254950    2.084272   -4.046498
     53          1           0       -6.743855    2.493513   -3.668434
     54          1           0       -6.401190    3.736339   -2.399402
     55          1           0       -8.170242    4.868521   -4.316592
     56          1           0       -7.173871    3.801110   -5.230775
     57          1           0       -8.657641   -2.392608   -5.221589
     58          1           0       -9.015023   -4.053169   -4.937285
     59          1           0       -7.313852   -3.594313   -5.207074
     60          1           0       -8.081046   -5.990952   -4.313207
     61          1           0       -6.867197   -7.165926   -3.555261
     62          1           0       -6.401465   -5.547669   -4.144556
     63          1           0       -7.578510   -4.884623    2.841916
     64          1           0       -9.048208   -2.957226    4.571978
     65          1           0       -9.516217   -5.984624    3.216989
     66          1           0      -10.336579   -4.753407    2.197261
     67          1           0      -10.273547   -4.542977    3.870199
     68          1           0       -7.086501   -4.341278    5.349421
     69          1           0       -7.018849   -2.641038    5.799369
     70          1           0       -5.555495   -4.202328    3.807472
     71          1           0       -4.888830   -3.010879    4.974817
     72          1           0       -5.717601   -2.492616    3.438832
     73          1           0       -7.486407    3.115472    5.264289
     74          1           0       -8.012114    1.439072    5.654648
     75          1           0       -9.237035    2.630537    5.050049
     76          1           0       -9.110570    4.669443    0.360024
     77          1           0       -6.933610    8.131199   -1.017145
     78          1           0       -6.663253    6.921441   -2.411105
     79          1           0       -5.641383    7.056985   -0.967797
     80         12           0        8.021369   -0.831480   -0.020909
     81          6           0        7.845015    2.725232    0.423765
     82          6           0        7.110734   -0.320507   -3.268100
     83          6           0        7.728824   -3.975759   -0.329734
     84          6           0        7.791422   -1.136363    3.443171
     85          7           0        7.565378    1.010418   -1.157458
     86          6           0        7.591226    2.309397   -0.899905
     87          6           0        7.409762    3.216052   -2.146743
     88          6           0        6.631959    2.174853   -3.090040
     89          6           0        7.157305    0.868782   -2.497695
     90          6           0        5.123575    2.208992   -2.908522
     91          6           0        8.780574    3.648185   -2.776164
     92          6           0        8.688569    4.778422   -3.803710
     93          1           0        9.776275    5.750634   -3.868291
     94          7           0        7.978783   -1.963431   -1.650465
     95          6           0        7.604420   -1.588972   -2.891806
     96          6           0        7.731182   -2.791206   -3.730088
     97          6           0        8.053011   -3.946059   -2.848357
     98          6           0        7.909045   -3.330326   -1.544433
     99          6           0        7.628635   -2.753781   -5.227253
    100          6           0        8.416145   -5.372290   -3.131571
    101          8           0        8.421376   -6.261789   -2.208743
    102          6           0        8.674563   -5.716241   -4.537423
    103          7           0        7.580913   -2.346310    1.333205
    104          6           0        7.567838   -3.634773    0.948987
    105          6           0        7.500621   -4.558914    2.141394
    106          6           0        7.716125   -3.624878    3.421519
    107          6           0        7.784628   -2.249359    2.722496
    108          6           0        6.200532   -5.346988    2.299807
    109          6           0        8.861609   -4.017471    4.394356
    110          6           0       10.200347   -3.831060    3.717296
    111          7           0        8.034521    0.521149    1.663810
    112          6           0        7.900055    0.184924    3.028709
    113          6           0        7.853302    1.452090    3.786678
    114          6           0        7.941345    2.445915    2.800252
    115          6           0        8.015937    1.841146    1.516442
    116          6           0        7.695050    1.573016    5.196095
    117          6           0        7.977443    3.869270    2.552302
    118          8           0        8.034466    4.873325    3.261064
    119          6           0        7.789262    4.115579    0.993358
    120          6           0        8.838118    5.097609    0.548338
    121          8           0       10.043763    4.794872    0.585514
    122          8           0        8.237634    6.143595   -0.048071
    123          6           0        9.237520    7.139831   -0.516670
    124          1           0        6.611330   -0.291848   -4.236942
    125          1           0        7.732738   -5.067447   -0.370740
    126          1           0        7.819340   -1.147957    4.534846
    127          1           0        6.800246    4.096686   -1.983206
    128          1           0        6.940945    2.274577   -4.127313
    129          1           0        4.830909    2.846508   -2.087505
    130          1           0        4.827045    1.185954   -2.717471
    131          1           0        4.637428    2.493621   -3.846060
    132          1           0        9.150148    2.839163   -3.419310
    133          1           0        9.484840    3.911724   -2.011188
    134          1           0        7.718415    5.288874   -3.769241
    135          1           0        8.726083    4.341426   -4.804527
    136          1           0        7.223150   -1.797043   -5.578881
    137          1           0        6.871654   -3.491593   -5.514458
    138          1           0        8.570526   -3.003520   -5.720342
    139          1           0        7.794413   -5.486208   -5.133142
    140          1           0        9.005274   -6.756629   -4.527696
    141          1           0        9.482998   -5.077828   -4.910873
    142          1           0        8.294569   -5.294748    2.105615
    143          1           0        6.825323   -3.605620    4.066455
    144          1           0        6.355352   -6.441917    2.334853
    145          1           0        5.539512   -5.082288    1.485236
    146          1           0        5.606036   -5.086294    3.173782
    147          1           0        8.790579   -5.076231    4.655393
    148          1           0        8.851728   -3.455623    5.322369
    149          1           0       10.318884   -4.756527    3.145852
    150          1           0       10.991170   -3.719490    4.456349
    151          1           0       10.166683   -3.002783    3.000026
    152          1           0        8.395315    2.329620    5.524243
    153          1           0        7.869556    0.623941    5.698654
    154          1           0        6.646775    1.878923    5.249119
    155          1           0        6.779332    4.498487    0.841760
    156          1           0        8.965504    8.100533   -0.068622
    157          1           0        9.226029    7.077847   -1.621101
    158          1           0       10.258182    7.026463   -0.170491
 ---------------------------------------------------------------------

 SCF Done:  E(RCAM-B3LYP) =  -4069.81168302     A.U. after   19 cycles

 Excitation energies and oscillator strengths:

 Excited State   1:      Singlet-A      1.6699 eV  742.48 nm  f=0.0174  <S**2>=0.000
     309 -> 315       -0.10392
     310 -> 316        0.13760
     311 -> 313       -0.41211
     312 -> 314        0.54887
 This state for optimization and/or second-order correction.
 Total Energy, E(TD-HF/TD-DFT) =  -4069.75031677
 Copying the excited state density for this state as the 1-particle RhoCI density.

 Excited State   2:      Singlet-A      1.6852 eV  735.72 nm  f=0.7394  <S**2>=0.000
     309 -> 315        0.14153
     310 -> 316        0.10562
     311 -> 313        0.54804
     312 -> 314        0.41157

 Excited State   3:      Singlet-A      2.1853 eV  567.36 nm  f=0.0576  <S**2>=0.000
     309 -> 313       -0.14004
     310 -> 314        0.62734
     312 -> 316       -0.26599

 Excited State   4:      Singlet-A      2.1929 eV  565.38 nm  f=0.1356  <S**2>=0.000
     309 -> 313        0.62530
     310 -> 314        0.13894
     311 -> 315       -0.27195

 Excited State   5:      Singlet-A      2.7648 eV  448.44 nm  f=0.0000  <S**2>=0.000
     312 -> 313        0.70710

 The electronic state is 1-A.
 Alpha  occ. eigenvalues --  -46.87835 -46.87587 -19.26322 -19.26267 -19.19082
 Alpha  occ. eigenvalues --  -19.19058 -19.18853 -19.18658 -19.18199 -19.17966
 Alpha  occ. eigenvalues --  -14.42490 -14.42423 -14.41486 -14.41286 -14.39441
 Alpha  occ. eigenvalues --  -14.39281 -14.38623 -14.38524 -10.39117 -10.39010
 Alpha  occ. eigenvalues --  -10.35487 -10.35337 -10.34420 -10.34143 -10.31719
 Alpha  occ. eigenvalues --  -10.31679 -10.31444 -10.31231 -10.30952 -10.30952
 Alpha  occ. eigenvalues --  -10.30607 -10.30543 -10.30324 -10.30285 -10.30244
 Alpha  occ. eigenvalues --  -10.30074 -10.29954 -10.29819 -10.29667 -10.29368
 Alpha  occ. eigenvalues --  -10.29330 -10.29292 -10.28799 -10.28642 -10.28610
 Alpha  occ. eigenvalues --  -10.28596 -10.28403 -10.28331 -10.28163 -10.28061
 Alpha  occ. eigenvalues --  -10.27927 -10.27828 -10.27767 -10.27622 -10.27597
 Alpha  occ. eigenvalues --  -10.27531 -10.27530 -10.27479 -10.27452 -10.27442
 Alpha  occ. eigenvalues --  -10.27420 -10.27408 -10.27398 -10.27308 -10.27193
 Alpha  occ. eigenvalues --  -10.26962 -10.26768 -10.26628 -10.26453 -10.26376
 Alpha  occ. eigenvalues --  -10.26276 -10.26212 -10.26079 -10.26055 -10.25928
 Alpha  occ. eigenvalues --  -10.25864 -10.25863 -10.25764 -10.25462 -10.25327
 Alpha  occ. eigenvalues --  -10.24867 -10.24824 -10.24796 -10.24718 -10.24677
 Alpha  occ. eigenvalues --  -10.24618  -3.16578  -3.16337  -1.91460  -1.91219
 Alpha  occ. eigenvalues --   -1.91046  -1.90888  -1.90808  -1.90645  -1.16671
 Alpha  occ. eigenvalues --   -1.16562  -1.08656  -1.08572  -1.07254  -1.06911
 Alpha  occ. eigenvalues --   -1.06866  -1.06680  -1.04621  -1.04421  -1.03798
 Alpha  occ. eigenvalues --   -1.03590  -1.03271  -1.02966  -1.02448  -1.02038
 Alpha  occ. eigenvalues --   -0.92009  -0.91909  -0.89553  -0.89425  -0.89235
 Alpha  occ. eigenvalues --   -0.89075  -0.88320  -0.88152  -0.87902  -0.87715
 Alpha  occ. eigenvalues --   -0.87714  -0.87612  -0.87314  -0.87061  -0.85028
 Alpha  occ. eigenvalues --   -0.84927  -0.83968  -0.83809  -0.83006  -0.82876
 Alpha  occ. eigenvalues --   -0.82692  -0.82583  -0.81624  -0.81520  -0.80635
 Alpha  occ. eigenvalues --   -0.80370  -0.78835  -0.78569  -0.77258  -0.77074
 Alpha  occ. eigenvalues --   -0.76976  -0.76825  -0.75963  -0.75762  -0.74931
 Alpha  occ. eigenvalues --   -0.74732  -0.72810  -0.72625  -0.71709  -0.71505
 Alpha  occ. eigenvalues --   -0.69939  -0.69693  -0.68917  -0.68756  -0.67679
 Alpha  occ. eigenvalues --   -0.67531  -0.67270  -0.67136  -0.65331  -0.65197
 Alpha  occ. eigenvalues --   -0.64891  -0.64697  -0.64660  -0.64581  -0.64304
 Alpha  occ. eigenvalues --   -0.64135  -0.62334  -0.62202  -0.60480  -0.60276
 Alpha  occ. eigenvalues --   -0.59848  -0.59721  -0.59024  -0.58919  -0.58540
 Alpha  occ. eigenvalues --   -0.58352  -0.57620  -0.57472  -0.57344  -0.57167
 Alpha  occ. eigenvalues --   -0.56346  -0.56133  -0.56019  -0.55812  -0.55559
 Alpha  occ. eigenvalues --   -0.55385  -0.55372  -0.55175  -0.54558  -0.54416
 Alpha  occ. eigenvalues --   -0.53942  -0.53838  -0.53336  -0.53265  -0.53159
 Alpha  occ. eigenvalues --   -0.53072  -0.52953  -0.52830  -0.52800  -0.52610
 Alpha  occ. eigenvalues --   -0.52470  -0.52339  -0.51942  -0.51802  -0.51663
 Alpha  occ. eigenvalues --   -0.51591  -0.51231  -0.51126  -0.50616  -0.50423
 Alpha  occ. eigenvalues --   -0.50066  -0.49959  -0.49911  -0.49802  -0.49557
 Alpha  occ. eigenvalues --   -0.49421  -0.49252  -0.49138  -0.49129  -0.49025
 Alpha  occ. eigenvalues --   -0.48630  -0.48496  -0.48482  -0.48481  -0.48306
 Alpha  occ. eigenvalues --   -0.48276  -0.47735  -0.47526  -0.47335  -0.47053
 Alpha  occ. eigenvalues --   -0.46834  -0.46638  -0.46602  -0.46483  -0.46395
 Alpha  occ. eigenvalues --   -0.46201  -0.46196  -0.46011  -0.45855  -0.45743
 Alpha  occ. eigenvalues --   -0.45234  -0.45139  -0.44612  -0.44549  -0.44439
 Alpha  occ. eigenvalues --   -0.44406  -0.44181  -0.44132  -0.44057  -0.44052
 Alpha  occ. eigenvalues --   -0.44012  -0.43872  -0.43531  -0.43478  -0.43427
 Alpha  occ. eigenvalues --   -0.43312  -0.43063  -0.42855  -0.42823  -0.42735
 Alpha  occ. eigenvalues --   -0.42689  -0.42488  -0.42046  -0.41897  -0.41740
 Alpha  occ. eigenvalues --   -0.41592  -0.41580  -0.41389  -0.41179  -0.40914
 Alpha  occ. eigenvalues --   -0.40913  -0.40866  -0.40662  -0.40632  -0.40606
 Alpha  occ. eigenvalues --   -0.40424  -0.40291  -0.40162  -0.39473  -0.39363
 Alpha  occ. eigenvalues --   -0.38505  -0.38282  -0.37801  -0.37587  -0.37356
 Alpha  occ. eigenvalues --   -0.37309  -0.37196  -0.37127  -0.36750  -0.36694
 Alpha  occ. eigenvalues --   -0.36230  -0.36145  -0.34323  -0.34179  -0.33808
 Alpha  occ. eigenvalues --   -0.33784  -0.33223  -0.33102  -0.31382  -0.31217
 Alpha  occ. eigenvalues --   -0.31073  -0.30900  -0.30058  -0.29870  -0.29487
 Alpha  occ. eigenvalues --   -0.29356  -0.29259  -0.29135  -0.24118  -0.23961
 Alpha  occ. eigenvalues --   -0.21165  -0.21044
 Alpha virt. eigenvalues --   -0.08811  -0.08720  -0.01787  -0.01613  -0.00097
 Alpha virt. eigenvalues --    0.00038   0.02168   0.02286   0.03076   0.03293
 Alpha virt. eigenvalues --    0.04673   0.04803   0.05061   0.05246   0.06120

 Mulliken charges:
               1
     1  Mg   0.838591
     2  C   -0.003039
     3  C   -0.094307
     4  C   -0.045833
     5  C   -0.063904
     6  N   -0.256751
     7  C   -0.052518
     8  C   -0.013986
     9  C   -0.086963
    10  C    0.046231
    11  C    0.104806
    12  C    0.053551
    13  C   -0.071645
    14  H    0.035711
    15  N   -0.433131
    16  C    0.168351
    17  C   -0.177286
    18  C   -0.004019
    19  C    0.148649
    20  C    0.110210
    21  C    0.012255
    22  O   -0.249515
    23  C    0.062513
    24  N   -0.341145
    25  C    0.041225
    26  C   -0.028177
    27  C   -0.024037
    28  C    0.074890
    29  C    0.076144
    30  C    0.035107
    31  C   -0.004512
    32  N   -0.310505
    33  C    0.080437
    34  C   -0.169562
    35  C    0.008459
    36  C    0.083005
    37  C    0.127273
    38  C    0.046225
    39  O   -0.188137
    40  C   -0.005374
    41  C    0.212938
    42  O   -0.257173
    43  O   -0.304765
    44  C    0.157652
    45  H   -0.017668
    46  H   -0.016772
    47  H   -0.041332
    48  H    0.001026
    49  H   -0.004232
    50  H    0.025556
    51  H    0.016528
    52  H    0.016631
    53  H    0.010916
    54  H    0.044058
    55  H    0.018076
    56  H    0.017744
    57  H    0.005758
    58  H    0.026884
    59  H    0.039231
    60  H    0.037352
    61  H    0.035746
    62  H    0.031242
    63  H    0.016575
    64  H    0.009566
    65  H    0.023274
    66  H    0.012552
    67  H    0.004828
    68  H    0.006435
    69  H    0.004846
    70  H    0.008769
    71  H    0.018157
    72  H    0.028913
    73  H    0.047832
    74  H    0.009205
    75  H    0.046101
    76  H    0.035218
    77  H    0.043160
    78  H    0.046179
    79  H    0.053707
    80  Mg   0.838002
    81  C   -0.016753
    82  C   -0.087806
    83  C   -0.045557
    84  C   -0.064771
    85  N   -0.254584
    86  C   -0.049599
    87  C   -0.015131
    88  C   -0.090574
    89  C    0.045831
    90  C    0.114378
    91  C    0.062558
    92  C   -0.077768
    93  H    0.034681
    94  N   -0.423478
    95  C    0.162875
    96  C   -0.174780
    97  C   -0.007950
    98  C    0.152099
    99  C    0.099465
   100  C    0.015467
   101  O   -0.253299
   102  C    0.061257
   103  N   -0.350029
   104  C    0.037552
   105  C   -0.019843
   106  C   -0.034813
   107  C    0.088976
   108  C    0.073643
   109  C    0.034754
   110  C   -0.007647
   111  N   -0.324184
   112  C    0.078578
   113  C   -0.162965
   114  C    0.002478
   115  C    0.096215
   116  C    0.131428
   117  C    0.042639
   118  O   -0.187533
   119  C    0.000801
   120  C    0.211223
   121  O   -0.251227
   122  O   -0.305432
   123  C    0.152093
   124  H   -0.019931
   125  H   -0.015696
   126  H   -0.040431
   127  H   -0.000317
   128  H   -0.004676
   129  H    0.023273
   130  H    0.014528
   131  H    0.015981
   132  H    0.013751
   133  H    0.037648
   134  H    0.020919
   135  H    0.019343
   136  H    0.008559
   137  H    0.025805
   138  H    0.039544
   139  H    0.038056
   140  H    0.036205
   141  H    0.033800
   142  H    0.014237
   143  H    0.012542
   144  H    0.024976
   145  H    0.011810
   146  H    0.005757
   147  H    0.006151
   148  H    0.003644
   149  H    0.010846
   150  H    0.017818
   151  H    0.030135
   152  H    0.045958
   153  H    0.008364
   154  H    0.047582
   155  H    0.035750
   156  H    0.044036
   157  H    0.049340
   158  H    0.053424
 Sum of Mulliken charges =  -0.00000

 Dipole moment (field-independent basis, Debye):
    X=             -4.1506    Y=             -2.3363    Z=             -7.5708  Tot=              8.9444
 Quadrupole moment (field-independent basis, Debye-Ang):
   XX=           -517.4819   YY=           -551.3208   ZZ=           -447.7549
   XY=             -1.2513   XZ=             -0.2096   YZ=            -48.2552

 Normal termination of Gaussian 16 at Sat Sep  4 16:16:34 2021.
