 Gaussian 16, Revision A.03,
 Gaussian 16:  ES64L-G16RevA.03 25-Dec-2016

 -----------------------------------
 #p cam-b3lyp/Def2SVP td=(nstates=5)
 -----------------------------------

 --------------------------------
 TDDFT excited states in gaussian
 --------------------------------
 Symbolic Z-matrix:
 Charge =  0 Multiplicity = 1

                         Standard orientation:
 ---------------------------------------------------------------------
 Center     Atomic      Atomic             Coordinates (Angstroms)
 Number     Number       Type             X           Y           Z
 ---------------------------------------------------------------------
      1         12           0        4.216781    0.223209    0.735943
      2          6           0        4.442515   -2.868390   -1.053827
      3          6           0        5.567629    1.738054   -2.006961
      4          6           0        4.449567    2.879589    2.452356
      5          6           0        3.965690   -1.657639    3.659130
      6          7           0        4.877462   -0.571030   -1.221947
      7          6           0        4.854806   -1.765480   -1.804995
      8          6           0        5.238999   -1.723620   -3.314305
      9          6           0        6.094174   -0.378016   -3.319149
     10          6           0        5.452497    0.321858   -2.134096
     11          6           0        7.573764   -0.595362   -3.019023
     12          6           0        3.984474   -1.608479   -4.244165
     13          6           0        4.242670   -1.888667   -5.727467
     14          1           0        3.210707   -2.559792   -6.503347
     15          7           0        4.442174    2.101269    0.165911
     16          6           0        4.997903    2.535375   -0.990810
     17          6           0        4.932983    4.011987   -0.945187
     18          6           0        4.467588    4.405211    0.413811
     19          6           0        4.459490    3.128963    1.082020
     20          6           0        5.243900    4.885999   -2.121275
     21          6           0        4.100111    5.723624    1.017866
     22          8           0        3.945406    5.874991    2.277917
     23          6           0        4.011487    6.868098    0.093005
     24          7           0        4.430316    0.577687    2.782008
     25          6           0        4.447298    1.823520    3.268419
     26          6           0        4.323228    1.827784    4.763253
     27          6           0        3.971887    0.327450    5.181955
     28          6           0        4.039764   -0.330396    3.781633
     29          6           0        5.563704    2.296213    5.536431
     30          6           0        2.696081    0.115922    6.035180
     31          6           0        1.469386    0.446371    5.214741
     32          7           0        4.025436   -1.880850    1.233306
     33          6           0        3.959785   -2.441144    2.517220
     34          6           0        3.945189   -3.905927    2.349097
     35          6           0        4.020576   -4.097495    0.970886
     36          6           0        4.105053   -2.833121    0.320875
     37          6           0        3.927736   -4.865219    3.399757
     38          6           0        4.074244   -5.076832   -0.102368
     39          8           0        3.947909   -6.300507   -0.166808
     40          6           0        4.472269   -4.324151   -1.448056
     41          6           0        3.523347   -4.781273   -2.522251
     42          8           0        2.311242   -4.488625   -2.471999
     43          8           0        4.224380   -5.281584   -3.551223
     44          6           0        3.343713   -5.726531   -4.664148
     45          1           0        6.198446    2.281820   -2.712885
     46          1           0        4.417093    3.774000    3.077986
     47          1           0        3.803412   -2.307069    4.521313
     48          1           0        5.855559   -2.557778   -3.649654
     49          1           0        5.938704    0.199692   -4.230086
     50          1           0        7.773232   -1.625322   -2.723528
     51          1           0        7.808381    0.087314   -2.202076
     52          1           0        8.190325   -0.278615   -3.860629
     53          1           0        3.675646   -0.564849   -4.303509
     54          1           0        3.180885   -2.254952   -3.889701
     55          1           0        5.208988   -2.370261   -5.879802
     56          1           0        4.331458   -0.933469   -6.245071
     57          1           0        5.715819    4.322609   -2.925283
     58          1           0        6.008680    5.592601   -1.799509
     59          1           0        4.366262    5.428860   -2.472539
     60          1           0        4.972367    7.004757   -0.403566
     61          1           0        3.651012    7.707341    0.686789
     62          1           0        3.291627    6.633130   -0.691559
     63          1           0        3.518602    2.486720    5.086990
     64          1           0        4.766022   -0.128743    5.773489
     65          1           0        5.372332    3.137450    6.203065
     66          1           0        6.340167    2.540138    4.811934
     67          1           0        6.053563    1.522308    6.126793
     68          1           0        2.698305    0.787046    6.893396
     69          1           0        2.593366   -0.902272    6.410656
     70          1           0        1.392746    1.528325    5.316399
     71          1           0        0.590111   -0.047956    5.629141
     72          1           0        1.626632    0.228689    4.158155
     73          1           0        3.207514   -5.628093    3.104335
     74          1           0        3.652519   -4.407252    4.349559
     75          1           0        4.964258   -5.201678    3.383230
     76          1           0        5.503181   -4.599641   -1.668164
     77          1           0        3.580567   -6.771878   -4.862602
     78          1           0        3.485438   -5.012710   -5.475799
     79          1           0        2.279097   -5.796072   -4.438102
     80         12           0       -3.640675    0.773974   -0.291002
     81          6           0       -6.457546   -1.401067    0.171006
     82          6           0       -5.789345    3.009132   -1.712926
     83          6           0       -1.122245    2.517742   -1.118193
     84          6           0       -1.595215   -2.020735    0.098107
     85          7           0       -5.819337    0.699465   -0.665352
     86          6           0       -6.795768   -0.152395   -0.391013
     87          6           0       -8.222433    0.394810   -0.664373
     88          6           0       -7.847161    1.508784   -1.758502
     89          6           0       -6.405869    1.788766   -1.337839
     90          6           0       -7.834324    0.974725   -3.181156
     91          6           0       -8.870459    1.038279    0.611565
     92          6           0      -10.371732    1.313510    0.501135
     93          1           0      -11.198948    1.149672    1.693340
     94          7           0       -3.517648    2.683659   -0.816857
     95          6           0       -4.493098    3.443050   -1.358263
     96          6           0       -3.894661    4.768484   -1.580223
     97          6           0       -2.439900    4.682820   -1.278484
     98          6           0       -2.296504    3.255181   -1.075062
     99          6           0       -4.704988    5.974112   -1.958717
    100          6           0       -1.354563    5.713410   -1.200201
    101          8           0       -0.116307    5.385294   -1.156704
    102          6           0       -1.779143    7.119229   -1.270160
    103          7           0       -1.659903    0.287651   -0.693985
    104          6           0       -0.757571    1.243069   -0.978422
    105          6           0        0.647325    0.689640   -0.959214
    106          6           0        0.518632   -0.788603   -0.362700
    107          6           0       -1.016814   -0.869992   -0.217204
    108          6           0        1.358346    0.632525   -2.311085
    109          6           0        1.397164   -1.128041    0.872460
    110          6           0        0.933471   -0.330924    2.070359
    111          7           0       -3.924836   -1.298153    0.250834
    112          6           0       -2.935642   -2.302931    0.328309
    113          6           0       -3.628407   -3.574124    0.622565
    114          6           0       -4.985567   -3.221994    0.673490
    115          6           0       -5.130319   -1.833392    0.408304
    116          6           0       -3.007851   -4.848192    0.755925
    117          6           0       -6.329581   -3.711238    0.880769
    118          8           0       -6.819287   -4.785916    1.225716
    119          6           0       -7.353430   -2.578276    0.439701
    120          6           0       -8.387255   -2.439020    1.523360
    121          8           0       -8.067691   -2.027786    2.652682
    122          8           0       -9.610867   -2.605022    0.988961
    123          6           0      -10.670727   -2.465010    2.022851
    124          1           0       -6.332416    3.682115   -2.377043
    125          1           0       -0.209957    3.093509   -1.290525
    126          1           0       -1.019389   -2.918963    0.331101
    127          1           0       -8.911708   -0.325500   -1.088430
    128          1           0       -8.458593    2.399669   -1.640905
    129          1           0       -7.964573   -0.096878   -3.210403
    130          1           0       -6.870973    1.250052   -3.590048
    131          1           0       -8.579582    1.498052   -3.787000
    132          1           0       -8.498878    2.065066    0.722792
    133          1           0       -8.675675    0.440351    1.480568
    134          1           0      -10.823709    0.796754   -0.354218
    135          1           0      -10.514749    2.373955    0.279712
    136          1           0       -5.718908    5.695360   -2.271240
    137          1           0       -4.248861    6.395547   -2.861049
    138          1           0       -4.714236    6.737513   -1.177827
    139          1           0       -2.314392    7.288902   -2.201382
    140          1           0       -0.873214    7.706516   -1.108089
    141          1           0       -2.490419    7.310655   -0.458955
    142          1           0        1.285260    1.276383   -0.309698
    143          1           0        0.805267   -1.552168   -1.100705
    144          1           0        2.317961    1.183041   -2.323138
    145          1           0        0.687739    1.020732   -3.066134
    146          1           0        1.567291   -0.369838   -2.681001
    147          1           0        2.435031   -0.838739    0.690014
    148          1           0        1.396703   -2.182879    1.126081
    149          1           0        1.433081    0.632845    1.933872
    150          1           0        1.247761   -0.810993    2.994912
    151          1           0       -0.147051   -0.150868    2.028961
    152          1           0       -3.460820   -5.326830    1.613969
    153          1           0       -1.930326   -4.755159    0.874406
    154          1           0       -3.278026   -5.298078   -0.203170
    155          1           0       -7.794012   -2.886292   -0.509294
    156          1           0      -11.269606   -3.380495    1.992487
    157          1           0      -11.189688   -1.515719    1.792029
    158          1           0      -10.359525   -2.450196    3.060821
 ---------------------------------------------------------------------

 SCF Done:  E(RCAM-B3LYP) =  -4069.78958490     A.U. after   19 cycles

 Excitation energies and oscillator strengths:

 Excited State   1:      Singlet-A      1.6227 eV  764.06 nm  f=0.0012  <S**2>=0.000
     309 -> 315        0.11242
     310 -> 316       -0.10912
     311 -> 313        0.49118
     312 -> 314       -0.48278
 This state for optimization and/or second-order correction.
 Total Energy, E(TD-HF/TD-DFT) =  -4069.72995177
 Copying the excited state density for this state as the 1-particle RhoCI density.

 Excited State   2:      Singlet-A      1.7097 eV  725.20 nm  f=0.6595  <S**2>=0.000
     309 -> 315        0.12942
     310 -> 316        0.12814
     311 -> 313        0.47933
     312 -> 314        0.48733

 Excited State   3:      Singlet-A      2.1604 eV  573.88 nm  f=0.0743  <S**2>=0.000
     309 -> 313        0.60538
     311 -> 315       -0.25441
     312 -> 313        0.22341

 Excited State   4:      Singlet-A      2.1794 eV  568.90 nm  f=0.1208  <S**2>=0.000
     310 -> 314        0.63848
     312 -> 316       -0.26281

 Excited State   5:      Singlet-A      2.2240 eV  557.49 nm  f=0.0085  <S**2>=0.000
     309 -> 313       -0.20208
     312 -> 313        0.66847

 The electronic state is 1-A.
 Alpha  occ. eigenvalues --  -46.88057 -46.87401 -19.26580 -19.26182 -19.19449
 Alpha  occ. eigenvalues --  -19.18983 -19.18731 -19.18540 -19.18261 -19.17825
 Alpha  occ. eigenvalues --  -14.42574 -14.42243 -14.41456 -14.41077 -14.39465
 Alpha  occ. eigenvalues --  -14.39111 -14.38329 -14.38242 -10.39435 -10.38906
 Alpha  occ. eigenvalues --  -10.35374 -10.35158 -10.34502 -10.34000 -10.31900
 Alpha  occ. eigenvalues --  -10.31611 -10.31592 -10.31036 -10.30989 -10.30826
 Alpha  occ. eigenvalues --  -10.30745 -10.30616 -10.30156 -10.30123 -10.30070
 Alpha  occ. eigenvalues --  -10.30029 -10.29820 -10.29692 -10.29610 -10.29204
 Alpha  occ. eigenvalues --  -10.29181 -10.29144 -10.28899 -10.28696 -10.28534
 Alpha  occ. eigenvalues --  -10.28517 -10.28261 -10.28252 -10.28185 -10.27939
 Alpha  occ. eigenvalues --  -10.27850 -10.27807 -10.27747 -10.27580 -10.27566
 Alpha  occ. eigenvalues --  -10.27413 -10.27371 -10.27367 -10.27337 -10.27313
 Alpha  occ. eigenvalues --  -10.27273 -10.27242 -10.27235 -10.27184 -10.26912
 Alpha  occ. eigenvalues --  -10.26897 -10.26834 -10.26530 -10.26421 -10.26334
 Alpha  occ. eigenvalues --  -10.26062 -10.25897 -10.25895 -10.25842 -10.25794
 Alpha  occ. eigenvalues --  -10.25752 -10.25539 -10.25364 -10.25340 -10.24946
 Alpha  occ. eigenvalues --  -10.24886 -10.24811 -10.24617 -10.24577 -10.24440
 Alpha  occ. eigenvalues --  -10.23940  -3.16812  -3.16152  -1.91715  -1.91265
 Alpha  occ. eigenvalues --   -1.91124  -1.91034  -1.90622  -1.90459  -1.16938
 Alpha  occ. eigenvalues --   -1.16472  -1.08749  -1.08432  -1.07011  -1.06961
 Alpha  occ. eigenvalues --   -1.06923  -1.06766  -1.04699  -1.04252  -1.03820
 Alpha  occ. eigenvalues --   -1.03404  -1.03312  -1.02762  -1.02476  -1.01847
 Alpha  occ. eigenvalues --   -0.92095  -0.91738  -0.89502  -0.89349  -0.89244
 Alpha  occ. eigenvalues --   -0.88951  -0.88245  -0.88129  -0.87836  -0.87769
 Alpha  occ. eigenvalues --   -0.87476  -0.87406  -0.87138  -0.86951  -0.85081
 Alpha  occ. eigenvalues --   -0.84793  -0.83891  -0.83738  -0.82867  -0.82783
 Alpha  occ. eigenvalues --   -0.82528  -0.82477  -0.81707  -0.81378  -0.80633
 Alpha  occ. eigenvalues --   -0.80229  -0.78756  -0.78406  -0.77257  -0.77063
 Alpha  occ. eigenvalues --   -0.76891  -0.76686  -0.76033  -0.75626  -0.74904
 Alpha  occ. eigenvalues --   -0.74536  -0.72828  -0.72434  -0.71749  -0.71325
 Alpha  occ. eigenvalues --   -0.70203  -0.69465  -0.68872  -0.68638  -0.67697
 Alpha  occ. eigenvalues --   -0.67379  -0.67235  -0.67042  -0.65435  -0.65097
 Alpha  occ. eigenvalues --   -0.64965  -0.64754  -0.64533  -0.64440  -0.64256
 Alpha  occ. eigenvalues --   -0.64064  -0.62444  -0.62084  -0.60375  -0.60161
 Alpha  occ. eigenvalues --   -0.59952  -0.59578  -0.59065  -0.58752  -0.58569
 Alpha  occ. eigenvalues --   -0.58209  -0.57767  -0.57329  -0.57284  -0.57068
 Alpha  occ. eigenvalues --   -0.56476  -0.56168  -0.55965  -0.55705  -0.55609
 Alpha  occ. eigenvalues --   -0.55457  -0.55275  -0.55182  -0.54697  -0.54250
 Alpha  occ. eigenvalues --   -0.54072  -0.53714  -0.53357  -0.53272  -0.53148
 Alpha  occ. eigenvalues --   -0.53015  -0.53001  -0.52850  -0.52698  -0.52545
 Alpha  occ. eigenvalues --   -0.52531  -0.52259  -0.51978  -0.51634  -0.51526
 Alpha  occ. eigenvalues --   -0.51463  -0.51291  -0.51021  -0.50409  -0.50282
 Alpha  occ. eigenvalues --   -0.50104  -0.49965  -0.49778  -0.49522  -0.49496
 Alpha  occ. eigenvalues --   -0.49338  -0.49222  -0.49132  -0.48993  -0.48885
 Alpha  occ. eigenvalues --   -0.48657  -0.48406  -0.48346  -0.48332  -0.48220
 Alpha  occ. eigenvalues --   -0.47999  -0.47671  -0.47389  -0.47271  -0.46910
 Alpha  occ. eigenvalues --   -0.46866  -0.46756  -0.46541  -0.46420  -0.46379
 Alpha  occ. eigenvalues --   -0.46287  -0.46014  -0.45894  -0.45794  -0.45544
 Alpha  occ. eigenvalues --   -0.45209  -0.45065  -0.44877  -0.44470  -0.44345
 Alpha  occ. eigenvalues --   -0.44247  -0.44168  -0.44018  -0.43957  -0.43919
 Alpha  occ. eigenvalues --   -0.43856  -0.43751  -0.43564  -0.43404  -0.43332
 Alpha  occ. eigenvalues --   -0.43202  -0.43088  -0.43006  -0.42780  -0.42687
 Alpha  occ. eigenvalues --   -0.42555  -0.42380  -0.42048  -0.41969  -0.41778
 Alpha  occ. eigenvalues --   -0.41481  -0.41378  -0.41320  -0.41165  -0.40851
 Alpha  occ. eigenvalues --   -0.40713  -0.40655  -0.40556  -0.40503  -0.40411
 Alpha  occ. eigenvalues --   -0.40237  -0.40082  -0.39897  -0.39460  -0.38530
 Alpha  occ. eigenvalues --   -0.38374  -0.38078  -0.37870  -0.37446  -0.37377
 Alpha  occ. eigenvalues --   -0.37200  -0.37051  -0.36982  -0.36836  -0.36541
 Alpha  occ. eigenvalues --   -0.36217  -0.35819  -0.34177  -0.34115  -0.33706
 Alpha  occ. eigenvalues --   -0.33645  -0.33218  -0.32902  -0.31263  -0.31190
 Alpha  occ. eigenvalues --   -0.31001  -0.30717  -0.30105  -0.29725  -0.29367
 Alpha  occ. eigenvalues --   -0.29131  -0.29020  -0.28939  -0.24097  -0.23759
 Alpha  occ. eigenvalues --   -0.21219  -0.20851
 Alpha virt. eigenvalues --   -0.08826  -0.08545  -0.01864  -0.01432   0.00020
 Alpha virt. eigenvalues --    0.00126   0.02086   0.02469   0.03393   0.04413
 Alpha virt. eigenvalues --    0.04703   0.04948   0.05175   0.05376   0.05959

 Mulliken charges:
               1
     1  Mg   0.657085
     2  C    0.007990
     3  C   -0.092236
     4  C   -0.046320
     5  C   -0.053503
     6  N   -0.243493
     7  C   -0.059485
     8  C   -0.011981
     9  C   -0.086419
    10  C    0.046410
    11  C    0.104955
    12  C    0.033538
    13  C   -0.067454
    14  H    0.036369
    15  N   -0.431355
    16  C    0.170366
    17  C   -0.174147
    18  C    0.002912
    19  C    0.153183
    20  C    0.109768
    21  C    0.022276
    22  O   -0.249850
    23  C    0.056223
    24  N   -0.325360
    25  C    0.046907
    26  C   -0.027786
    27  C   -0.019495
    28  C    0.063424
    29  C    0.077164
    30  C    0.036224
    31  C    0.020992
    32  N   -0.321324
    33  C    0.069273
    34  C   -0.171191
    35  C    0.014855
    36  C    0.063590
    37  C    0.128672
    38  C    0.040641
    39  O   -0.188297
    40  C   -0.008016
    41  C    0.215090
    42  O   -0.261747
    43  O   -0.303556
    44  C    0.156878
    45  H   -0.017722
    46  H   -0.016588
    47  H   -0.043466
    48  H   -0.000901
    49  H   -0.003506
    50  H    0.026135
    51  H    0.017922
    52  H    0.017155
    53  H    0.019230
    54  H    0.053053
    55  H    0.017644
    56  H    0.018543
    57  H    0.004411
    58  H    0.026432
    59  H    0.048382
    60  H    0.032858
    61  H    0.033640
    62  H    0.047316
    63  H    0.018194
    64  H    0.008676
    65  H    0.023585
    66  H    0.012552
    67  H    0.004977
    68  H    0.005131
    69  H    0.001633
    70  H    0.001477
    71  H    0.015800
    72  H   -0.004329
    73  H    0.045152
    74  H    0.009260
    75  H    0.046143
    76  H    0.036331
    77  H    0.044257
    78  H    0.047239
    79  H    0.053641
    80  Mg   0.837902
    81  C   -0.017710
    82  C   -0.088433
    83  C   -0.044172
    84  C   -0.068343
    85  N   -0.254670
    86  C   -0.049431
    87  C   -0.015147
    88  C   -0.090376
    89  C    0.045434
    90  C    0.114627
    91  C    0.062613
    92  C   -0.077561
    93  H    0.034329
    94  N   -0.423117
    95  C    0.162311
    96  C   -0.175597
    97  C   -0.009737
    98  C    0.152130
    99  C    0.099660
   100  C    0.017256
   101  O   -0.258434
   102  C    0.061437
   103  N   -0.350145
   104  C    0.034892
   105  C   -0.043094
   106  C   -0.020886
   107  C    0.092693
   108  C    0.066341
   109  C    0.004050
   110  C   -0.009173
   111  N   -0.324271
   112  C    0.077164
   113  C   -0.161419
   114  C    0.001809
   115  C    0.096875
   116  C    0.131785
   117  C    0.042744
   118  O   -0.187752
   119  C    0.000923
   120  C    0.211188
   121  O   -0.251348
   122  O   -0.305624
   123  C    0.152184
   124  H   -0.020892
   125  H   -0.016622
   126  H   -0.028415
   127  H   -0.000934
   128  H   -0.004968
   129  H    0.022307
   130  H    0.014263
   131  H    0.015405
   132  H    0.013914
   133  H    0.037564
   134  H    0.020604
   135  H    0.019302
   136  H    0.008433
   137  H    0.024349
   138  H    0.038985
   139  H    0.037839
   140  H    0.033194
   141  H    0.035670
   142  H    0.026848
   143  H    0.031776
   144  H    0.043755
   145  H    0.004832
   146  H    0.012091
   147  H    0.091118
   148  H    0.020481
   149  H    0.037059
   150  H    0.050685
   151  H    0.026216
   152  H    0.044455
   153  H    0.014970
   154  H    0.048807
   155  H    0.034768
   156  H    0.043660
   157  H    0.049229
   158  H    0.053333
 Sum of Mulliken charges =  -0.00000

 Dipole moment (field-independent basis, Debye):
    X=              1.2897    Y=              6.3176    Z=             -5.2546  Tot=              8.3178
 Quadrupole moment (field-independent basis, Debye-Ang):
   XX=           -462.5866   YY=           -541.1509   ZZ=           -480.0675
   XY=            -30.9115   XZ=              3.5484   YZ=            -10.6218

 Normal termination of Gaussian 16 at Thu Sep  9 12:25:18 2021.
