 Gaussian 16, Revision A.03,
 Gaussian 16:  ES64L-G16RevA.03 25-Dec-2016

 -----------------------------------
 #p cam-b3lyp/Def2SVP td=(nstates=5)
 -----------------------------------

 --------------------------------
 TDDFT excited states in gaussian
 --------------------------------
 Symbolic Z-matrix:
 Charge =  0 Multiplicity = 1

                         Standard orientation:
 ---------------------------------------------------------------------
 Center     Atomic      Atomic             Coordinates (Angstroms)
 Number     Number       Type             X           Y           Z
 ---------------------------------------------------------------------
      1         12           0        6.882382    0.375810    0.610858
      2          6           0        7.129026   -2.690693   -1.218879
      3          6           0        7.958235    1.970766   -2.207247
      4          6           0        7.108394    3.030532    2.330740
      5          6           0        6.932828   -1.531807    3.527039
      6          7           0        7.438876   -0.373843   -1.396374
      7          6           0        7.432477   -1.564608   -1.987314
      8          6           0        7.705096   -1.495310   -3.519714
      9          6           0        8.491455   -0.109385   -3.573078
     10          6           0        7.903117    0.551380   -2.338909
     11          6           0        9.997537   -0.255631   -3.381165
     12          6           0        6.383088   -1.436500   -4.356713
     13          6           0        6.547666   -1.695185   -5.857163
     14          1           0        5.496550   -2.411650   -6.563690
     15          7           0        6.975013    2.265900    0.043556
     16          6           0        7.424755    2.733355   -1.145773
     17          6           0        7.291728    4.204722   -1.082026
     18          6           0        6.906343    4.566858    0.310248
     19          6           0        7.008035    3.287940    0.965539
     20          6           0        7.474852    5.099653   -2.269172
     21          6           0        6.519563    5.862181    0.951084
     22          8           0        6.448347    5.998558    2.220298
     23          6           0        6.309520    7.006213    0.045482
     24          7           0        7.224472    0.728604    2.639687
     25          6           0        7.215804    1.970963    3.135118
     26          6           0        7.199059    1.960572    4.634968
     27          6           0        6.951793    0.442440    5.063791
     28          6           0        6.951025   -0.203252    3.656186
     29          6           0        8.467544    2.484828    5.322072
     30          6           0        5.752140    0.163720    6.003773
     31          6           0        4.455253    0.438314    5.275914
     32          7           0        6.829428   -1.737915    1.101170
     33          6           0        6.883158   -2.308102    2.381277
     34          6           0        6.927619   -3.770851    2.201122
     35          6           0        6.913301   -3.950592    0.819336
     36          6           0        6.889581   -2.679893    0.176643
     37          6           0        7.032011   -4.735850    3.241465
     38          6           0        6.937396   -4.919953   -0.264000
     39          8           0        6.866270   -6.147962   -0.330553
     40          6           0        7.201039   -4.140962   -1.627632
     41          6           0        6.200906   -4.637903   -2.635646
     42          8           0        4.982750   -4.405338   -2.496451
     43          8           0        6.849878   -5.097331   -3.716526
     44          6           0        5.914380   -5.578544   -4.767921
     45          1           0        8.509753    2.548847   -2.951285
     46          1           0        7.077472    3.918674    2.965315
     47          1           0        6.864409   -2.193343    4.392569
     48          1           0        8.335784   -2.296295   -3.905824
     49          1           0        8.243303    0.465215   -4.465254
     50          1           0       10.267377   -1.276246   -3.110145
     51          1           0       10.256677    0.433036   -2.576754
     52          1           0       10.536145    0.095786   -4.261611
     53          1           0        6.020550   -0.408945   -4.384273
     54          1           0        5.639255   -2.123620   -3.951863
     55          1           0        7.522809   -2.127934   -6.082404
     56          1           0        6.552719   -0.733832   -6.370949
     57          1           0        7.914741    4.564698   -3.109925
     58          1           0        8.225541    5.841052   -1.996220
     59          1           0        6.549015    5.600828   -2.551982
     60          1           0        7.224603    7.192669   -0.517017
     61          1           0        5.952221    7.823354    0.671157
     62          1           0        5.547560    6.740728   -0.687924
     63          1           0        6.388677    2.577393    5.021281
     64          1           0        7.807445    0.022355    5.593000
     65          1           0        8.283836    3.311835    6.008377
     66          1           0        9.177374    2.770682    4.546367
     67          1           0        9.035387    1.732506    5.868866
     68          1           0        5.783274    0.829217    6.865799
     69          1           0        5.726087   -0.860421    6.376209
     70          1           0        4.333704    1.514607    5.392748
     71          1           0        3.632930   -0.100902    5.747341
     72          1           0        4.546790    0.234662    4.208847
     73          1           0        6.330330   -5.531418    2.991095
     74          1           0        6.803643   -4.297379    4.212647
     75          1           0        8.079783   -5.020976    3.148017
     76          1           0        8.225684   -4.364302   -1.923172
     77          1           0        6.186833   -6.609864   -4.992380
     78          1           0        5.962819   -4.853993   -5.580992
     79          1           0        4.873318   -5.701500   -4.467237
     80         12           0       -6.327861    0.656394   -0.159448
     81          6           0       -8.992272   -1.698723    0.323701
     82          6           0       -8.632133    2.750958   -1.551471
     83          6           0       -3.937011    2.562762   -1.006213
     84          6           0       -4.100944   -2.000314    0.198926
     85          7           0       -8.500841    0.441268   -0.511769
     86          6           0       -9.416862   -0.473127   -0.230441
     87          6           0      -10.878889   -0.019190   -0.487287
     88          6           0      -10.588322    1.119952   -1.581273
     89          6           0       -9.163997    1.491978   -1.174380
     90          6           0      -10.555609    0.591904   -3.005849
     91          6           0      -11.554069    0.577105    0.797463
     92          6           0      -13.071138    0.754331    0.703361
     93          1           0      -13.873460    0.533598    1.903367
     94          7           0       -6.334863    2.571529   -0.679824
     95          6           0       -7.363241    3.267331   -1.208554
     96          6           0       -6.854663    4.629543   -1.431971
     97          6           0       -5.394345    4.637909   -1.145430
     98          6           0       -5.156249    3.222059   -0.948490
     99          6           0       -7.745638    5.780918   -1.797933
    100          6           0       -4.377613    5.736742   -1.074619
    101          8           0       -3.120249    5.489810   -1.044939
    102          6           0       -4.893481    7.112132   -1.135306
    103          7           0       -4.323953    0.301207   -0.584359
    104          6           0       -3.488730    1.314146   -0.874652
    105          6           0       -2.050674    0.853288   -0.871756
    106          6           0       -2.076675   -0.631885   -0.279147
    107          6           0       -3.601971   -0.813471   -0.118246
    108          6           0       -1.351577    0.846419   -2.231019
    109          6           0       -1.165080   -0.916908    0.945767
    110          6           0       -1.667140   -0.155069    2.151140
    111          7           0       -6.470927   -1.431367    0.377984
    112          6           0       -5.417701   -2.369833    0.441824
    113          6           0       -6.023166   -3.684254    0.738682
    114          6           0       -7.399766   -3.421376    0.804711
    115          6           0       -7.637320   -2.044394    0.545899
    116          6           0       -5.319669   -4.915602    0.861220
    117          6           0       -8.706861   -3.997667    1.024002
    118          8           0       -9.121973   -5.102922    1.370161
    119          6           0       -9.806793   -2.932513    0.597401
    120          6           0      -10.836135   -2.863932    1.692053
    121          8           0      -10.532245   -2.435979    2.819497
    122          8           0      -12.051868   -3.107728    1.169625
    123          6           0      -13.107749   -3.039951    2.214773
    124          1           0       -9.224747    3.389041   -2.207638
    125          1           0       -3.065962    3.197180   -1.185845
    126          1           0       -3.465488   -2.859813    0.422858
    127          1           0      -11.524217   -0.781628   -0.906801
    128          1           0      -11.255178    1.968814   -1.454302
    129          1           0      -10.616151   -0.485815   -3.037532
    130          1           0       -9.616528    0.930532   -3.423598
    131          1           0      -11.339625    1.067316   -3.602199
    132          1           0      -11.248952    1.625585    0.908490
    133          1           0      -11.311732   -0.009339    1.662333
    134          1           0      -13.497430    0.211668   -0.149134
    135          1           0      -13.285153    1.803831    0.487132
    136          1           0       -8.742474    5.437644   -2.101040
    137          1           0       -7.327328    6.233712   -2.703393
    138          1           0       -7.796384    6.539884   -1.014307
    139          1           0       -5.448318    7.249242   -2.060405
    140          1           0       -4.026041    7.756684   -0.980438
    141          1           0       -5.607205    7.254548   -0.316205
    142          1           0       -1.445532    1.478474   -0.226737
    143          1           0       -1.748680   -1.373071   -1.022717
    144          1           0       -0.429992    1.458280   -2.250940
    145          1           0       -2.053871    1.192294   -2.977810
    146          1           0       -1.081724   -0.139152   -2.606559
    147          1           0       -0.150196   -0.560136    0.753743
    148          1           0       -1.094258   -1.970254    1.195675
    149          1           0       -1.232753    0.839564    2.012930
    150          1           0       -1.312656   -0.616283    3.070738
    151          1           0       -2.757460   -0.045625    2.121420
    152          1           0       -5.731557   -5.425149    1.722158
    153          1           0       -4.249301   -4.752945    0.968995
    154          1           0       -5.569990   -5.379392   -0.096648
    155          1           0      -10.236283   -3.265862   -0.348109
    156          1           0      -13.646072   -3.992387    2.187316
    157          1           0      -13.689755   -2.125802    1.992610
    158          1           0      -12.787359   -3.007847    3.249549
 ---------------------------------------------------------------------

 SCF Done:  E(RCAM-B3LYP) =  -4069.81204333     A.U. after   19 cycles

 Excitation energies and oscillator strengths:

 Excited State   1:      Singlet-A      1.6642 eV  745.01 nm  f=0.0104  <S**2>=0.000
     309 -> 315       -0.10775
     310 -> 316        0.13301
     311 -> 313       -0.43066
     312 -> 314        0.53484
 This state for optimization and/or second-order correction.
 Total Energy, E(TD-HF/TD-DFT) =  -4069.75088499
 Copying the excited state density for this state as the 1-particle RhoCI density.

 Excited State   2:      Singlet-A      1.6897 eV  733.76 nm  f=0.7302  <S**2>=0.000
     309 -> 315        0.13893
     310 -> 316        0.11112
     311 -> 313        0.53363
     312 -> 314        0.42972

 Excited State   3:      Singlet-A      2.1851 eV  567.41 nm  f=0.1073  <S**2>=0.000
     310 -> 314        0.64270
     312 -> 316       -0.27257

 Excited State   4:      Singlet-A      2.1942 eV  565.05 nm  f=0.0953  <S**2>=0.000
     309 -> 313        0.64060
     311 -> 315       -0.27903

 Excited State   5:      Singlet-A      2.6503 eV  467.81 nm  f=0.0000  <S**2>=0.000
     312 -> 313        0.70680

 The electronic state is 1-A.
 Alpha  occ. eigenvalues --  -46.87825 -46.87529 -19.26343 -19.26259 -19.19091
 Alpha  occ. eigenvalues --  -19.19064 -19.18780 -19.18621 -19.18197 -19.17934
 Alpha  occ. eigenvalues --  -14.42475 -14.42372 -14.41471 -14.41215 -14.39422
 Alpha  occ. eigenvalues --  -14.39226 -14.38618 -14.38468 -10.39145 -10.38992
 Alpha  occ. eigenvalues --  -10.35409 -10.35301 -10.34420 -10.34112 -10.31736
 Alpha  occ. eigenvalues --  -10.31676 -10.31436 -10.31183 -10.30928 -10.30912
 Alpha  occ. eigenvalues --  -10.30597 -10.30527 -10.30263 -10.30227 -10.30215
 Alpha  occ. eigenvalues --  -10.29986 -10.29943 -10.29740 -10.29644 -10.29308
 Alpha  occ. eigenvalues --  -10.29273 -10.29265 -10.28780 -10.28622 -10.28580
 Alpha  occ. eigenvalues --  -10.28580 -10.28386 -10.28286 -10.28142 -10.28041
 Alpha  occ. eigenvalues --  -10.27873 -10.27808 -10.27747 -10.27590 -10.27546
 Alpha  occ. eigenvalues --  -10.27508 -10.27457 -10.27454 -10.27428 -10.27377
 Alpha  occ. eigenvalues --  -10.27359 -10.27345 -10.27282 -10.27195 -10.27183
 Alpha  occ. eigenvalues --  -10.26940 -10.26753 -10.26606 -10.26350 -10.26327
 Alpha  occ. eigenvalues --  -10.26253 -10.26195 -10.26038 -10.25935 -10.25864
 Alpha  occ. eigenvalues --  -10.25849 -10.25772 -10.25669 -10.25431 -10.25209
 Alpha  occ. eigenvalues --  -10.24853 -10.24803 -10.24746 -10.24717 -10.24555
 Alpha  occ. eigenvalues --  -10.24502  -3.16569  -3.16280  -1.91451  -1.91162
 Alpha  occ. eigenvalues --   -1.91037  -1.90879  -1.90750  -1.90587  -1.16693
 Alpha  occ. eigenvalues --   -1.16551  -1.08659  -1.08543  -1.07178  -1.06876
 Alpha  occ. eigenvalues --   -1.06849  -1.06710  -1.04605  -1.04373  -1.03780
 Alpha  occ. eigenvalues --   -1.03531  -1.03255  -1.02899  -1.02433  -1.01977
 Alpha  occ. eigenvalues --   -0.91999  -0.91863  -0.89536  -0.89321  -0.89217
 Alpha  occ. eigenvalues --   -0.89044  -0.88300  -0.88036  -0.87891  -0.87694
 Alpha  occ. eigenvalues --   -0.87650  -0.87554  -0.87262  -0.87014  -0.85005
 Alpha  occ. eigenvalues --   -0.84889  -0.83952  -0.83692  -0.82942  -0.82818
 Alpha  occ. eigenvalues --   -0.82660  -0.82540  -0.81620  -0.81479  -0.80616
 Alpha  occ. eigenvalues --   -0.80325  -0.78799  -0.78514  -0.77235  -0.77018
 Alpha  occ. eigenvalues --   -0.76962  -0.76766  -0.75950  -0.75726  -0.74912
 Alpha  occ. eigenvalues --   -0.74643  -0.72793  -0.72559  -0.71691  -0.71448
 Alpha  occ. eigenvalues --   -0.69923  -0.69548  -0.68891  -0.68714  -0.67655
 Alpha  occ. eigenvalues --   -0.67476  -0.67235  -0.67102  -0.65315  -0.65160
 Alpha  occ. eigenvalues --   -0.64880  -0.64644  -0.64634  -0.64528  -0.64286
 Alpha  occ. eigenvalues --   -0.64026  -0.62337  -0.62156  -0.60439  -0.60215
 Alpha  occ. eigenvalues --   -0.59829  -0.59684  -0.59008  -0.58856  -0.58524
 Alpha  occ. eigenvalues --   -0.58292  -0.57622  -0.57438  -0.57323  -0.57091
 Alpha  occ. eigenvalues --   -0.56324  -0.56075  -0.56018  -0.55780  -0.55519
 Alpha  occ. eigenvalues --   -0.55363  -0.55346  -0.55089  -0.54555  -0.54332
 Alpha  occ. eigenvalues --   -0.53923  -0.53809  -0.53307  -0.53228  -0.53099
 Alpha  occ. eigenvalues --   -0.53027  -0.52944  -0.52784  -0.52743  -0.52576
 Alpha  occ. eigenvalues --   -0.52454  -0.52181  -0.51938  -0.51728  -0.51631
 Alpha  occ. eigenvalues --   -0.51559  -0.51221  -0.51063  -0.50538  -0.50375
 Alpha  occ. eigenvalues --   -0.50039  -0.49912  -0.49869  -0.49701  -0.49521
 Alpha  occ. eigenvalues --   -0.49383  -0.49230  -0.49117  -0.49092  -0.48986
 Alpha  occ. eigenvalues --   -0.48621  -0.48474  -0.48444  -0.48433  -0.48240
 Alpha  occ. eigenvalues --   -0.48214  -0.47705  -0.47471  -0.47303  -0.46993
 Alpha  occ. eigenvalues --   -0.46818  -0.46580  -0.46564  -0.46443  -0.46378
 Alpha  occ. eigenvalues --   -0.46186  -0.46129  -0.45936  -0.45853  -0.45690
 Alpha  occ. eigenvalues --   -0.45213  -0.45052  -0.44604  -0.44507  -0.44404
 Alpha  occ. eigenvalues --   -0.44344  -0.44157  -0.44108  -0.44025  -0.44015
 Alpha  occ. eigenvalues --   -0.43927  -0.43835  -0.43526  -0.43428  -0.43405
 Alpha  occ. eigenvalues --   -0.43262  -0.43047  -0.42820  -0.42768  -0.42741
 Alpha  occ. eigenvalues --   -0.42677  -0.42386  -0.42034  -0.41804  -0.41726
 Alpha  occ. eigenvalues --   -0.41557  -0.41540  -0.41332  -0.41159  -0.40891
 Alpha  occ. eigenvalues --   -0.40864  -0.40801  -0.40626  -0.40587  -0.40572
 Alpha  occ. eigenvalues --   -0.40311  -0.40261  -0.40137  -0.39457  -0.39215
 Alpha  occ. eigenvalues --   -0.38485  -0.38181  -0.37780  -0.37549  -0.37337
 Alpha  occ. eigenvalues --   -0.37292  -0.37108  -0.37078  -0.36761  -0.36656
 Alpha  occ. eigenvalues --   -0.36225  -0.36067  -0.34311  -0.34120  -0.33833
 Alpha  occ. eigenvalues --   -0.33759  -0.33211  -0.33043  -0.31313  -0.31179
 Alpha  occ. eigenvalues --   -0.31053  -0.30844  -0.30059  -0.29838  -0.29458
 Alpha  occ. eigenvalues --   -0.29343  -0.29209  -0.29083  -0.24105  -0.23904
 Alpha  occ. eigenvalues --   -0.21147  -0.20984
 Alpha virt. eigenvalues --   -0.08789  -0.08665  -0.01766  -0.01550  -0.00055
 Alpha virt. eigenvalues --    0.00078   0.02178   0.02337   0.03007   0.03354
 Alpha virt. eigenvalues --    0.04690   0.04849   0.05039   0.05265   0.06141

 Mulliken charges:
               1
     1  Mg   0.837309
     2  C   -0.003401
     3  C   -0.093995
     4  C   -0.045696
     5  C   -0.064023
     6  N   -0.256832
     7  C   -0.052803
     8  C   -0.013889
     9  C   -0.086994
    10  C    0.046240
    11  C    0.104759
    12  C    0.053410
    13  C   -0.071811
    14  H    0.035828
    15  N   -0.433344
    16  C    0.168456
    17  C   -0.176790
    18  C   -0.003560
    19  C    0.148699
    20  C    0.110068
    21  C    0.012948
    22  O   -0.249233
    23  C    0.062141
    24  N   -0.341064
    25  C    0.041189
    26  C   -0.028300
    27  C   -0.023915
    28  C    0.074484
    29  C    0.076100
    30  C    0.035127
    31  C   -0.004532
    32  N   -0.310306
    33  C    0.079762
    34  C   -0.170161
    35  C    0.008266
    36  C    0.082256
    37  C    0.127412
    38  C    0.045646
    39  O   -0.188583
    40  C   -0.005131
    41  C    0.213119
    42  O   -0.258242
    43  O   -0.304543
    44  C    0.157728
    45  H   -0.017365
    46  H   -0.016421
    47  H   -0.041457
    48  H    0.000994
    49  H   -0.003883
    50  H    0.025527
    51  H    0.016568
    52  H    0.016814
    53  H    0.011179
    54  H    0.043348
    55  H    0.018088
    56  H    0.018236
    57  H    0.005803
    58  H    0.026993
    59  H    0.040565
    60  H    0.036996
    61  H    0.036318
    62  H    0.032775
    63  H    0.016901
    64  H    0.009600
    65  H    0.023515
    66  H    0.012578
    67  H    0.004844
    68  H    0.006814
    69  H    0.004758
    70  H    0.009494
    71  H    0.017913
    72  H    0.027849
    73  H    0.047230
    74  H    0.009132
    75  H    0.046174
    76  H    0.035343
    77  H    0.043225
    78  H    0.046529
    79  H    0.053201
    80  Mg   0.837643
    81  C   -0.017069
    82  C   -0.088119
    83  C   -0.045581
    84  C   -0.064643
    85  N   -0.254586
    86  C   -0.049824
    87  C   -0.015096
    88  C   -0.090461
    89  C    0.045676
    90  C    0.114473
    91  C    0.062574
    92  C   -0.077741
    93  H    0.034651
    94  N   -0.423381
    95  C    0.162785
    96  C   -0.175017
    97  C   -0.008142
    98  C    0.152099
    99  C    0.099522
   100  C    0.015369
   101  O   -0.253661
   102  C    0.061280
   103  N   -0.350123
   104  C    0.037527
   105  C   -0.020016
   106  C   -0.035654
   107  C    0.088654
   108  C    0.073688
   109  C    0.035011
   110  C   -0.007812
   111  N   -0.324192
   112  C    0.078514
   113  C   -0.162767
   114  C    0.002149
   115  C    0.096344
   116  C    0.131355
   117  C    0.042459
   118  O   -0.187902
   119  C    0.000886
   120  C    0.211239
   121  O   -0.251083
   122  O   -0.305657
   123  C    0.152094
   124  H   -0.020153
   125  H   -0.015972
   126  H   -0.038592
   127  H   -0.000809
   128  H   -0.004603
   129  H    0.022390
   130  H    0.014367
   131  H    0.015902
   132  H    0.013885
   133  H    0.037673
   134  H    0.020677
   135  H    0.019433
   136  H    0.008530
   137  H    0.025558
   138  H    0.039454
   139  H    0.037882
   140  H    0.035833
   141  H    0.033975
   142  H    0.014150
   143  H    0.015116
   144  H    0.024059
   145  H    0.010491
   146  H    0.007854
   147  H    0.007501
   148  H    0.006005
   149  H    0.010465
   150  H    0.017735
   151  H    0.029148
   152  H    0.045902
   153  H    0.010020
   154  H    0.047188
   155  H    0.034849
   156  H    0.043786
   157  H    0.049351
   158  H    0.053512
 Sum of Mulliken charges =  -0.00000

 Dipole moment (field-independent basis, Debye):
    X=              0.9007    Y=              6.3400    Z=             -5.1435  Tot=              8.2136
 Quadrupole moment (field-independent basis, Debye-Ang):
   XX=           -438.9767   YY=           -547.3252   ZZ=           -478.8908
   XY=            -29.4475   XZ=              7.9773   YZ=            -10.9209

 Normal termination of Gaussian 16 at Sat Sep 11 18:16:42 2021.
