 Gaussian 16, Revision A.03,
 Gaussian 16:  ES64L-G16RevA.03 25-Dec-2016

 -----------------------------------
 #p cam-b3lyp/Def2SVP td=(nstates=5)
 -----------------------------------

 --------------------------------
 TDDFT excited states in gaussian
 --------------------------------
 Symbolic Z-matrix:
 Charge =  0 Multiplicity = 1

                         Standard orientation:
 ---------------------------------------------------------------------
 Center     Atomic      Atomic             Coordinates (Angstroms)
 Number     Number       Type             X           Y           Z
 ---------------------------------------------------------------------
      1         12           0        6.445910   -1.071369    0.036501
      2          6           0        7.196367    2.330650   -0.785261
      3          6           0        7.497398   -0.381114    3.208407
      4          6           0        6.222306   -4.170889    0.668640
      5          6           0        6.542067   -1.762642   -3.377962
      6          7           0        7.223940    0.778410    0.971184
      7          6           0        7.406288    2.030146    0.562432
      8          6           0        7.769019    3.010649    1.717600
      9          6           0        8.376932    1.963592    2.754959
     10          6           0        7.629783    0.718823    2.309716
     11          6           0        9.873398    1.728265    2.576882
     12          6           0        6.508499    3.731524    2.303399
     13          6           0        6.803346    4.935750    3.202432
     14          1           0        5.899669    6.075621    3.164881
     15          7           0        6.337887   -2.021869    1.765007
     16          6           0        6.803213   -1.584959    2.959941
     17          6           0        6.482565   -2.648688    3.935823
     18          6           0        5.963328   -3.820536    3.177364
     19          6           0        6.181135   -3.388643    1.820379
     20          6           0        6.630155   -2.478441    5.416695
     21          6           0        5.375349   -5.127232    3.607430
     22          8           0        5.203602   -6.096994    2.792176
     23          6           0        5.083817   -5.275076    5.044856
     24          7           0        6.605758   -2.778595   -1.154071
     25          6           0        6.408349   -3.998193   -0.641631
     26          6           0        6.293661   -5.032387   -1.722015
     27          6           0        6.211092   -4.226745   -3.098196
     28          6           0        6.384706   -2.791761   -2.542365
     29          6           0        7.437926   -6.052785   -1.795885
     30          6           0        4.996282   -4.521185   -4.013599
     31          6           0        3.726301   -4.031831   -3.354223
     32          7           0        6.626391    0.084999   -1.791417
     33          6           0        6.666317   -0.411142   -3.102494
     34          6           0        6.905931    0.739572   -3.992725
     35          6           0        7.005917    1.829888   -3.130717
     36          6           0        6.865490    1.384417   -1.785307
     37          6           0        7.061472    0.681780   -5.405842
     38          6           0        7.223289    3.264039   -3.031630
     39          8           0        7.311483    4.185902   -3.843963
     40          6           0        7.476839    3.627905   -1.502205
     41          6           0        6.616050    4.815869   -1.168902
     42          8           0        5.371807    4.720734   -1.155634
     43          8           0        7.387778    5.803749   -0.690289
     44          6           0        6.591869    7.002020   -0.312363
     45          1           0        8.020063   -0.345946    4.166282
     46          1           0        6.038119   -5.234535    0.833474
     47          1           0        6.500032   -1.889238   -4.461317
     48          1           0        8.519481    3.758332    1.460309
     49          1           0        8.118285    2.213097    3.783827
     50          1           0       10.250688    2.222580    1.681769
     51          1           0        9.990124    0.647614    2.492851
     52          1           0       10.420786    2.019941    3.473581
     53          1           0        6.022442    3.075494    3.025503
     54          1           0        5.831641    4.035455    1.504140
     55          1           0        7.837876    5.264976    3.101105
     56          1           0        6.721697    4.614773    4.240944
     57          1           0        7.188486   -1.575976    5.662399
     58          1           0        7.262057   -3.293282    5.769459
     59          1           0        5.669516   -2.509051    5.931057
     60          1           0        6.003503   -5.139571    5.614386
     61          1           0        4.586065   -6.238064    5.153237
     62          1           0        4.411524   -4.473822    5.353018
     63          1           0        5.388435   -5.625913   -1.600699
     64          1           0        7.075743   -4.415241   -3.735002
     65          1           0        7.106749   -7.088540   -1.716916
     66          1           0        8.156091   -5.811065   -1.012876
     67          1           0        8.058234   -5.980103   -2.688831
     68          1           0        4.886402   -5.594578   -4.164264
     69          1           0        5.074397   -4.054710   -4.995714
     70          1           0        3.463101   -4.855499   -2.691556
     71          1           0        2.948765   -3.867843   -4.101054
     72          1           0        3.913211   -3.158079   -2.729636
     73          1           0        6.483387    1.512434   -5.810566
     74          1           0        6.715990   -0.272198   -5.803547
     75          1           0        8.140624    0.805318   -5.495428
     76          1           0        8.538736    3.851667   -1.405106
     77          1           0        7.005932    7.848350   -0.860553
     78          1           0        6.602737    7.050394    0.776649
     79          1           0        5.556862    7.021086   -0.655488
     80         12           0       -6.614637    1.071060    0.239542
     81          6           0       -6.994197   -2.472001   -0.186812
     82          6           0       -5.753600    1.224821   -3.057361
     83          6           0       -5.837076    4.114522    0.686915
     84          6           0       -6.383271    0.493479    3.668624
     85          7           0       -6.434026   -0.490050   -1.316917
     86          6           0       -6.662995   -1.793197   -1.378019
     87          6           0       -6.608068   -2.389436   -2.810164
     88          6           0       -5.667462   -1.282848   -3.495430
     89          6           0       -5.992464   -0.093605   -2.593902
     90          6           0       -4.184736   -1.589443   -3.365633
     91          6           0       -8.021228   -2.442812   -3.489997
     92          6           0       -8.091862   -3.292539   -4.760709
     93          1           0       -9.315559   -4.042862   -5.029144
     94          7           0       -6.377922    2.542153   -1.071337
     95          6           0       -6.050447    2.425249   -2.375320
     96          6           0       -5.979980    3.798890   -2.897151
     97          6           0       -6.130811    4.742421   -1.756220
     98          6           0       -6.099611    3.816086   -0.642202
     99          6           0       -5.865938    4.108128   -4.361661
    100          6           0       -6.266218    6.233055   -1.679662
    101          8           0       -6.145660    6.864037   -0.570530
    102          6           0       -6.451121    6.940908   -2.954905
    103          7           0       -5.962688    2.129478    1.905991
    104          6           0       -5.746395    3.455015    1.841966
    105          6           0       -5.552267    4.043184    3.219187
    106          6           0       -5.924989    2.872362    4.242826
    107          6           0       -6.196078    1.732857    3.236122
    108          6           0       -4.148288    4.561995    3.529132
    109          6           0       -7.008197    3.189000    5.310104
    110          6           0       -8.351197    3.377724    4.642186
    111          7           0       -6.856975   -0.629344    1.550260
    112          6           0       -6.689163   -0.656490    2.952104
    113          6           0       -6.847683   -2.060806    3.382453
    114          6           0       -7.075686   -2.762229    2.188920
    115          6           0       -7.040284   -1.861847    1.090041
    116          6           0       -6.727402   -2.540483    4.717202
    117          6           0       -7.327707   -4.061212    1.607677
    118          8           0       -7.547588   -5.185660    2.056018
    119          6           0       -7.160495   -3.950361    0.030928
    120          6           0       -8.342612   -4.624353   -0.610046
    121          8           0       -9.487542   -4.159192   -0.470839
    122          8           0       -7.903230   -5.574789   -1.455018
    123          6           0       -9.038869   -6.264186   -2.123514
    124          1           0       -5.252643    1.354614   -4.017092
    125          1           0       -5.672147    5.171347    0.909174
    126          1           0       -6.422572    0.245786    4.731532
    127          1           0       -6.143670   -3.365901   -2.878192
    128          1           0       -5.975276   -1.081345   -4.518174
    129          1           0       -4.004010   -2.442968   -2.729244
    130          1           0       -3.736417   -0.700171   -2.942250
    131          1           0       -3.736713   -1.710512   -4.356059
    132          1           0       -8.253695   -1.456032   -3.910662
    133          1           0       -8.767102   -2.772288   -2.793048
    134          1           0       -7.212504   -3.938121   -4.874288
    135          1           0       -8.049187   -2.626808   -5.626153
    136          1           0       -5.608478    3.213993   -4.942726
    137          1           0       -5.000773    4.769014   -4.482491
    138          1           0       -6.751902    4.610017   -4.756418
    139          1           0       -5.609652    6.729690   -3.610484
    140          1           0       -6.617585    7.986196   -2.687462
    141          1           0       -7.343636    6.542337   -3.450053
    142          1           0       -6.222791    4.878220    3.381118
    143          1           0       -5.055854    2.562581    4.841551
    144          1           0       -4.132888    5.626637    3.829783
    145          1           0       -3.525962    4.403734    2.658379
    146          1           0       -3.611946    4.010844    4.299690
    147          1           0       -6.778034    4.130044    5.815679
    148          1           0       -7.096525    2.425352    6.075633
    149          1           0       -8.318568    4.420540    4.312689
    150          1           0       -9.158842    3.213360    5.352641
    151          1           0       -8.436758    2.751545    3.746504
    152          1           0       -7.539936   -3.237884    4.871821
    153          1           0       -6.759713   -1.725292    5.437058
    154          1           0       -5.739546   -3.006384    4.668742
    155          1           0       -6.219858   -4.434918   -0.233631
    156          1           0       -8.923755   -7.334444   -1.926114
    157          1           0       -9.004315   -5.940402   -3.180745
    158          1           0      -10.034057   -6.083207   -1.734545
 ---------------------------------------------------------------------

 SCF Done:  E(RCAM-B3LYP) =  -4069.81180528     A.U. after   19 cycles

 Excitation energies and oscillator strengths:

 Excited State   1:      Singlet-A      1.6663 eV  744.05 nm  f=0.0334  <S**2>=0.000
     309 -> 315        0.10935
     310 -> 316        0.13230
     311 -> 313        0.43595
     312 -> 314        0.53039
 This state for optimization and/or second-order correction.
 Total Energy, E(TD-HF/TD-DFT) =  -4069.75056813
 Copying the excited state density for this state as the 1-particle RhoCI density.

 Excited State   2:      Singlet-A      1.6891 eV  734.04 nm  f=0.7080  <S**2>=0.000
     309 -> 315        0.13744
     310 -> 316       -0.11248
     311 -> 313        0.52927
     312 -> 314       -0.43512

 Excited State   3:      Singlet-A      2.1857 eV  567.24 nm  f=0.0454  <S**2>=0.000
     309 -> 313        0.19728
     310 -> 314        0.61195
     312 -> 316       -0.25937

 Excited State   4:      Singlet-A      2.1937 eV  565.19 nm  f=0.1448  <S**2>=0.000
     309 -> 313        0.60970
     310 -> 314       -0.19566
     311 -> 315       -0.26557

 Excited State   5:      Singlet-A      2.6496 eV  467.93 nm  f=0.0000  <S**2>=0.000
     312 -> 313        0.70710

 The electronic state is 1-A.
 Alpha  occ. eigenvalues --  -46.87854 -46.87552 -19.26330 -19.26270 -19.19078
 Alpha  occ. eigenvalues --  -19.19071 -19.18843 -19.18591 -19.18230 -19.17952
 Alpha  occ. eigenvalues --  -14.42504 -14.42387 -14.41508 -14.41254 -14.39457
 Alpha  occ. eigenvalues --  -14.39240 -14.38646 -14.38494 -10.39131 -10.39006
 Alpha  occ. eigenvalues --  -10.35475 -10.35267 -10.34449 -10.34131 -10.31715
 Alpha  occ. eigenvalues --  -10.31687 -10.31463 -10.31202 -10.30956 -10.30907
 Alpha  occ. eigenvalues --  -10.30630 -10.30565 -10.30294 -10.30263 -10.30256
 Alpha  occ. eigenvalues --  -10.30034 -10.29983 -10.29797 -10.29686 -10.29322
 Alpha  occ. eigenvalues --  -10.29308 -10.29293 -10.28793 -10.28613 -10.28572
 Alpha  occ. eigenvalues --  -10.28571 -10.28418 -10.28292 -10.28162 -10.28026
 Alpha  occ. eigenvalues --  -10.27892 -10.27850 -10.27781 -10.27635 -10.27573
 Alpha  occ. eigenvalues --  -10.27553 -10.27518 -10.27513 -10.27458 -10.27440
 Alpha  occ. eigenvalues --  -10.27376 -10.27353 -10.27317 -10.27291 -10.27212
 Alpha  occ. eigenvalues --  -10.26953 -10.26745 -10.26599 -10.26417 -10.26282
 Alpha  occ. eigenvalues --  -10.26277 -10.26276 -10.26083 -10.26081 -10.25928
 Alpha  occ. eigenvalues --  -10.25891 -10.25836 -10.25780 -10.25488 -10.25306
 Alpha  occ. eigenvalues --  -10.24891 -10.24842 -10.24805 -10.24766 -10.24674
 Alpha  occ. eigenvalues --  -10.24582  -3.16596  -3.16302  -1.91478  -1.91184
 Alpha  occ. eigenvalues --   -1.91065  -1.90907  -1.90772  -1.90609  -1.16679
 Alpha  occ. eigenvalues --   -1.16563  -1.08688  -1.08562  -1.07243  -1.06862
 Alpha  occ. eigenvalues --   -1.06842  -1.06693  -1.04635  -1.04385  -1.03817
 Alpha  occ. eigenvalues --   -1.03555  -1.03291  -1.02933  -1.02468  -1.02004
 Alpha  occ. eigenvalues --   -0.92028  -0.91882  -0.89589  -0.89402  -0.89235
 Alpha  occ. eigenvalues --   -0.89043  -0.88353  -0.88131  -0.87936  -0.87727
 Alpha  occ. eigenvalues --   -0.87698  -0.87577  -0.87316  -0.86995  -0.85029
 Alpha  occ. eigenvalues --   -0.84894  -0.84008  -0.83792  -0.83006  -0.82814
 Alpha  occ. eigenvalues --   -0.82693  -0.82543  -0.81637  -0.81505  -0.80647
 Alpha  occ. eigenvalues --   -0.80341  -0.78847  -0.78521  -0.77277  -0.77042
 Alpha  occ. eigenvalues --   -0.76986  -0.76804  -0.75973  -0.75733  -0.74958
 Alpha  occ. eigenvalues --   -0.74708  -0.72834  -0.72596  -0.71726  -0.71476
 Alpha  occ. eigenvalues --   -0.69987  -0.69679  -0.68921  -0.68722  -0.67693
 Alpha  occ. eigenvalues --   -0.67497  -0.67260  -0.67094  -0.65337  -0.65169
 Alpha  occ. eigenvalues --   -0.64910  -0.64676  -0.64670  -0.64555  -0.64335
 Alpha  occ. eigenvalues --   -0.64113  -0.62350  -0.62189  -0.60490  -0.60226
 Alpha  occ. eigenvalues --   -0.59854  -0.59688  -0.59044  -0.58891  -0.58560
 Alpha  occ. eigenvalues --   -0.58324  -0.57640  -0.57460  -0.57365  -0.57136
 Alpha  occ. eigenvalues --   -0.56364  -0.56100  -0.56025  -0.55793  -0.55565
 Alpha  occ. eigenvalues --   -0.55403  -0.55344  -0.55161  -0.54585  -0.54404
 Alpha  occ. eigenvalues --   -0.53941  -0.53806  -0.53352  -0.53265  -0.53126
 Alpha  occ. eigenvalues --   -0.53035  -0.52969  -0.52803  -0.52794  -0.52541
 Alpha  occ. eigenvalues --   -0.52522  -0.52329  -0.51987  -0.51801  -0.51659
 Alpha  occ. eigenvalues --   -0.51550  -0.51256  -0.51106  -0.50606  -0.50348
 Alpha  occ. eigenvalues --   -0.50097  -0.49959  -0.49868  -0.49768  -0.49557
 Alpha  occ. eigenvalues --   -0.49375  -0.49266  -0.49145  -0.49093  -0.49002
 Alpha  occ. eigenvalues --   -0.48647  -0.48518  -0.48485  -0.48458  -0.48285
 Alpha  occ. eigenvalues --   -0.48221  -0.47745  -0.47487  -0.47346  -0.47006
 Alpha  occ. eigenvalues --   -0.46858  -0.46611  -0.46600  -0.46448  -0.46417
 Alpha  occ. eigenvalues --   -0.46223  -0.46167  -0.45993  -0.45882  -0.45734
 Alpha  occ. eigenvalues --   -0.45262  -0.45111  -0.44636  -0.44553  -0.44419
 Alpha  occ. eigenvalues --   -0.44371  -0.44205  -0.44136  -0.44066  -0.44023
 Alpha  occ. eigenvalues --   -0.43980  -0.43826  -0.43550  -0.43466  -0.43438
 Alpha  occ. eigenvalues --   -0.43284  -0.43084  -0.42840  -0.42806  -0.42757
 Alpha  occ. eigenvalues --   -0.42719  -0.42460  -0.42077  -0.41876  -0.41760
 Alpha  occ. eigenvalues --   -0.41582  -0.41569  -0.41360  -0.41193  -0.40924
 Alpha  occ. eigenvalues --   -0.40883  -0.40855  -0.40636  -0.40617  -0.40588
 Alpha  occ. eigenvalues --   -0.40403  -0.40273  -0.40124  -0.39526  -0.39349
 Alpha  occ. eigenvalues --   -0.38532  -0.38260  -0.37793  -0.37556  -0.37383
 Alpha  occ. eigenvalues --   -0.37312  -0.37171  -0.37093  -0.36767  -0.36688
 Alpha  occ. eigenvalues --   -0.36249  -0.36124  -0.34343  -0.34149  -0.33823
 Alpha  occ. eigenvalues --   -0.33774  -0.33243  -0.33069  -0.31374  -0.31152
 Alpha  occ. eigenvalues --   -0.31089  -0.30865  -0.30089  -0.29859  -0.29500
 Alpha  occ. eigenvalues --   -0.29381  -0.29212  -0.29105  -0.24137  -0.23928
 Alpha  occ. eigenvalues --   -0.21185  -0.21009
 Alpha virt. eigenvalues --   -0.08828  -0.08681  -0.01804  -0.01576  -0.00101
 Alpha virt. eigenvalues --    0.00090   0.02141   0.02307   0.03055   0.03324
 Alpha virt. eigenvalues --    0.04667   0.04837   0.05047   0.05252   0.06138

 Mulliken charges:
               1
     1  Mg   0.838604
     2  C   -0.002904
     3  C   -0.094045
     4  C   -0.045835
     5  C   -0.064177
     6  N   -0.256804
     7  C   -0.052493
     8  C   -0.014008
     9  C   -0.087024
    10  C    0.046401
    11  C    0.104779
    12  C    0.053462
    13  C   -0.071954
    14  H    0.036420
    15  N   -0.433225
    16  C    0.168512
    17  C   -0.177004
    18  C   -0.003813
    19  C    0.148783
    20  C    0.110150
    21  C    0.012507
    22  O   -0.249268
    23  C    0.062369
    24  N   -0.341109
    25  C    0.041234
    26  C   -0.028299
    27  C   -0.023843
    28  C    0.074676
    29  C    0.076099
    30  C    0.035200
    31  C   -0.004424
    32  N   -0.310359
    33  C    0.080166
    34  C   -0.170208
    35  C    0.008285
    36  C    0.082755
    37  C    0.127439
    38  C    0.045879
    39  O   -0.188690
    40  C   -0.005234
    41  C    0.212825
    42  O   -0.257235
    43  O   -0.304769
    44  C    0.157646
    45  H   -0.017395
    46  H   -0.016593
    47  H   -0.041880
    48  H    0.001002
    49  H   -0.003917
    50  H    0.025508
    51  H    0.016470
    52  H    0.016821
    53  H    0.011143
    54  H    0.044112
    55  H    0.017925
    56  H    0.017971
    57  H    0.005925
    58  H    0.027087
    59  H    0.039766
    60  H    0.037347
    61  H    0.036278
    62  H    0.031590
    63  H    0.016675
    64  H    0.009489
    65  H    0.023451
    66  H    0.012718
    67  H    0.004749
    68  H    0.006478
    69  H    0.004308
    70  H    0.009234
    71  H    0.016824
    72  H    0.029047
    73  H    0.047013
    74  H    0.008703
    75  H    0.046133
    76  H    0.035238
    77  H    0.042981
    78  H    0.046570
    79  H    0.053765
    80  Mg   0.838051
    81  C   -0.016793
    82  C   -0.087391
    83  C   -0.045094
    84  C   -0.065088
    85  N   -0.254557
    86  C   -0.049897
    87  C   -0.015106
    88  C   -0.090523
    89  C    0.045718
    90  C    0.114171
    91  C    0.062556
    92  C   -0.077758
    93  H    0.034542
    94  N   -0.423693
    95  C    0.162974
    96  C   -0.173737
    97  C   -0.007493
    98  C    0.152358
    99  C    0.098973
   100  C    0.015924
   101  O   -0.253239
   102  C    0.061118
   103  N   -0.350001
   104  C    0.037716
   105  C   -0.019885
   106  C   -0.034605
   107  C    0.088862
   108  C    0.073559
   109  C    0.034828
   110  C   -0.007606
   111  N   -0.323998
   112  C    0.078288
   113  C   -0.163474
   114  C    0.002168
   115  C    0.096036
   116  C    0.131516
   117  C    0.042237
   118  O   -0.188293
   119  C    0.000940
   120  C    0.211195
   121  O   -0.251169
   122  O   -0.305576
   123  C    0.152115
   124  H   -0.018911
   125  H   -0.015480
   126  H   -0.041074
   127  H   -0.000778
   128  H   -0.004396
   129  H    0.022405
   130  H    0.015454
   131  H    0.016232
   132  H    0.013897
   133  H    0.037529
   134  H    0.020688
   135  H    0.019604
   136  H    0.008982
   137  H    0.027535
   138  H    0.039590
   139  H    0.039105
   140  H    0.036255
   141  H    0.033583
   142  H    0.014190
   143  H    0.011860
   144  H    0.024806
   145  H    0.012921
   146  H    0.005032
   147  H    0.005856
   148  H    0.003233
   149  H    0.010902
   150  H    0.017607
   151  H    0.030336
   152  H    0.045716
   153  H    0.008048
   154  H    0.046633
   155  H    0.035136
   156  H    0.043749
   157  H    0.049453
   158  H    0.053433
 Sum of Mulliken charges =  -0.00000

 Dipole moment (field-independent basis, Debye):
    X=              4.2355    Y=              0.6077    Z=              0.4549  Tot=              4.3030
 Quadrupole moment (field-independent basis, Debye-Ang):
   XX=           -522.1493   YY=           -546.4723   ZZ=           -450.6857
   XY=            -21.1291   XZ=             60.0032   YZ=             41.8253

 Normal termination of Gaussian 16 at Sat Sep 11 06:02:26 2021.
