 Gaussian 16, Revision A.03,
 Gaussian 16:  ES64L-G16RevA.03 25-Dec-2016

 -----------------------------------
 #p cam-b3lyp/Def2SVP td=(nstates=5)
 -----------------------------------

 --------------------------------
 TDDFT excited states in gaussian
 --------------------------------
 Symbolic Z-matrix:
 Charge =  0 Multiplicity = 1

                         Standard orientation:
 ---------------------------------------------------------------------
 Center     Atomic      Atomic             Coordinates (Angstroms)
 Number     Number       Type             X           Y           Z
 ---------------------------------------------------------------------
      1         12           0        7.889350   -0.722578    0.458067
      2          6           0        8.329686    1.818164   -2.024461
      3          6           0        8.974921    1.548788    2.761433
      4          6           0        7.942984   -3.071147    2.588318
      5          6           0        7.939721   -3.054383   -2.131490
      6          7           0        8.538906    1.385341    0.269923
      7          6           0        8.604312    2.260574   -0.728506
      8          6           0        8.919000    3.712126   -0.258034
      9          6           0        9.642700    3.377887    1.122741
     10          6           0        8.988410    2.040728    1.422461
     11          6           0       11.147496    3.168939    0.986972
     12          6           0        7.621193    4.559106   -0.034307
     13          6           0        7.841977    6.067934    0.107276
     14          1           0        6.846065    6.975937   -0.441393
     15          7           0        7.912704   -0.661068    2.432535
     16          6           0        8.375915    0.350224    3.205846
     17          6           0        8.174215   -0.081778    4.605622
     18          6           0        7.731462   -1.503602    4.583706
     19          6           0        7.871705   -1.814067    3.183948
     20          6           0        8.351680    0.829006    5.781517
     21          6           0        7.267215   -2.437836    5.656000
     22          8           0        7.152107   -3.695830    5.459089
     23          6           0        7.032374   -1.846739    6.985848
     24          7           0        8.154468   -2.786343    0.290068
     25          6           0        8.074513   -3.581884    1.362311
     26          6           0        8.013608   -5.027387    0.966394
     27          6           0        7.823041   -5.043875   -0.618902
     28          6           0        7.893574   -3.519200   -0.880937
     29          6           0        9.235895   -5.876328    1.342328
     30          6           0        6.609863   -5.832174   -1.173160
     31          6           0        5.324068   -5.146751   -0.768160
     32          7           0        7.918085   -0.654202   -1.711159
     33          6           0        7.959574   -1.747309   -2.588696
     34          6           0        8.075913   -1.201478   -3.953467
     35          6           0        8.110940    0.179795   -3.772629
     36          6           0        8.048552    0.477037   -2.381210
     37          6           0        8.193099   -1.964186   -5.148866
     38          6           0        8.211377    1.472893   -4.429644
     39          8           0        8.198233    1.853706   -5.601096
     40          6           0        8.479775    2.580516   -3.317456
     41          6           0        7.533755    3.721620   -3.574819
     42          8           0        6.302672    3.577032   -3.430269
     43          8           0        8.234861    4.856830   -3.717267
     44          6           0        7.353956    6.033208   -3.945946
     45          1           0        9.521464    2.097563    3.530899
     46          1           0        7.852787   -3.909728    3.281921
     47          1           0        7.875744   -3.718742   -2.995196
     48          1           0        9.596709    4.264173   -0.909478
     49          1           0        9.395326    4.102995    1.897819
     50          1           0       11.455322    3.156899   -0.058504
     51          1           0       11.350955    2.205514    1.454850
     52          1           0       11.695526    3.907896    1.572106
     53          1           0        7.213242    4.337944    0.951960
     54          1           0        6.897683    4.373610   -0.828946
     55          1           0        8.842081    6.356600   -0.217338
     56          1           0        7.818563    6.318500    1.167874
     57          1           0        8.840301    1.760003    5.496843
     58          1           0        9.059384    0.345614    6.454715
     59          1           0        7.412822    1.011639    6.304512
     60          1           0        7.954365   -1.388008    7.343687
     61          1           0        6.619781   -2.645387    7.601298
     62          1           0        6.305464   -1.039652    6.890137
     63          1           0        7.164847   -5.525325    1.433394
     64          1           0        8.680790   -5.482398   -1.129428
     65          1           0        8.994381   -6.743085    1.958046
     66          1           0        9.954759   -5.228727    1.843466
     67          1           0        9.820860   -6.235339    0.495957
     68          1           0        6.584993   -6.836114   -0.750749
     69          1           0        6.619375   -5.929312   -2.258851
     70          1           0        5.150231   -5.529592    0.236850
     71          1           0        4.513469   -5.431161   -1.439913
     72          1           0        5.456511   -4.067667   -0.687408
     73          1           0        7.536123   -1.490755   -5.878396
     74          1           0        7.916194   -3.005088   -4.983183
     75          1           0        9.255080   -1.843472   -5.362124
     76          1           0        9.521868    2.881604   -3.419972
     77          1           0        7.679631    6.502423   -4.874389
     78          1           0        7.393552    6.631606   -3.035585
     79          1           0        6.311078    5.816264   -4.179787
     80         12           0       -7.912133    0.726858    0.443538
     81          6           0       -8.269390   -1.825641   -2.053697
     82          6           0       -8.932699   -1.582912    2.736572
     83          6           0       -8.041759    3.060526    2.589373
     84          6           0       -8.035649    3.070342   -2.132994
     85          7           0       -8.496461   -1.397147    0.244970
     86          6           0       -8.534383   -2.277346   -0.744045
     87          6           0       -8.796859   -3.739573   -0.294004
     88          6           0       -9.541210   -3.433536    1.095648
     89          6           0       -8.930748   -2.067992    1.404363
     90          6           0      -11.044042   -3.262640    0.948507
     91          6           0       -7.468198   -4.543371   -0.069090
     92          6           0       -7.647817   -6.056687    0.070136
     93          1           0       -6.616425   -6.933345   -0.477731
     94          7           0       -7.935398    0.648385    2.426432
     95          6           0       -8.361452   -0.375616    3.195327
     96          6           0       -8.191442    0.068689    4.587395
     97          6           0       -7.784833    1.500214    4.576546
     98          6           0       -7.928221    1.804300    3.166914
     99          6           0       -8.334508   -0.857203    5.760285
    100          6           0       -7.352391    2.443358    5.658068
    101          8           0       -7.275139    3.707061    5.458259
    102          6           0       -7.112135    1.854810    6.983725
    103          7           0       -8.234731    2.774354    0.282162
    104          6           0       -8.187897    3.569103    1.365725
    105          6           0       -8.174106    5.027074    0.972654
    106          6           0       -7.976524    5.042356   -0.614273
    107          6           0       -8.000744    3.522329   -0.886932
    108          6           0       -9.425067    5.826208    1.337202
    109          6           0       -6.786706    5.873658   -1.167372
    110          6           0       -5.477974    5.238604   -0.755889
    111          7           0       -7.928764    0.664655   -1.716075
    112          6           0       -8.009500    1.762601   -2.600430
    113          6           0       -8.105253    1.213522   -3.968562
    114          6           0       -8.096696   -0.177029   -3.782061
    115          6           0       -8.022639   -0.473643   -2.394242
    116          6           0       -8.233360    1.975834   -5.163796
    117          6           0       -8.144192   -1.461408   -4.442983
    118          8           0       -8.123363   -1.836831   -5.614458
    119          6           0       -8.385654   -2.585747   -3.345724
    120          6           0       -7.403404   -3.697172   -3.595587
    121          8           0       -6.182570   -3.504713   -3.457258
    122          8           0       -8.074878   -4.853741   -3.743310
    123          6           0       -7.142888   -5.987798   -3.982339
    124          1           0       -9.457791   -2.160138    3.498134
    125          1           0       -7.979761    3.904470    3.280309
    126          1           0       -7.978934    3.735728   -2.997131
    127          1           0       -9.448761   -4.306106   -0.948095
    128          1           0       -9.264992   -4.156088    1.859175
    129          1           0      -11.349504   -3.258124   -0.087263
    130          1           0      -11.279667   -2.315850    1.416580
    131          1           0      -11.568954   -4.025509    1.530591
    132          1           0       -7.072064   -4.308741    0.927291
    133          1           0       -6.759711   -4.333599   -0.846698
    134          1           0       -8.642990   -6.385144   -0.253434
    135          1           0       -7.612554   -6.314129    1.131501
    136          1           0       -8.800179   -1.806706    5.468757
    137          1           0       -9.057563   -0.398523    6.443414
    138          1           0       -7.393517   -1.010925    6.292805
    139          1           0       -8.018552    1.364524    7.330837
    140          1           0       -6.725393    2.669268    7.599322
    141          1           0       -6.349383    1.074128    6.886891
    142          1           0       -7.342647    5.544495    1.435300
    143          1           0       -8.850101    5.468006   -1.129554
    144          1           0       -9.210288    6.709675    1.967612
    145          1           0      -10.120266    5.163568    1.835335
    146          1           0      -10.010022    6.180287    0.490066
    147          1           0       -6.793497    6.877797   -0.736310
    148          1           0       -6.803028    5.986233   -2.246275
    149          1           0       -5.324268    5.623891    0.256542
    150          1           0       -4.675526    5.548629   -1.422232
    151          1           0       -5.574985    4.149159   -0.682790
    152          1           0       -7.566870    1.530204   -5.890224
    153          1           0       -7.994759    3.023764   -4.994490
    154          1           0       -9.294951    1.825948   -5.377872
    155          1           0       -9.418430   -2.922464   -3.443483
    156          1           0       -7.454894   -6.466462   -4.915734
    157          1           0       -7.179524   -6.603270   -3.063869
    158          1           0       -6.108976   -5.748988   -4.202442
 ---------------------------------------------------------------------

 SCF Done:  E(RCAM-B3LYP) =  -4069.81165827     A.U. after   19 cycles

 Excitation energies and oscillator strengths:

 Excited State   1:      Singlet-A      1.6699 eV  742.48 nm  f=0.0178  <S**2>=0.000
     309 -> 315       -0.10423
     310 -> 316        0.13729
     311 -> 313        0.54769
     312 -> 314       -0.41366
 This state for optimization and/or second-order correction.
 Total Energy, E(TD-HF/TD-DFT) =  -4069.75029151
 Copying the excited state density for this state as the 1-particle RhoCI density.

 Excited State   2:      Singlet-A      1.6850 eV  735.80 nm  f=0.7400  <S**2>=0.000
     309 -> 315        0.14107
     310 -> 316        0.10600
     311 -> 313        0.41315
     312 -> 314        0.54688

 Excited State   3:      Singlet-A      2.1854 eV  567.33 nm  f=0.0600  <S**2>=0.000
     309 -> 314        0.13463
     310 -> 313        0.62845
     311 -> 316       -0.26662

 Excited State   4:      Singlet-A      2.1924 eV  565.52 nm  f=0.1339  <S**2>=0.000
     309 -> 314        0.62656
     310 -> 313       -0.13371
     312 -> 315       -0.27210

 Excited State   5:      Singlet-A      2.8010 eV  442.64 nm  f=0.0000  <S**2>=0.000
     312 -> 313        0.70710

 The electronic state is 1-A.
 Alpha  occ. eigenvalues --  -46.87690 -46.87595 -19.26278 -19.26172 -19.19083
 Alpha  occ. eigenvalues --  -19.18902 -19.18731 -19.18669 -19.18059 -19.17981
 Alpha  occ. eigenvalues --  -14.42434 -14.42346 -14.41345 -14.41295 -14.39299
 Alpha  occ. eigenvalues --  -14.39288 -14.38532 -14.38478 -10.39014 -10.38963
 Alpha  occ. eigenvalues --  -10.35366 -10.35348 -10.34278 -10.34158 -10.31688
 Alpha  occ. eigenvalues --  -10.31571 -10.31298 -10.31242 -10.30964 -10.30809
 Alpha  occ. eigenvalues --  -10.30461 -10.30402 -10.30332 -10.30292 -10.30107
 Alpha  occ. eigenvalues --  -10.30081 -10.29828 -10.29815 -10.29526 -10.29376
 Alpha  occ. eigenvalues --  -10.29337 -10.29153 -10.28659 -10.28649 -10.28595
 Alpha  occ. eigenvalues --  -10.28439 -10.28341 -10.28261 -10.28082 -10.28018
 Alpha  occ. eigenvalues --  -10.27936 -10.27688 -10.27624 -10.27607 -10.27483
 Alpha  occ. eigenvalues --  -10.27454 -10.27420 -10.27417 -10.27405 -10.27398
 Alpha  occ. eigenvalues --  -10.27393 -10.27352 -10.27318 -10.27299 -10.27050
 Alpha  occ. eigenvalues --  -10.26982 -10.26629 -10.26600 -10.26386 -10.26343
 Alpha  occ. eigenvalues --  -10.26143 -10.26069 -10.26061 -10.25974 -10.25913
 Alpha  occ. eigenvalues --  -10.25868 -10.25770 -10.25722 -10.25352 -10.25351
 Alpha  occ. eigenvalues --  -10.24806 -10.24726 -10.24686 -10.24637 -10.24628
 Alpha  occ. eigenvalues --  -10.24555  -3.16433  -3.16344  -1.91314  -1.91226
 Alpha  occ. eigenvalues --   -1.90901  -1.90815  -1.90743  -1.90652  -1.16571
 Alpha  occ. eigenvalues --   -1.16520  -1.08587  -1.08515  -1.07134  -1.06923
 Alpha  occ. eigenvalues --   -1.06868  -1.06525  -1.04477  -1.04432  -1.03657
 Alpha  occ. eigenvalues --   -1.03599  -1.03129  -1.02974  -1.02306  -1.02047
 Alpha  occ. eigenvalues --   -0.91921  -0.91866  -0.89427  -0.89413  -0.89091
 Alpha  occ. eigenvalues --   -0.89087  -0.88183  -0.88156  -0.87760  -0.87723
 Alpha  occ. eigenvalues --   -0.87621  -0.87570  -0.87180  -0.87067  -0.84939
 Alpha  occ. eigenvalues --   -0.84881  -0.83830  -0.83809  -0.82882  -0.82879
 Alpha  occ. eigenvalues --   -0.82594  -0.82549  -0.81529  -0.81478  -0.80493
 Alpha  occ. eigenvalues --   -0.80379  -0.78698  -0.78575  -0.77114  -0.77082
 Alpha  occ. eigenvalues --   -0.76834  -0.76831  -0.75820  -0.75776  -0.74798
 Alpha  occ. eigenvalues --   -0.74742  -0.72668  -0.72633  -0.71571  -0.71520
 Alpha  occ. eigenvalues --   -0.69797  -0.69687  -0.68773  -0.68767  -0.67540
 Alpha  occ. eigenvalues --   -0.67539  -0.67142  -0.67121  -0.65209  -0.65183
 Alpha  occ. eigenvalues --   -0.64748  -0.64705  -0.64590  -0.64516  -0.64164
 Alpha  occ. eigenvalues --   -0.64138  -0.62210  -0.62189  -0.60346  -0.60283
 Alpha  occ. eigenvalues --   -0.59735  -0.59702  -0.58929  -0.58883  -0.58399
 Alpha  occ. eigenvalues --   -0.58361  -0.57485  -0.57475  -0.57206  -0.57174
 Alpha  occ. eigenvalues --   -0.56207  -0.56140  -0.55872  -0.55821  -0.55424
 Alpha  occ. eigenvalues --   -0.55394  -0.55233  -0.55181  -0.54419  -0.54415
 Alpha  occ. eigenvalues --   -0.53852  -0.53794  -0.53199  -0.53167  -0.53123
 Alpha  occ. eigenvalues --   -0.53081  -0.52837  -0.52809  -0.52664  -0.52619
 Alpha  occ. eigenvalues --   -0.52326  -0.52325  -0.51810  -0.51800  -0.51600
 Alpha  occ. eigenvalues --   -0.51517  -0.51133  -0.51088  -0.50487  -0.50427
 Alpha  occ. eigenvalues --   -0.49929  -0.49923  -0.49826  -0.49806  -0.49433
 Alpha  occ. eigenvalues --   -0.49418  -0.49141  -0.49112  -0.49042  -0.48995
 Alpha  occ. eigenvalues --   -0.48494  -0.48488  -0.48367  -0.48346  -0.48314
 Alpha  occ. eigenvalues --   -0.48286  -0.47595  -0.47535  -0.47199  -0.47061
 Alpha  occ. eigenvalues --   -0.46691  -0.46644  -0.46494  -0.46455  -0.46254
 Alpha  occ. eigenvalues --   -0.46206  -0.46056  -0.46020  -0.45753  -0.45712
 Alpha  occ. eigenvalues --   -0.45148  -0.45101  -0.44471  -0.44451  -0.44414
 Alpha  occ. eigenvalues --   -0.44410  -0.44067  -0.44040  -0.44012  -0.43990
 Alpha  occ. eigenvalues --   -0.43918  -0.43883  -0.43485  -0.43386  -0.43323
 Alpha  occ. eigenvalues --   -0.43284  -0.42923  -0.42863  -0.42834  -0.42591
 Alpha  occ. eigenvalues --   -0.42544  -0.42488  -0.41900  -0.41895  -0.41604
 Alpha  occ. eigenvalues --   -0.41599  -0.41432  -0.41396  -0.41041  -0.40929
 Alpha  occ. eigenvalues --   -0.40768  -0.40734  -0.40670  -0.40639  -0.40467
 Alpha  occ. eigenvalues --   -0.40428  -0.40169  -0.40134  -0.39352  -0.39328
 Alpha  occ. eigenvalues --   -0.38366  -0.38288  -0.37646  -0.37592  -0.37216
 Alpha  occ. eigenvalues --   -0.37201  -0.37160  -0.37137  -0.36699  -0.36602
 Alpha  occ. eigenvalues --   -0.36151  -0.36085  -0.34188  -0.34180  -0.33786
 Alpha  occ. eigenvalues --   -0.33654  -0.33110  -0.33080  -0.31261  -0.31228
 Alpha  occ. eigenvalues --   -0.30932  -0.30910  -0.29917  -0.29884  -0.29348
 Alpha  occ. eigenvalues --   -0.29266  -0.29214  -0.29144  -0.23975  -0.23971
 Alpha  occ. eigenvalues --   -0.21053  -0.21023
 Alpha virt. eigenvalues --   -0.08729  -0.08671  -0.01647  -0.01622   0.00027
 Alpha virt. eigenvalues --    0.00038   0.02274   0.02308   0.03248   0.03312
 Alpha virt. eigenvalues --    0.04791   0.04821   0.05213   0.05240   0.06242

 Mulliken charges:
               1
     1  Mg   0.839142
     2  C   -0.002897
     3  C   -0.094134
     4  C   -0.045918
     5  C   -0.063864
     6  N   -0.256763
     7  C   -0.052388
     8  C   -0.014050
     9  C   -0.086994
    10  C    0.046318
    11  C    0.104862
    12  C    0.053453
    13  C   -0.071747
    14  H    0.036146
    15  N   -0.433085
    16  C    0.168374
    17  C   -0.177267
    18  C   -0.004156
    19  C    0.148715
    20  C    0.110223
    21  C    0.012188
    22  O   -0.249930
    23  C    0.062523
    24  N   -0.341208
    25  C    0.041251
    26  C   -0.028082
    27  C   -0.024020
    28  C    0.074995
    29  C    0.076263
    30  C    0.035097
    31  C   -0.004516
    32  N   -0.310567
    33  C    0.080648
    34  C   -0.169338
    35  C    0.008431
    36  C    0.083245
    37  C    0.127214
    38  C    0.046367
    39  O   -0.188243
    40  C   -0.005433
    41  C    0.212854
    42  O   -0.256701
    43  O   -0.304915
    44  C    0.157680
    45  H   -0.017803
    46  H   -0.017093
    47  H   -0.041338
    48  H    0.000855
    49  H   -0.004102
    50  H    0.025409
    51  H    0.016363
    52  H    0.016484
    53  H    0.011306
    54  H    0.044344
    55  H    0.017720
    56  H    0.017887
    57  H    0.005822
    58  H    0.026553
    59  H    0.039427
    60  H    0.037269
    61  H    0.035211
    62  H    0.031509
    63  H    0.016427
    64  H    0.009325
    65  H    0.022925
    66  H    0.012427
    67  H    0.004640
    68  H    0.006036
    69  H    0.004932
    70  H    0.008407
    71  H    0.018874
    72  H    0.029258
    73  H    0.048057
    74  H    0.009302
    75  H    0.045816
    76  H    0.034997
    77  H    0.042835
    78  H    0.046266
    79  H    0.053880
    80  Mg   0.838243
    81  C   -0.016776
    82  C   -0.087809
    83  C   -0.045562
    84  C   -0.064808
    85  N   -0.254558
    86  C   -0.049764
    87  C   -0.015119
    88  C   -0.090509
    89  C    0.045771
    90  C    0.114425
    91  C    0.062513
    92  C   -0.077840
    93  H    0.034905
    94  N   -0.423444
    95  C    0.162870
    96  C   -0.174730
    97  C   -0.007954
    98  C    0.152117
    99  C    0.099407
   100  C    0.015472
   101  O   -0.253456
   102  C    0.061246
   103  N   -0.350129
   104  C    0.037530
   105  C   -0.019758
   106  C   -0.034855
   107  C    0.089052
   108  C    0.073747
   109  C    0.034707
   110  C   -0.007697
   111  N   -0.324200
   112  C    0.078703
   113  C   -0.162755
   114  C    0.002302
   115  C    0.096463
   116  C    0.131406
   117  C    0.042648
   118  O   -0.187647
   119  C    0.000812
   120  C    0.211240
   121  O   -0.250619
   122  O   -0.305743
   123  C    0.152021
   124  H   -0.019838
   125  H   -0.015796
   126  H   -0.040273
   127  H   -0.000715
   128  H   -0.004386
   129  H    0.022399
   130  H    0.014346
   131  H    0.016130
   132  H    0.014016
   133  H    0.037891
   134  H    0.020652
   135  H    0.019537
   136  H    0.008716
   137  H    0.025899
   138  H    0.039673
   139  H    0.038191
   140  H    0.035988
   141  H    0.033885
   142  H    0.014303
   143  H    0.012297
   144  H    0.024888
   145  H    0.011516
   146  H    0.005576
   147  H    0.005983
   148  H    0.003858
   149  H    0.010582
   150  H    0.018663
   151  H    0.030352
   152  H    0.046506
   153  H    0.008714
   154  H    0.046758
   155  H    0.034878
   156  H    0.043826
   157  H    0.049347
   158  H    0.053768
 Sum of Mulliken charges =  -0.00000

 Dipole moment (field-independent basis, Debye):
    X=              0.0956    Y=             -0.1259    Z=              7.3018  Tot=              7.3036
 Quadrupole moment (field-independent basis, Debye-Ang):
   XX=           -450.2882   YY=           -461.1131   ZZ=           -539.8714
   XY=             31.6663   XZ=              2.3968   YZ=             -0.0374

 Normal termination of Gaussian 16 at Sat Sep 11 22:19:38 2021.
