 Gaussian 16, Revision A.03,
 Gaussian 16:  ES64L-G16RevA.03 25-Dec-2016

 -----------------------------------
 #p cam-b3lyp/Def2SVP td=(nstates=5)
 -----------------------------------

 --------------------------------
 TDDFT excited states in gaussian
 --------------------------------
 Symbolic Z-matrix:
 Charge =  0 Multiplicity = 1

                         Standard orientation:
 ---------------------------------------------------------------------
 Center     Atomic      Atomic             Coordinates (Angstroms)
 Number     Number       Type             X           Y           Z
 ---------------------------------------------------------------------
      1         12           0       -4.084806    0.523044   -0.153499
      2          6           0       -3.169025    3.968689   -0.471444
      3          6           0       -4.717868    0.535961   -3.506428
      4          6           0       -5.326191   -2.375993    0.179916
      5          6           0       -4.467757    1.092852    3.263272
      6          7           0       -3.923842    2.111678   -1.686790
      7          6           0       -3.503083    3.372679   -1.689566
      8          6           0       -3.378064    3.979121   -3.119242
      9          6           0       -4.408551    3.033566   -3.884762
     10          6           0       -4.319911    1.806609   -2.994456
     11          6           0       -5.842649    3.552651   -3.864380
     12          6           0       -1.930895    3.838377   -3.700296
     13          6           0       -1.640425    4.685313   -4.942745
     14          1           0       -0.311386    5.254479   -5.107228
     15          7           0       -4.440594   -0.880628   -1.497363
     16          6           0       -4.658507   -0.697181   -2.821805
     17          6           0       -4.873348   -2.045357   -3.390087
     18          6           0       -4.950874   -3.009463   -2.257575
     19          6           0       -4.934995   -2.112200   -1.130613
     20          6           0       -4.935028   -2.317701   -4.861744
     21          6           0       -5.037726   -4.501883   -2.200377
     22          8           0       -5.329265   -5.125440   -1.122994
     23          6           0       -4.857247   -5.219765   -3.475177
     24          7           0       -5.009293   -0.450605    1.444926
     25          6           0       -5.402502   -1.724918    1.342466
     26          6           0       -5.772711   -2.291416    2.681109
     27          6           0       -5.317402   -1.207092    3.761242
     28          6           0       -4.810367   -0.109031    2.794057
     29          6           0       -7.258917   -2.618559    2.881560
     30          6           0       -4.371094   -1.691584    4.888268
     31          6           0       -3.023241   -2.054230    4.306136
     32          7           0       -3.697244    2.163225    1.214217
     33          6           0       -3.953794    2.190126    2.592670
     34          6           0       -3.627413    3.547740    3.066407
     35          6           0       -3.216750    4.225534    1.920198
     36          6           0       -3.307422    3.354698    0.796937
     37          6           0       -3.782756    4.025690    4.397522
     38          6           0       -2.745886    5.490156    1.379018
     39          8           0       -2.391798    6.564241    1.867337
     40          6           0       -2.812128    5.410856   -0.210055
     41          6           0       -1.501261    5.918998   -0.745524
     42          8           0       -0.442662    5.287543   -0.550598
     43          8           0       -1.730873    6.930815   -1.596434
     44          6           0       -0.473027    7.461678   -2.186488
     45          1           0       -5.171093    0.485001   -4.498361
     46          1           0       -5.656615   -3.401241    0.359149
     47          1           0       -4.482021    1.319388    4.330948
     48          1           0       -3.695237    5.018883   -3.201222
     49          1           0       -4.070522    2.795318   -4.893075
     50          1           0       -5.942238    4.422700   -3.215521
     51          1           0       -6.446008    2.726209   -3.488286
     52          1           0       -6.198593    3.747215   -4.876420
     53          1           0       -1.808664    2.841096   -4.122850
     54          1           0       -1.185013    4.054083   -2.934491
     55          1           0       -2.404173    5.449076   -5.091952
     56          1           0       -1.723522    4.044050   -5.820286
     57          1           0       -5.013538   -1.395844   -5.436690
     58          1           0       -5.874743   -2.836386   -5.050452
     59          1           0       -4.101187   -2.932705   -5.200581
     60          1           0       -5.613328   -4.886159   -4.186231
     61          1           0       -4.862780   -6.280393   -3.226404
     62          1           0       -3.892364   -4.944399   -3.901937
     63          1           0       -5.246091   -3.226109    2.869382
     64          1           0       -6.166839   -0.778145    4.293348
     65          1           0       -7.445587   -3.657303    3.155183
     66          1           0       -7.788606   -2.353848    1.966875
     67          1           0       -7.769163   -1.995394    3.615543
     68          1           0       -4.769818   -2.590064    5.358054
     69          1           0       -4.217853   -0.948299    5.670761
     70          1           0       -3.175768   -3.074586    3.956220
     71          1           0       -2.253284   -2.017013    5.077493
     72          1           0       -2.788353   -1.442623    3.434787
     73          1           0       -2.883074    4.598135    4.623017
     74          1           0       -3.915748    3.203601    5.100434
     75          1           0       -4.681386    4.633021    4.290421
     76          1           0       -3.650275    6.034037   -0.520341
     77          1           0       -0.444463    8.530298   -1.973252
     78          1           0       -0.467403    7.154086   -3.232318
     79          1           0        0.455358    7.133417   -1.717783
     80         12           0        3.460086   -1.891345    0.482917
     81          6           0        5.530083    1.039837    0.434053
     82          6           0        4.053408   -2.183932   -2.863274
     83          6           0        1.290258   -4.204914    0.401319
     84          6           0        2.135953   -0.736660    3.492740
     85          7           0        4.654782   -0.668439   -0.920459
     86          6           0        5.448022    0.386867   -0.813485
     87          6           0        6.257557    0.715691   -2.096476
     88          6           0        5.292394    0.019603   -3.174810
     89          6           0        4.647175   -1.036356   -2.279656
     90          6           0        4.199816    0.942340   -3.688787
     91          6           0        7.681495    0.056614   -2.090103
     92          6           0        8.638915    0.583725   -3.161205
     93          1           0       10.058020    0.691447   -2.834116
     94          7           0        3.145387   -3.309807   -0.868940
     95          6           0        3.470427   -3.272592   -2.178236
     96          6           0        3.009397   -4.550045   -2.743680
     97          6           0        2.238659   -5.275222   -1.697358
     98          6           0        2.175825   -4.260017   -0.665117
     99          6           0        3.377708   -5.008715   -4.124769
    100          6           0        1.644100   -6.649813   -1.640803
    101          8           0        0.811485   -6.986205   -0.726248
    102          6           0        1.993173   -7.560827   -2.740664
    103          7           0        1.785495   -2.295534    1.646834
    104          6           0        1.043347   -3.395940    1.431811
    105          6           0        0.062077   -3.620621    2.557420
    106          6           0        0.466960   -2.572969    3.695876
    107          6           0        1.606145   -1.830779    2.963220
    108          6           0       -1.412980   -3.438890    2.200244
    109          6           0        0.748890   -3.146189    5.111724
    110          6           0        2.003300   -3.989524    5.086718
    111          7           0        3.882508   -0.270825    1.848019
    112          6           0        3.188993    0.045930    3.036625
    113          6           0        3.771123    1.298940    3.559599
    114          6           0        4.755245    1.639256    2.619296
    115          6           0        4.770684    0.677827    1.572924
    116          6           0        3.346392    1.988478    4.730185
    117          6           0        5.777320    2.598934    2.268472
    118          8           0        6.274889    3.579200    2.820969
    119          6           0        6.238525    2.322005    0.772816
    120          6           0        7.742403    2.320459    0.743228
    121          8           0        8.385501    1.442088    1.344464
    122          8           0        8.166228    3.220922   -0.162271
    123          6           0        9.651356    3.248488   -0.236099
    124          1           0        3.989072   -2.238769   -3.950355
    125          1           0        0.592911   -5.042276    0.478863
    126          1           0        1.844570   -0.364606    4.477297
    127          1           0        6.355950    1.772649   -2.313103
    128          1           0        5.863831   -0.452133   -3.969970
    129          1           0        4.180522    1.880597   -3.154516
    130          1           0        3.270688    0.406326   -3.545740
    131          1           0        4.302952    1.083892   -4.768434
    132          1           0        7.593834   -0.988361   -2.414274
    133          1           0        8.137523    0.144149   -1.123139
    134          1           0        8.277444    1.514406   -3.615192
    135          1           0        8.658845   -0.128508   -3.989668
    136          1           0        3.812903   -4.193947   -4.716517
    137          1           0        2.442550   -5.250208   -4.641517
    138          1           0        4.016676   -5.894336   -4.118068
    139          1           0        1.687667   -7.119143   -3.686198
    140          1           0        1.545757   -8.521325   -2.477710
    141          1           0        3.083551   -7.662133   -2.778354
    142          1           0        0.152685   -4.624049    2.954942
    143          1           0       -0.328379   -1.833581    3.870692
    144          1           0       -2.027096   -4.334255    2.412984
    145          1           0       -1.480412   -3.171329    1.154109
    146          1           0       -1.905572   -2.598251    2.685925
    147          1           0       -0.063851   -3.807898    5.421133
    148          1           0        0.850072   -2.381778    5.874902
    149          1           0        1.642653   -4.957636    4.726461
    150          1           0        2.428544   -4.073281    6.084804
    151          1           0        2.718802   -3.608864    4.348608
    152          1           0        4.242390    2.290199    5.256153
    153          1           0        2.711230    1.361516    5.352496
    154          1           0        2.791316    2.815247    4.278940
    155          1           0        5.817591    3.111252    0.148730
    156          1           0        9.960973    4.282875   -0.057584
    157          1           0        9.909944    2.807460   -1.217106
    158          1           0       10.201432    2.726466    0.538092
 ---------------------------------------------------------------------

 SCF Done:  E(RCAM-B3LYP) =  -4069.79616339     A.U. after   19 cycles

 Excitation energies and oscillator strengths:

 Excited State   1:      Singlet-A      1.6356 eV  758.03 nm  f=0.0027  <S**2>=0.000
     309 -> 315       -0.10948
     310 -> 316        0.12189
     311 -> 313        0.45854
     312 -> 314        0.51299
 This state for optimization and/or second-order correction.
 Total Energy, E(TD-HF/TD-DFT) =  -4069.73605594
 Copying the excited state density for this state as the 1-particle RhoCI density.

 Excited State   2:      Singlet-A      1.7110 eV  724.63 nm  f=0.6742  <S**2>=0.000
     309 -> 315       -0.13718
     310 -> 316       -0.12187
     311 -> 313        0.50943
     312 -> 314       -0.45554

 Excited State   3:      Singlet-A      2.1782 eV  569.22 nm  f=0.0310  <S**2>=0.000
     309 -> 313       -0.31464
     310 -> 314        0.56474
     311 -> 315       -0.12801
     312 -> 316       -0.23167

 Excited State   4:      Singlet-A      2.1986 eV  563.91 nm  f=0.1444  <S**2>=0.000
     309 -> 313        0.55788
     310 -> 314        0.30831
     311 -> 315        0.24792
     312 -> 316       -0.14007

 Excited State   5:      Singlet-A      2.2104 eV  560.93 nm  f=0.0001  <S**2>=0.000
     312 -> 313        0.70622

 The electronic state is 1-A.
 Alpha  occ. eigenvalues --  -46.87920 -46.87324 -19.26329 -19.26080 -19.19066
 Alpha  occ. eigenvalues --  -19.18877 -19.18794 -19.18436 -19.18232 -19.17677
 Alpha  occ. eigenvalues --  -14.42575 -14.42172 -14.41619 -14.41011 -14.39510
 Alpha  occ. eigenvalues --  -14.39025 -14.38708 -14.38245 -10.39131 -10.38797
 Alpha  occ. eigenvalues --  -10.35425 -10.35122 -10.34455 -10.33853 -10.31714
 Alpha  occ. eigenvalues --  -10.31540 -10.31529 -10.31011 -10.30978 -10.30716
 Alpha  occ. eigenvalues --  -10.30702 -10.30632 -10.30383 -10.30097 -10.30050
 Alpha  occ. eigenvalues --  -10.30022 -10.29825 -10.29736 -10.29501 -10.29362
 Alpha  occ. eigenvalues --  -10.29109 -10.29078 -10.28867 -10.28690 -10.28472
 Alpha  occ. eigenvalues --  -10.28460 -10.28449 -10.28240 -10.28062 -10.27887
 Alpha  occ. eigenvalues --  -10.27872 -10.27857 -10.27778 -10.27691 -10.27676
 Alpha  occ. eigenvalues --  -10.27648 -10.27573 -10.27517 -10.27363 -10.27291
 Alpha  occ. eigenvalues --  -10.27232 -10.27155 -10.27148 -10.27125 -10.26889
 Alpha  occ. eigenvalues --  -10.26840 -10.26686 -10.26492 -10.26465 -10.26344
 Alpha  occ. eigenvalues --  -10.26336 -10.26241 -10.26198 -10.25978 -10.25954
 Alpha  occ. eigenvalues --  -10.25759 -10.25607 -10.25601 -10.25406 -10.25232
 Alpha  occ. eigenvalues --  -10.24932 -10.24923 -10.24555 -10.24505 -10.24310
 Alpha  occ. eigenvalues --  -10.24140  -3.16664  -3.16074  -1.91545  -1.91133
 Alpha  occ. eigenvalues --   -1.90973  -1.90956  -1.90545  -1.90381  -1.16679
 Alpha  occ. eigenvalues --   -1.16369  -1.08687  -1.08283  -1.07182  -1.06692
 Alpha  occ. eigenvalues --   -1.06689  -1.06659  -1.04702  -1.04170  -1.03910
 Alpha  occ. eigenvalues --   -1.03358  -1.03328  -1.02689  -1.02542  -1.01759
 Alpha  occ. eigenvalues --   -0.92080  -0.91640  -0.89809  -0.89315  -0.89183
 Alpha  occ. eigenvalues --   -0.88877  -0.88541  -0.87978  -0.87869  -0.87810
 Alpha  occ. eigenvalues --   -0.87413  -0.87358  -0.87339  -0.86857  -0.85111
 Alpha  occ. eigenvalues --   -0.84721  -0.84327  -0.83521  -0.83069  -0.82749
 Alpha  occ. eigenvalues --   -0.82665  -0.82371  -0.81688  -0.81292  -0.80705
 Alpha  occ. eigenvalues --   -0.80137  -0.78895  -0.78335  -0.77505  -0.77111
 Alpha  occ. eigenvalues --   -0.76849  -0.76593  -0.76055  -0.75547  -0.75205
 Alpha  occ. eigenvalues --   -0.74423  -0.72946  -0.72371  -0.71813  -0.71421
 Alpha  occ. eigenvalues --   -0.70498  -0.69266  -0.68971  -0.68541  -0.67747
 Alpha  occ. eigenvalues --   -0.67324  -0.67262  -0.66945  -0.65458  -0.65087
 Alpha  occ. eigenvalues --   -0.64966  -0.64830  -0.64553  -0.64431  -0.64318
 Alpha  occ. eigenvalues --   -0.63798  -0.62411  -0.61964  -0.60555  -0.60035
 Alpha  occ. eigenvalues --   -0.59921  -0.59499  -0.59133  -0.58658  -0.58633
 Alpha  occ. eigenvalues --   -0.58095  -0.57684  -0.57477  -0.57213  -0.56912
 Alpha  occ. eigenvalues --   -0.56422  -0.56067  -0.55902  -0.55682  -0.55601
 Alpha  occ. eigenvalues --   -0.55529  -0.55169  -0.54994  -0.54714  -0.54242
 Alpha  occ. eigenvalues --   -0.54020  -0.53647  -0.53425  -0.53293  -0.53119
 Alpha  occ. eigenvalues --   -0.52935  -0.52865  -0.52839  -0.52742  -0.52622
 Alpha  occ. eigenvalues --   -0.52442  -0.52194  -0.52025  -0.51707  -0.51480
 Alpha  occ. eigenvalues --   -0.51413  -0.51391  -0.50880  -0.50753  -0.50435
 Alpha  occ. eigenvalues --   -0.50255  -0.50039  -0.49821  -0.49672  -0.49575
 Alpha  occ. eigenvalues --   -0.49283  -0.49234  -0.49192  -0.48911  -0.48851
 Alpha  occ. eigenvalues --   -0.48701  -0.48581  -0.48478  -0.48441  -0.48222
 Alpha  occ. eigenvalues --   -0.48053  -0.47718  -0.47411  -0.47337  -0.47229
 Alpha  occ. eigenvalues --   -0.46774  -0.46688  -0.46575  -0.46423  -0.46345
 Alpha  occ. eigenvalues --   -0.46280  -0.45953  -0.45922  -0.45767  -0.45543
 Alpha  occ. eigenvalues --   -0.45402  -0.45066  -0.44644  -0.44476  -0.44331
 Alpha  occ. eigenvalues --   -0.44234  -0.44191  -0.44088  -0.43947  -0.43807
 Alpha  occ. eigenvalues --   -0.43769  -0.43644  -0.43575  -0.43518  -0.43260
 Alpha  occ. eigenvalues --   -0.43185  -0.43020  -0.42950  -0.42750  -0.42619
 Alpha  occ. eigenvalues --   -0.42473  -0.42357  -0.42093  -0.41757  -0.41679
 Alpha  occ. eigenvalues --   -0.41623  -0.41370  -0.41263  -0.41178  -0.40915
 Alpha  occ. eigenvalues --   -0.40845  -0.40680  -0.40562  -0.40438  -0.40395
 Alpha  occ. eigenvalues --   -0.40322  -0.40256  -0.39987  -0.39556  -0.39079
 Alpha  occ. eigenvalues --   -0.38554  -0.37891  -0.37861  -0.37510  -0.37379
 Alpha  occ. eigenvalues --   -0.37376  -0.36911  -0.36868  -0.36670  -0.36403
 Alpha  occ. eigenvalues --   -0.36255  -0.35765  -0.34412  -0.33888  -0.33829
 Alpha  occ. eigenvalues --   -0.33566  -0.33306  -0.32838  -0.31342  -0.31144
 Alpha  occ. eigenvalues --   -0.30989  -0.30619  -0.30094  -0.29583  -0.29527
 Alpha  occ. eigenvalues --   -0.29415  -0.29021  -0.28836  -0.24213  -0.23694
 Alpha  occ. eigenvalues --   -0.21261  -0.20770
 Alpha virt. eigenvalues --   -0.08883  -0.08459  -0.01884  -0.01336  -0.00108
 Alpha virt. eigenvalues --    0.00267   0.02092   0.02518   0.02687   0.03673
 Alpha virt. eigenvalues --    0.04569   0.05034   0.05064   0.05464   0.06007

 Mulliken charges:
               1
     1  Mg   0.836876
     2  C   -0.002115
     3  C   -0.094228
     4  C   -0.047359
     5  C   -0.064416
     6  N   -0.256372
     7  C   -0.052845
     8  C   -0.013843
     9  C   -0.087086
    10  C    0.046565
    11  C    0.104758
    12  C    0.053672
    13  C   -0.071482
    14  H    0.035311
    15  N   -0.433743
    16  C    0.169695
    17  C   -0.177310
    18  C   -0.002533
    19  C    0.151136
    20  C    0.110416
    21  C    0.015898
    22  O   -0.247786
    23  C    0.061888
    24  N   -0.340593
    25  C    0.041366
    26  C   -0.029816
    27  C   -0.024203
    28  C    0.070583
    29  C    0.076558
    30  C    0.084502
    31  C   -0.080063
    32  N   -0.310210
    33  C    0.077091
    34  C   -0.169613
    35  C    0.008016
    36  C    0.083671
    37  C    0.127274
    38  C    0.046472
    39  O   -0.187452
    40  C   -0.005659
    41  C    0.213099
    42  O   -0.256629
    43  O   -0.304920
    44  C    0.157331
    45  H   -0.017415
    46  H   -0.016388
    47  H   -0.042332
    48  H    0.001272
    49  H   -0.004328
    50  H    0.025799
    51  H    0.016608
    52  H    0.016790
    53  H    0.010530
    54  H    0.044314
    55  H    0.018412
    56  H    0.017359
    57  H    0.005389
    58  H    0.027290
    59  H    0.039430
    60  H    0.036003
    61  H    0.038007
    62  H    0.031997
    63  H    0.016257
    64  H    0.010780
    65  H    0.023843
    66  H    0.013584
    67  H    0.005070
    68  H    0.004630
    69  H   -0.002669
    70  H    0.017630
    71  H    0.034022
    72  H    0.080628
    73  H    0.047809
    74  H    0.008073
    75  H    0.046487
    76  H    0.035376
    77  H    0.043650
    78  H    0.045699
    79  H    0.054442
    80  Mg   0.837452
    81  C   -0.015887
    82  C   -0.088829
    83  C   -0.048200
    84  C   -0.062294
    85  N   -0.254416
    86  C   -0.048793
    87  C   -0.015129
    88  C   -0.090740
    89  C    0.046013
    90  C    0.114579
    91  C    0.062712
    92  C   -0.077289
    93  H    0.034099
    94  N   -0.423295
    95  C    0.162754
    96  C   -0.176666
    97  C   -0.008349
    98  C    0.151164
    99  C    0.100403
   100  C    0.014017
   101  O   -0.252017
   102  C    0.061676
   103  N   -0.350431
   104  C    0.042066
   105  C   -0.030935
   106  C   -0.028531
   107  C    0.084434
   108  C    0.140759
   109  C    0.028196
   110  C   -0.000909
   111  N   -0.324960
   112  C    0.079891
   113  C   -0.160375
   114  C    0.004066
   115  C    0.096782
   116  C    0.130283
   117  C    0.044242
   118  O   -0.187449
   119  C    0.000164
   120  C    0.210866
   121  O   -0.251683
   122  O   -0.305406
   123  C    0.152298
   124  H   -0.021863
   125  H   -0.013904
   126  H   -0.041538
   127  H   -0.000667
   128  H   -0.005654
   129  H    0.025064
   130  H    0.014040
   131  H    0.013601
   132  H    0.013561
   133  H    0.037640
   134  H    0.020384
   135  H    0.018870
   136  H    0.007733
   137  H    0.023110
   138  H    0.038997
   139  H    0.036053
   140  H    0.035964
   141  H    0.033601
   142  H    0.009635
   143  H    0.005676
   144  H    0.028005
   145  H   -0.001117
   146  H   -0.072360
   147  H    0.006014
   148  H    0.001856
   149  H    0.010567
   150  H    0.016366
   151  H    0.030403
   152  H    0.044855
   153  H    0.006340
   154  H    0.053470
   155  H    0.037466
   156  H    0.043548
   157  H    0.048836
   158  H    0.053169
 Sum of Mulliken charges =  -0.00000

 Dipole moment (field-independent basis, Debye):
    X=             -3.5745    Y=             -1.8093    Z=             -7.8619  Tot=              8.8238
 Quadrupole moment (field-independent basis, Debye-Ang):
   XX=           -507.0485   YY=           -553.9830   ZZ=           -447.8744
   XY=            -17.6181   XZ=            -32.1034   YZ=            -21.0844

 Normal termination of Gaussian 16 at Thu Sep  9 03:25:47 2021.
