 Gaussian 16, Revision A.03,
 Gaussian 16:  ES64L-G16RevA.03 25-Dec-2016

 -----------------------------------
 #p cam-b3lyp/Def2SVP td=(nstates=5)
 -----------------------------------

 --------------------------------
 TDDFT excited states in gaussian
 --------------------------------
 Symbolic Z-matrix:
 Charge =  0 Multiplicity = 1

                         Standard orientation:
 ---------------------------------------------------------------------
 Center     Atomic      Atomic             Coordinates (Angstroms)
 Number     Number       Type             X           Y           Z
 ---------------------------------------------------------------------
      1         12           0        7.655019   -0.902145    0.181152
      2          6           0        7.991624    2.122240   -1.703525
      3          6           0        8.528429    0.898406    2.944887
      4          6           0        7.807665   -3.636274    1.780483
      5          6           0        7.926129   -2.634977   -2.830402
      6          7           0        8.169101    1.233170    0.458271
      7          6           0        8.202718    2.299819   -0.334383
      8          6           0        8.408834    3.637177    0.437863
      9          6           0        9.116788    3.065373    1.747000
     10          6           0        8.544349    1.658903    1.738064
     11          6           0       10.635095    2.978472    1.629986
     12          6           0        7.052713    4.340768    0.780827
     13          6           0        7.169949    5.797148    1.239705
     14          1           0        6.131048    6.739327    0.851980
     15          7           0        7.622885   -1.252836    2.125074
     16          6           0        7.998249   -0.399709    3.108213
     17          6           0        7.789063   -1.125484    4.379501
     18          6           0        7.441574   -2.534997    4.046906
     19          6           0        7.638325   -2.537642    2.619790
     20          6           0        7.875536   -0.471350    5.724262
     21          6           0        7.012078   -3.698178    4.883968
     22          8           0        6.985182   -4.891916    4.426976
     23          6           0        6.704314   -3.412569    6.297033
     24          7           0        8.059679   -2.866085   -0.399217
     25          6           0        8.004384   -3.871203    0.481500
     26          6           0        8.049076   -5.203253   -0.206676
     27          6           0        7.901326   -4.899700   -1.767374
     28          6           0        7.878149   -3.352468   -1.705692
     29          6           0        9.314392   -6.038374    0.033244
     30          6           0        6.757498   -5.625088   -2.519631
     31          6           0        5.419275   -5.116335   -2.032366
     32          7           0        7.735632   -0.380938   -1.924291
     33          6           0        7.871799   -1.262417   -3.006477
     34          6           0        7.987435   -0.437862   -4.223361
     35          6           0        7.926754    0.874852   -3.759739
     36          6           0        7.808751    0.870920   -2.340460
     37          6           0        8.185635   -0.925999   -5.545054
     38          6           0        7.958927    2.280224   -4.130887
     39          8           0        7.951235    2.895704   -5.197948
     40          6           0        8.124806    3.145170   -2.804170
     41          6           0        7.112749    4.257043   -2.856979
     42          8           0        5.890509    4.013130   -2.793729
     43          8           0        7.741086    5.436305   -2.734192
     44          6           0        6.790913    6.580465   -2.749120
     45          1           0        9.017458    1.305742    3.831944
     46          1           0        7.754840   -4.604982    2.281734
     47          1           0        7.928516   -3.107020   -3.814588
     48          1           0        9.065461    4.352016   -0.058393
     49          1           0        8.802138    3.596857    2.644910
     50          1           0       10.970147    3.203084    0.617459
     51          1           0       10.889280    1.952322    1.896256
     52          1           0       11.117887    3.610025    2.376196
     53          1           0        6.634676    3.894959    1.683357
     54          1           0        6.363904    4.282882   -0.062688
     55          1           0        8.156992    6.205671    1.021154
     56          1           0        7.102502    5.818999    2.327442
     57          1           0        8.309062    0.525716    5.657484
     58          1           0        8.595763   -1.042014    6.310200
     59          1           0        6.913402   -0.457588    6.236552
     60          1           0        7.584487   -2.985078    6.777757
     61          1           0        6.329306   -4.344993    6.717514
     62          1           0        5.928595   -2.647582    6.341806
     63          1           0        7.223066   -5.836861    0.113749
     64          1           0        8.799073   -5.170647   -2.323533
     65          1           0        9.114510   -7.027253    0.446607
     66          1           0        9.975788   -5.468397    0.685143
     67          1           0        9.943544   -6.177688   -0.845491
     68          1           0        6.787777   -6.694763   -2.315120
     69          1           0        6.801633   -5.492746   -3.600736
     70          1           0        5.244920   -5.710081   -1.135762
     71          1           0        4.646910   -5.301566   -2.779597
     72          1           0        5.478260   -4.071982   -1.725230
     73          1           0        7.518131   -0.350309   -6.186138
     74          1           0        7.973625   -1.993033   -5.609033
     75          1           0        9.242558   -0.701023   -5.687027
     76          1           0        9.147137    3.521939   -2.801380
     77          1           0        7.109048    7.251501   -3.547077
     78          1           0        6.767334    6.976942   -1.733908
     79          1           0        5.771015    6.355996   -3.063384
     80         12           0       -8.211221   -0.400193   -0.160452
     81          6           0       -5.739308    1.945326    0.965278
     82          6           0      -10.577718    1.862239    0.796453
     83          6           0      -10.412935   -2.614816   -0.722008
     84          6           0       -5.759448   -2.868821    0.040509
     85          7           0       -8.054455    1.609461    0.750023
     86          6           0       -7.061668    2.423435    1.075847
     87          6           0       -7.508238    3.856736    1.470550
     88          6           0       -9.011633    3.523300    1.926062
     89          6           0       -9.251175    2.273126    1.082063
     90          6           0       -9.125099    3.138951    3.391915
     91          6           0       -7.482988    4.847035    0.253712
     92          6           0       -7.607909    6.326161    0.625635
     93          1           0       -6.869396    7.307320   -0.164544
     94          7           0      -10.166593   -0.222859   -0.449643
     95          6           0      -10.967255    0.770940   -0.010793
     96          6           0      -12.322592    0.427274   -0.468061
     97          6           0      -12.283557   -0.932935   -1.070587
     98          6           0      -10.927459   -1.326682   -0.744901
     99          6           0      -13.476294    1.384126   -0.385462
    100          6           0      -13.302672   -1.749830   -1.805619
    101          8           0      -13.128318   -2.999372   -2.031594
    102          6           0      -14.551684   -1.065706   -2.170923
    103          7           0       -8.164270   -2.478209   -0.116056
    104          6           0       -9.246300   -3.201536   -0.453607
    105          6           0       -8.897705   -4.662030   -0.614281
    106          6           0       -7.301270   -4.732210   -0.550594
    107          6           0       -6.993956   -3.246348   -0.262215
    108          6           0       -9.490478   -5.606372    0.431295
    109          6           0       -6.578906   -5.418665   -1.742075
    110          6           0       -6.745570   -4.588336   -2.994336
    111          7           0       -6.084520   -0.453077    0.216886
    112          6           0       -5.257707   -1.596058    0.280730
    113          6           0       -3.910469   -1.137253    0.676808
    114          6           0       -4.053655    0.248923    0.839589
    115          6           0       -5.400167    0.624568    0.584045
    116          6           0       -2.775917   -1.970959    0.886210
    117          6           0       -3.374370    1.478354    1.179836
    118          8           0       -2.206098    1.791735    1.404918
    119          6           0       -4.464577    2.613961    1.399545
    120          6           0       -4.021362    3.835990    0.642772
    121          8           0       -3.957031    3.821554   -0.599108
    122          8           0       -3.956610    4.879419    1.489792
    123          6           0       -3.531918    6.117439    0.783574
    124          1           0      -11.400433    2.400108    1.268399
    125          1           0      -11.106960   -3.405071   -1.017475
    126          1           0       -4.917205   -3.563931    0.029614
    127          1           0       -6.957881    4.292995    2.295496
    128          1           0       -9.696962    4.315756    1.636737
    129          1           0       -8.156292    3.038492    3.858234
    130          1           0       -9.652672    2.194258    3.408332
    131          1           0       -9.765737    3.851123    3.919861
    132          1           0       -8.404421    4.721438   -0.329333
    133          1           0       -6.603187    4.697106   -0.341339
    134          1           0       -7.447831    6.496681    1.697203
    135          1           0       -8.640437    6.640754    0.455494
    136          1           0      -13.240953    2.243733    0.254129
    137          1           0      -14.284285    0.866003    0.142324
    138          1           0      -13.837830    1.693870   -1.368329
    139          1           0      -15.032858   -0.688057   -1.271866
    140          1           0      -15.115837   -1.785840   -2.766754
    141          1           0      -14.305588   -0.193198   -2.786367
    142          1           0       -9.227753   -5.034846   -1.576137
    143          1           0       -6.952981   -5.300685    0.324262
    144          1           0      -10.100199   -6.417756   -0.009130
    145          1           0      -10.079961   -5.021220    1.124578
    146          1           0       -8.764520   -6.081397    1.088957
    147          1           0       -7.032999   -6.390368   -1.951265
    148          1           0       -5.521820   -5.588279   -1.566565
    149          1           0       -7.727974   -4.895611   -3.365232
    150          1           0       -5.962344   -4.818651   -3.713746
    151          1           0       -6.803322   -3.520439   -2.753681
    152          1           0       -1.935184   -1.475806    0.418789
    153          1           0       -2.931935   -2.965643    0.473869
    154          1           0       -2.739947   -1.980555    1.978854
    155          1           0       -4.533088    2.799180    2.472196
    156          1           0       -2.651477    6.499286    1.309609
    157          1           0       -4.425718    6.768793    0.758792
    158          1           0       -3.147286    6.012724   -0.224175
 ---------------------------------------------------------------------

 SCF Done:  E(RCAM-B3LYP) =  -4069.81143798     A.U. after   19 cycles

 Excitation energies and oscillator strengths:

 Excited State   1:      Singlet-A      1.6751 eV  740.15 nm  f=0.3764  <S**2>=0.000
     309 -> 315        0.16752
     311 -> 313        0.66259
     312 -> 314        0.17799
     309 <- 315        0.10101
 This state for optimization and/or second-order correction.
 Total Energy, E(TD-HF/TD-DFT) =  -4069.74987804
 Copying the excited state density for this state as the 1-particle RhoCI density.

 Excited State   2:      Singlet-A      1.6803 eV  737.87 nm  f=0.4091  <S**2>=0.000
     310 -> 316        0.16938
     311 -> 313       -0.17788
     312 -> 314        0.66219
     310 <- 316        0.10136

 Excited State   3:      Singlet-A      2.1854 eV  567.32 nm  f=0.0411  <S**2>=0.000
     309 -> 313        0.61052
     310 -> 314       -0.20108
     311 -> 315       -0.25914

 Excited State   4:      Singlet-A      2.1921 eV  565.59 nm  f=0.1504  <S**2>=0.000
     309 -> 313        0.19992
     310 -> 314        0.60863
     312 -> 316       -0.26417

 Excited State   5:      Singlet-A      2.7236 eV  455.22 nm  f=0.0000  <S**2>=0.000
     312 -> 313        0.70677

 The electronic state is 1-A.
 Alpha  occ. eigenvalues --  -46.87589 -46.87525 -19.26257 -19.25991 -19.19052
 Alpha  occ. eigenvalues --  -19.18703 -19.18650 -19.18579 -19.17961 -19.17906
 Alpha  occ. eigenvalues --  -14.42430 -14.42182 -14.41290 -14.41193 -14.39281
 Alpha  occ. eigenvalues --  -14.39135 -14.38525 -14.38317 -10.38988 -10.38770
 Alpha  occ. eigenvalues --  -10.35328 -10.35214 -10.34139 -10.34124 -10.31667
 Alpha  occ. eigenvalues --  -10.31399 -10.31238 -10.31138 -10.30958 -10.30639
 Alpha  occ. eigenvalues --  -10.30323 -10.30303 -10.30285 -10.30248 -10.30076
 Alpha  occ. eigenvalues --  -10.29962 -10.29822 -10.29672 -10.29373 -10.29368
 Alpha  occ. eigenvalues --  -10.29327 -10.28997 -10.28660 -10.28596 -10.28470
 Alpha  occ. eigenvalues --  -10.28333 -10.28242 -10.28097 -10.28084 -10.27925
 Alpha  occ. eigenvalues --  -10.27853 -10.27602 -10.27534 -10.27466 -10.27453
 Alpha  occ. eigenvalues --  -10.27413 -10.27407 -10.27394 -10.27326 -10.27313
 Alpha  occ. eigenvalues --  -10.27288 -10.27238 -10.27231 -10.27137 -10.26971
 Alpha  occ. eigenvalues --  -10.26886 -10.26626 -10.26381 -10.26359 -10.26185
 Alpha  occ. eigenvalues --  -10.26069 -10.26001 -10.25986 -10.25984 -10.25863
 Alpha  occ. eigenvalues --  -10.25768 -10.25754 -10.25607 -10.25344 -10.25248
 Alpha  occ. eigenvalues --  -10.24795 -10.24654 -10.24620 -10.24571 -10.24535
 Alpha  occ. eigenvalues --  -10.24481  -3.16339  -3.16266  -1.91221  -1.91147
 Alpha  occ. eigenvalues --   -1.90810  -1.90735  -1.90647  -1.90577  -1.16548
 Alpha  occ. eigenvalues --   -1.16336  -1.08565  -1.08362  -1.06982  -1.06904
 Alpha  occ. eigenvalues --   -1.06840  -1.06330  -1.04427  -1.04313  -1.03593
 Alpha  occ. eigenvalues --   -1.03502  -1.02971  -1.02967  -1.02150  -1.02040
 Alpha  occ. eigenvalues --   -0.91912  -0.91706  -0.89424  -0.89283  -0.89091
 Alpha  occ. eigenvalues --   -0.88916  -0.88153  -0.88056  -0.87712  -0.87616
 Alpha  occ. eigenvalues --   -0.87616  -0.87409  -0.87054  -0.87022  -0.84935
 Alpha  occ. eigenvalues --   -0.84713  -0.83807  -0.83711  -0.82868  -0.82732
 Alpha  occ. eigenvalues --   -0.82587  -0.82388  -0.81517  -0.81317  -0.80369
 Alpha  occ. eigenvalues --   -0.80334  -0.78565  -0.78544  -0.77078  -0.76969
 Alpha  occ. eigenvalues --   -0.76830  -0.76674  -0.75770  -0.75663  -0.74736
 Alpha  occ. eigenvalues --   -0.74667  -0.72626  -0.72521  -0.71515  -0.71423
 Alpha  occ. eigenvalues --   -0.69689  -0.69687  -0.68761  -0.68611  -0.67530
 Alpha  occ. eigenvalues --   -0.67385  -0.67135  -0.66943  -0.65204  -0.65014
 Alpha  occ. eigenvalues --   -0.64698  -0.64593  -0.64581  -0.64362  -0.64134
 Alpha  occ. eigenvalues --   -0.64030  -0.62197  -0.62027  -0.60272  -0.60195
 Alpha  occ. eigenvalues --   -0.59732  -0.59537  -0.58921  -0.58732  -0.58352
 Alpha  occ. eigenvalues --   -0.58247  -0.57469  -0.57312  -0.57165  -0.57059
 Alpha  occ. eigenvalues --   -0.56130  -0.56055  -0.55808  -0.55701  -0.55380
 Alpha  occ. eigenvalues --   -0.55271  -0.55174  -0.55098  -0.54410  -0.54269
 Alpha  occ. eigenvalues --   -0.53850  -0.53621  -0.53157  -0.53071  -0.53050
 Alpha  occ. eigenvalues --   -0.52960  -0.52825  -0.52648  -0.52607  -0.52504
 Alpha  occ. eigenvalues --   -0.52329  -0.52216  -0.51796  -0.51665  -0.51593
 Alpha  occ. eigenvalues --   -0.51346  -0.51124  -0.50940  -0.50414  -0.50331
 Alpha  occ. eigenvalues --   -0.49917  -0.49806  -0.49801  -0.49669  -0.49422
 Alpha  occ. eigenvalues --   -0.49257  -0.49130  -0.49035  -0.48956  -0.48838
 Alpha  occ. eigenvalues --   -0.48483  -0.48335  -0.48306  -0.48269  -0.48227
 Alpha  occ. eigenvalues --   -0.48196  -0.47527  -0.47443  -0.47051  -0.47050
 Alpha  occ. eigenvalues --   -0.46639  -0.46547  -0.46490  -0.46284  -0.46198
 Alpha  occ. eigenvalues --   -0.46107  -0.46010  -0.45911  -0.45741  -0.45563
 Alpha  occ. eigenvalues --   -0.45143  -0.44973  -0.44441  -0.44408  -0.44318
 Alpha  occ. eigenvalues --   -0.44260  -0.44060  -0.44007  -0.43902  -0.43868
 Alpha  occ. eigenvalues --   -0.43832  -0.43762  -0.43474  -0.43316  -0.43231
 Alpha  occ. eigenvalues --   -0.43131  -0.42852  -0.42819  -0.42774  -0.42485
 Alpha  occ. eigenvalues --   -0.42452  -0.42391  -0.41895  -0.41764  -0.41593
 Alpha  occ. eigenvalues --   -0.41447  -0.41394  -0.41268  -0.40924  -0.40890
 Alpha  occ. eigenvalues --   -0.40659  -0.40635  -0.40615  -0.40577  -0.40426
 Alpha  occ. eigenvalues --   -0.40335  -0.40165  -0.39941  -0.39356  -0.39222
 Alpha  occ. eigenvalues --   -0.38286  -0.38234  -0.37589  -0.37466  -0.37198
 Alpha  occ. eigenvalues --   -0.37131  -0.37078  -0.36986  -0.36680  -0.36435
 Alpha  occ. eigenvalues --   -0.36142  -0.35925  -0.34181  -0.34023  -0.33759
 Alpha  occ. eigenvalues --   -0.33461  -0.33102  -0.32921  -0.31209  -0.31109
 Alpha  occ. eigenvalues --   -0.30902  -0.30775  -0.29864  -0.29764  -0.29255
 Alpha  occ. eigenvalues --   -0.29189  -0.29133  -0.29058  -0.23965  -0.23816
 Alpha  occ. eigenvalues --   -0.21046  -0.20868
 Alpha virt. eigenvalues --   -0.08720  -0.08514  -0.01615  -0.01492   0.00040
 Alpha virt. eigenvalues --    0.00197   0.02288   0.02459   0.03311   0.03477
 Alpha virt. eigenvalues --    0.04794   0.04985   0.05264   0.05400   0.06245

 Mulliken charges:
               1
     1  Mg   0.840485
     2  C   -0.002201
     3  C   -0.093661
     4  C   -0.046090
     5  C   -0.064249
     6  N   -0.256701
     7  C   -0.052082
     8  C   -0.014260
     9  C   -0.087138
    10  C    0.046739
    11  C    0.104953
    12  C    0.053359
    13  C   -0.071600
    14  H    0.036294
    15  N   -0.433005
    16  C    0.168876
    17  C   -0.176955
    18  C   -0.004020
    19  C    0.148959
    20  C    0.110275
    21  C    0.012393
    22  O   -0.250281
    23  C    0.062335
    24  N   -0.341179
    25  C    0.041228
    26  C   -0.028008
    27  C   -0.023908
    28  C    0.074971
    29  C    0.076363
    30  C    0.035243
    31  C   -0.004462
    32  N   -0.310516
    33  C    0.080725
    34  C   -0.169668
    35  C    0.008309
    36  C    0.083561
    37  C    0.127252
    38  C    0.046478
    39  O   -0.188667
    40  C   -0.005561
    41  C    0.212494
    42  O   -0.255340
    43  O   -0.305255
    44  C    0.157707
    45  H   -0.018032
    46  H   -0.017405
    47  H   -0.041953
    48  H    0.000469
    49  H   -0.004006
    50  H    0.025199
    51  H    0.016146
    52  H    0.016165
    53  H    0.012396
    54  H    0.045461
    55  H    0.016976
    56  H    0.017771
    57  H    0.005758
    58  H    0.026148
    59  H    0.040037
    60  H    0.036981
    61  H    0.034996
    62  H    0.032256
    63  H    0.016189
    64  H    0.009028
    65  H    0.022674
    66  H    0.012444
    67  H    0.004359
    68  H    0.005647
    69  H    0.004521
    70  H    0.008296
    71  H    0.017697
    72  H    0.030125
    73  H    0.047748
    74  H    0.008798
    75  H    0.045509
    76  H    0.034590
    77  H    0.042195
    78  H    0.046148
    79  H    0.054476
    80  Mg   0.838017
    81  C   -0.016713
    82  C   -0.087857
    83  C   -0.045566
    84  C   -0.064940
    85  N   -0.254523
    86  C   -0.049856
    87  C   -0.015064
    88  C   -0.090471
    89  C    0.045699
    90  C    0.114462
    91  C    0.062548
    92  C   -0.077834
    93  H    0.035078
    94  N   -0.423441
    95  C    0.162856
    96  C   -0.174759
    97  C   -0.007893
    98  C    0.152073
    99  C    0.099434
   100  C    0.015520
   101  O   -0.253312
   102  C    0.061217
   103  N   -0.350099
   104  C    0.037449
   105  C   -0.019773
   106  C   -0.034835
   107  C    0.088999
   108  C    0.073732
   109  C    0.034712
   110  C   -0.007667
   111  N   -0.324225
   112  C    0.078606
   113  C   -0.162705
   114  C    0.002411
   115  C    0.096429
   116  C    0.131299
   117  C    0.042821
   118  O   -0.187223
   119  C    0.000653
   120  C    0.211543
   121  O   -0.250132
   122  O   -0.306092
   123  C    0.151909
   124  H   -0.019900
   125  H   -0.015701
   126  H   -0.040311
   127  H   -0.000904
   128  H   -0.004418
   129  H    0.022210
   130  H    0.014360
   131  H    0.016015
   132  H    0.013976
   133  H    0.038069
   134  H    0.020440
   135  H    0.019457
   136  H    0.008615
   137  H    0.025923
   138  H    0.039729
   139  H    0.038122
   140  H    0.036275
   141  H    0.033932
   142  H    0.014379
   143  H    0.012333
   144  H    0.025018
   145  H    0.011502
   146  H    0.005551
   147  H    0.006096
   148  H    0.003759
   149  H    0.010818
   150  H    0.018109
   151  H    0.030307
   152  H    0.047076
   153  H    0.008643
   154  H    0.046486
   155  H    0.034428
   156  H    0.043438
   157  H    0.049090
   158  H    0.054597
 Sum of Mulliken charges =  -0.00000

 Dipole moment (field-independent basis, Debye):
    X=             -1.9375    Y=              2.1823    Z=              5.7234  Tot=              6.4245
 Quadrupole moment (field-independent basis, Debye-Ang):
   XX=           -442.2291   YY=           -472.8713   ZZ=           -515.4577
   XY=            -31.8201   XZ=             12.4402   YZ=             38.0392

 Normal termination of Gaussian 16 at Sun Sep 12 01:53:36 2021.
