 Gaussian 16, Revision A.03,
 Gaussian 16:  ES64L-G16RevA.03 25-Dec-2016

 -----------------------------------
 #p cam-b3lyp/Def2SVP td=(nstates=5)
 -----------------------------------

 --------------------------------
 TDDFT excited states in gaussian
 --------------------------------
 Symbolic Z-matrix:
 Charge =  0 Multiplicity = 1

                         Standard orientation:
 ---------------------------------------------------------------------
 Center     Atomic      Atomic             Coordinates (Angstroms)
 Number     Number       Type             X           Y           Z
 ---------------------------------------------------------------------
      1         12           0       -6.498831   -0.830248    0.058674
      2          6           0       -6.731835    2.734607    0.281674
      3          6           0       -7.365085   -0.532354   -3.228259
      4          6           0       -6.743469   -3.990119   -0.050820
      5          6           0       -6.771397   -0.917696    3.531961
      6          7           0       -6.962327    0.931730   -1.198803
      7          6           0       -6.957636    2.247244   -1.007565
      8          6           0       -7.140563    3.063306   -2.322081
      9          6           0       -7.881217    1.959591   -3.202561
     10          6           0       -7.344645    0.709852   -2.527160
     11          6           0       -9.399441    1.982803   -3.057793
     12          6           0       -5.771968    3.480117   -2.958435
     13          6           0       -5.858607    4.547014   -4.053688
     14          1           0       -4.790727    5.529691   -4.160112
     15          7           0       -6.503043   -2.062188   -1.485721
     16          6           0       -6.870429   -1.767287   -2.755897
     17          6           0       -6.697710   -3.015155   -3.530283
     18          6           0       -6.381505   -4.107441   -2.568503
     19          6           0       -6.558112   -3.426813   -1.311151
     20          6           0       -6.786486   -3.075323   -5.024354
     21          6           0       -5.993564   -5.540461   -2.753133
     22          8           0       -5.990578   -6.374567   -1.784200
     23          6           0       -5.698601   -5.968710   -4.132496
     24          7           0       -6.945056   -2.270846    1.502002
     25          6           0       -6.927755   -3.574649    1.204038
     26          6           0       -6.996582   -4.418646    2.442130
     27          6           0       -6.819165   -3.415263    3.671561
     28          6           0       -6.757538   -2.084032    2.882704
     29          6           0       -8.285974   -5.230417    2.627891
     30          6           0       -5.683649   -3.729689    4.677622
     31          6           0       -4.339932   -3.552244    4.006776
     32          7           0       -6.536465    0.629762    1.664289
     33          6           0       -6.679718    0.371790    3.035275
     34          6           0       -6.757182    1.678023    3.714850
     35          6           0       -6.669698    2.611107    2.683566
     36          6           0       -6.571863    1.930701    1.436262
     37          6           0       -6.949065    1.881555    5.109909
     38          6           0       -6.660899    4.024545    2.343019
     39          8           0       -6.622515    5.072162    2.989949
     40          6           0       -6.823435    4.160711    0.764771
     41          6           0       -5.782798    5.134522    0.283028
     42          8           0       -4.568166    4.854397    0.342738
     43          8           0       -6.382625    6.131973   -0.384686
     44          6           0       -5.403560    7.118011   -0.915076
     45          1           0       -7.856064   -0.580737   -4.202189
     46          1           0       -6.722359   -5.081743   -0.032096
     47          1           0       -6.771900   -0.865861    4.622267
     48          1           0       -7.771742    3.946770   -2.224468
     49          1           0       -7.565855    1.991916   -4.245261
     50          1           0       -9.714361    2.670638   -2.273172
     51          1           0       -9.683358    0.961079   -2.804881
     52          1           0       -9.876500    2.198332   -4.014212
     53          1           0       -5.378169    2.647471   -3.541259
     54          1           0       -5.073024    3.809459   -2.188799
     55          1           0       -6.831766    5.038816   -4.054947
     56          1           0       -5.805975    4.048092   -5.021420
     57          1           0       -7.193543   -2.153864   -5.438797
     58          1           0       -7.529179   -3.834485   -5.268871
     59          1           0       -5.831635   -3.334290   -5.482095
     60          1           0       -6.574315   -5.795168   -4.758240
     61          1           0       -5.353383   -6.999449   -4.060022
     62          1           0       -4.904396   -5.339509   -4.535354
     63          1           0       -6.191545   -5.152130    2.460644
     64          1           0       -7.715575   -3.363608    4.289990
     65          1           0       -8.117143   -6.302354    2.733493
     66          1           0       -8.941797   -5.019112    1.783771
     67          1           0       -8.906008   -4.917688    3.467638
     68          1           0       -5.743990   -4.766905    5.005477
     69          1           0       -5.709153   -3.098941    5.566305
     70          1           0       -4.193389   -4.505141    3.499485
     71          1           0       -3.562063   -3.383054    4.752098
     72          1           0       -4.376678   -2.777512    3.240665
     73          1           0       -6.258167    2.672840    5.400593
     74          1           0       -6.763365    0.967031    5.672727
     75          1           0       -7.997820    2.177572    5.128418
     76          1           0       -7.835796    4.520566    0.583795
     77          1           0       -5.693249    8.096271   -0.531251
     78          1           0       -5.384232    6.984358   -1.996819
     79          1           0       -4.385366    7.040021   -0.532271
     80         12           0        6.737675   -0.716447    0.098387
     81          6           0        6.189614    2.825332    0.284121
     82          6           0        6.170200   -0.477550   -3.256534
     83          6           0        6.768810   -3.886536   -0.032040
     84          6           0        6.133115   -0.849650    3.528030
     85          7           0        6.252886    1.006368   -1.201285
     86          6           0        6.130867    2.313960   -1.029084
     87          6           0        6.015066    3.128053   -2.345674
     88          6           0        5.450182    1.965311   -3.298462
     89          6           0        6.018674    0.751515   -2.566206
     90          6           0        3.934054    1.862354   -3.288279
     91          6           0        7.405280    3.656102   -2.846161
     92          6           0        7.332114    4.713249   -3.950172
     93          1           0        8.327497    5.781715   -3.957794
     94          7           0        6.988331   -1.935805   -1.447225
     95          6           0        6.729229   -1.669047   -2.744522
     96          6           0        7.061275   -2.897851   -3.482042
     97          6           0        7.381010   -3.965160   -2.495458
     98          6           0        7.030589   -3.294997   -1.259270
     99          6           0        7.131377   -2.953699   -4.980506
    100          6           0        7.902248   -5.362728   -2.641473
    101          8           0        7.880053   -6.194913   -1.666898
    102          6           0        8.353181   -5.757318   -3.984024
    103          7           0        6.280862   -2.189525    1.492561
    104          6           0        6.429358   -3.492447    1.195470
    105          6           0        6.307147   -4.351155    2.431621
    106          6           0        6.286251   -3.331007    3.663056
    107          6           0        6.311255   -1.996260    2.886390
    108          6           0        5.074099   -5.252139    2.496504
    109          6           0        7.341021   -3.555560    4.780968
    110          6           0        8.727306   -3.277444    4.245946
    111          7           0        6.431520    0.722400    1.680806
    112          6           0        6.169476    0.450906    3.041586
    113          6           0        5.920069    1.747580    3.704047
    114          6           0        6.032501    2.688998    2.669851
    115          6           0        6.310973    2.024089    1.445164
    116          6           0        5.587948    1.930510    5.076036
    117          6           0        5.968436    4.093129    2.333695
    118          8           0        5.851215    5.135746    2.976322
    119          6           0        5.942184    4.233084    0.750624
    120          6           0        6.942693    5.286423    0.360784
    121          8           0        8.158149    5.105117    0.551619
    122          8           0        6.323880    6.234221   -0.366611
    123          6           0        7.277423    7.295601   -0.786201
    124          1           0        5.786870   -0.551463   -4.274613
    125          1           0        6.876216   -4.973230    0.000063
    126          1           0        6.034242   -0.797877    4.614413
    127          1           0        5.313485    3.952828   -2.309552
    128          1           0        5.867933    2.036967   -4.299311
    129          1           0        3.491022    2.512877   -2.548895
    130          1           0        3.710992    0.827471   -3.064000
    131          1           0        3.537025    2.045809   -4.290791
    132          1           0        7.919115    2.852505   -3.389261
    133          1           0        7.988617    4.029035   -2.026849
    134          1           0        6.322414    5.127874   -4.057574
    135          1           0        7.525666    4.227133   -4.909467
    136          1           0        6.684894   -2.062008   -5.437598
    137          1           0        6.482999   -3.776545   -5.300504
    138          1           0        8.143138   -3.137454   -5.348289
    139          1           0        7.531481   -5.647530   -4.687749
    140          1           0        8.773220   -6.758388   -3.868733
    141          1           0        9.138640   -5.064886   -4.306846
    142          1           0        7.163120   -5.006987    2.533082
    143          1           0        5.328139   -3.362871    4.202354
    144          1           0        5.322162   -6.323135    2.620983
    145          1           0        4.491574   -5.098699    1.597810
    146          1           0        4.360452   -5.002524    3.279831
    147          1           0        7.336025   -4.600080    5.102064
    148          1           0        7.172008   -2.946725    5.662873
    149          1           0        8.994996   -4.217232    3.753781
    150          1           0        9.413011   -3.048538    5.059246
    151          1           0        8.702896   -2.497461    3.476093
    152          1           0        6.173767    2.768773    5.429084
    153          1           0        5.787665    1.032295    5.656633
    154          1           0        4.517319    2.135298    4.991912
    155          1           0        4.926412    4.506771    0.462747
    156          1           0        6.869154    8.248602   -0.435779
    157          1           0        7.400704    7.171616   -1.878530
    158          1           0        8.256698    7.301587   -0.322051
 ---------------------------------------------------------------------

 SCF Done:  E(RCAM-B3LYP) =  -4069.81154396     A.U. after   19 cycles

 Excitation energies and oscillator strengths:

 Excited State   1:      Singlet-A      1.6654 eV  744.49 nm  f=0.0096  <S**2>=0.000
     309 -> 315       -0.11065
     310 -> 316        0.13082
     311 -> 313       -0.44186
     312 -> 314        0.52556
 This state for optimization and/or second-order correction.
 Total Energy, E(TD-HF/TD-DFT) =  -4069.75034297
 Copying the excited state density for this state as the 1-particle RhoCI density.

 Excited State   2:      Singlet-A      1.6895 eV  733.86 nm  f=0.7341  <S**2>=0.000
     309 -> 315        0.13630
     310 -> 316        0.11390
     311 -> 313        0.52435
     312 -> 314        0.44094

 Excited State   3:      Singlet-A      2.1847 eV  567.52 nm  f=0.0383  <S**2>=0.000
     309 -> 313       -0.20736
     310 -> 314        0.60873
     312 -> 316       -0.25761

 Excited State   4:      Singlet-A      2.1934 eV  565.27 nm  f=0.1503  <S**2>=0.000
     309 -> 313        0.60630
     310 -> 314        0.20557
     311 -> 315       -0.26427

 Excited State   5:      Singlet-A      2.6523 eV  467.45 nm  f=0.0000  <S**2>=0.000
     312 -> 313        0.70710

 The electronic state is 1-A.
 Alpha  occ. eigenvalues --  -46.87834 -46.87545 -19.26296 -19.26222 -19.19036
 Alpha  occ. eigenvalues --  -19.19032 -19.18854 -19.18622 -19.18185 -19.17906
 Alpha  occ. eigenvalues --  -14.42489 -14.42384 -14.41486 -14.41245 -14.39441
 Alpha  occ. eigenvalues --  -14.39239 -14.38620 -14.38479 -10.39093 -10.38963
 Alpha  occ. eigenvalues --  -10.35489 -10.35302 -10.34405 -10.34082 -10.31686
 Alpha  occ. eigenvalues --  -10.31642 -10.31441 -10.31188 -10.30951 -10.30914
 Alpha  occ. eigenvalues --  -10.30604 -10.30540 -10.30279 -10.30246 -10.30239
 Alpha  occ. eigenvalues --  -10.30038 -10.29952 -10.29775 -10.29664 -10.29328
 Alpha  occ. eigenvalues --  -10.29293 -10.29285 -10.28799 -10.28615 -10.28609
 Alpha  occ. eigenvalues --  -10.28578 -10.28400 -10.28287 -10.28164 -10.28030
 Alpha  occ. eigenvalues --  -10.27881 -10.27824 -10.27767 -10.27621 -10.27560
 Alpha  occ. eigenvalues --  -10.27538 -10.27536 -10.27482 -10.27439 -10.27418
 Alpha  occ. eigenvalues --  -10.27393 -10.27365 -10.27355 -10.27273 -10.27179
 Alpha  occ. eigenvalues --  -10.26903 -10.26772 -10.26601 -10.26461 -10.26347
 Alpha  occ. eigenvalues --  -10.26275 -10.26221 -10.26055 -10.26050 -10.25899
 Alpha  occ. eigenvalues --  -10.25854 -10.25822 -10.25700 -10.25463 -10.25293
 Alpha  occ. eigenvalues --  -10.24862 -10.24822 -10.24747 -10.24731 -10.24648
 Alpha  occ. eigenvalues --  -10.24575  -3.16577  -3.16295  -1.91459  -1.91177
 Alpha  occ. eigenvalues --   -1.91045  -1.90887  -1.90766  -1.90603  -1.16644
 Alpha  occ. eigenvalues --   -1.16516  -1.08640  -1.08509  -1.07256  -1.06876
 Alpha  occ. eigenvalues --   -1.06819  -1.06654  -1.04620  -1.04380  -1.03797
 Alpha  occ. eigenvalues --   -1.03549  -1.03269  -1.02924  -1.02446  -1.01995
 Alpha  occ. eigenvalues --   -0.92003  -0.91862  -0.89555  -0.89386  -0.89236
 Alpha  occ. eigenvalues --   -0.89042  -0.88322  -0.88115  -0.87896  -0.87714
 Alpha  occ. eigenvalues --   -0.87664  -0.87573  -0.87316  -0.87024  -0.85028
 Alpha  occ. eigenvalues --   -0.84893  -0.83970  -0.83772  -0.83010  -0.82843
 Alpha  occ. eigenvalues --   -0.82690  -0.82548  -0.81611  -0.81477  -0.80629
 Alpha  occ. eigenvalues --   -0.80329  -0.78835  -0.78528  -0.77258  -0.77038
 Alpha  occ. eigenvalues --   -0.76973  -0.76789  -0.75957  -0.75723  -0.74930
 Alpha  occ. eigenvalues --   -0.74694  -0.72808  -0.72582  -0.71707  -0.71466
 Alpha  occ. eigenvalues --   -0.69944  -0.69660  -0.68916  -0.68721  -0.67676
 Alpha  occ. eigenvalues --   -0.67489  -0.67272  -0.67104  -0.65329  -0.65160
 Alpha  occ. eigenvalues --   -0.64886  -0.64656  -0.64656  -0.64541  -0.64304
 Alpha  occ. eigenvalues --   -0.64097  -0.62320  -0.62159  -0.60481  -0.60238
 Alpha  occ. eigenvalues --   -0.59847  -0.59684  -0.59021  -0.58877  -0.58536
 Alpha  occ. eigenvalues --   -0.58309  -0.57607  -0.57421  -0.57340  -0.57125
 Alpha  occ. eigenvalues --   -0.56343  -0.56090  -0.56004  -0.55772  -0.55557
 Alpha  occ. eigenvalues --   -0.55367  -0.55345  -0.55135  -0.54549  -0.54376
 Alpha  occ. eigenvalues --   -0.53942  -0.53805  -0.53335  -0.53263  -0.53119
 Alpha  occ. eigenvalues --   -0.53034  -0.52945  -0.52802  -0.52792  -0.52577
 Alpha  occ. eigenvalues --   -0.52474  -0.52305  -0.51934  -0.51744  -0.51662
 Alpha  occ. eigenvalues --   -0.51556  -0.51226  -0.51082  -0.50622  -0.50391
 Alpha  occ. eigenvalues --   -0.50070  -0.49961  -0.49877  -0.49765  -0.49556
 Alpha  occ. eigenvalues --   -0.49385  -0.49246  -0.49135  -0.49087  -0.48984
 Alpha  occ. eigenvalues --   -0.48621  -0.48497  -0.48475  -0.48441  -0.48267
 Alpha  occ. eigenvalues --   -0.48236  -0.47734  -0.47490  -0.47333  -0.47016
 Alpha  occ. eigenvalues --   -0.46834  -0.46601  -0.46600  -0.46450  -0.46393
 Alpha  occ. eigenvalues --   -0.46190  -0.46161  -0.45966  -0.45845  -0.45696
 Alpha  occ. eigenvalues --   -0.45235  -0.45101  -0.44604  -0.44551  -0.44398
 Alpha  occ. eigenvalues --   -0.44368  -0.44181  -0.44132  -0.44050  -0.44014
 Alpha  occ. eigenvalues --   -0.43975  -0.43831  -0.43519  -0.43437  -0.43427
 Alpha  occ. eigenvalues --   -0.43273  -0.43059  -0.42813  -0.42777  -0.42725
 Alpha  occ. eigenvalues --   -0.42681  -0.42452  -0.42047  -0.41861  -0.41735
 Alpha  occ. eigenvalues --   -0.41581  -0.41545  -0.41355  -0.41177  -0.40915
 Alpha  occ. eigenvalues --   -0.40876  -0.40869  -0.40629  -0.40607  -0.40599
 Alpha  occ. eigenvalues --   -0.40387  -0.40294  -0.40133  -0.39480  -0.39329
 Alpha  occ. eigenvalues --   -0.38508  -0.38247  -0.37802  -0.37556  -0.37357
 Alpha  occ. eigenvalues --   -0.37308  -0.37159  -0.37090  -0.36733  -0.36651
 Alpha  occ. eigenvalues --   -0.36222  -0.36106  -0.34321  -0.34137  -0.33786
 Alpha  occ. eigenvalues --   -0.33738  -0.33220  -0.33060  -0.31384  -0.31180
 Alpha  occ. eigenvalues --   -0.31071  -0.30858  -0.30043  -0.29809  -0.29485
 Alpha  occ. eigenvalues --   -0.29351  -0.29217  -0.29084  -0.24116  -0.23918
 Alpha  occ. eigenvalues --   -0.21164  -0.21002
 Alpha virt. eigenvalues --   -0.08809  -0.08676  -0.01787  -0.01572  -0.00096
 Alpha virt. eigenvalues --    0.00078   0.02175   0.02338   0.03076   0.03330
 Alpha virt. eigenvalues --    0.04673   0.04840   0.05083   0.05293   0.06120

 Mulliken charges:
               1
     1  Mg   0.838579
     2  C   -0.002994
     3  C   -0.094419
     4  C   -0.045834
     5  C   -0.063921
     6  N   -0.256738
     7  C   -0.052532
     8  C   -0.013954
     9  C   -0.086946
    10  C    0.046187
    11  C    0.104811
    12  C    0.053591
    13  C   -0.071585
    14  H    0.035681
    15  N   -0.433121
    16  C    0.168279
    17  C   -0.177394
    18  C   -0.004068
    19  C    0.148631
    20  C    0.110240
    21  C    0.012235
    22  O   -0.249503
    23  C    0.062553
    24  N   -0.341150
    25  C    0.041194
    26  C   -0.028194
    27  C   -0.024000
    28  C    0.074878
    29  C    0.076133
    30  C    0.035105
    31  C   -0.004478
    32  N   -0.310545
    33  C    0.080496
    34  C   -0.169462
    35  C    0.008572
    36  C    0.083034
    37  C    0.127227
    38  C    0.046403
    39  O   -0.187790
    40  C   -0.005434
    41  C    0.213018
    42  O   -0.256974
    43  O   -0.304856
    44  C    0.157510
    45  H   -0.017726
    46  H   -0.016794
    47  H   -0.041331
    48  H    0.001110
    49  H   -0.004349
    50  H    0.025601
    51  H    0.016525
    52  H    0.016597
    53  H    0.010671
    54  H    0.044151
    55  H    0.018171
    56  H    0.017555
    57  H    0.005693
    58  H    0.026877
    59  H    0.038986
    60  H    0.037331
    61  H    0.035751
    62  H    0.031067
    63  H    0.016542
    64  H    0.009588
    65  H    0.023265
    66  H    0.012571
    67  H    0.004826
    68  H    0.006400
    69  H    0.004839
    70  H    0.008768
    71  H    0.017881
    72  H    0.029022
    73  H    0.048084
    74  H    0.009138
    75  H    0.046123
    76  H    0.035215
    77  H    0.043311
    78  H    0.045976
    79  H    0.054105
    80  Mg   0.837961
    81  C   -0.016658
    82  C   -0.087899
    83  C   -0.045557
    84  C   -0.064746
    85  N   -0.254516
    86  C   -0.049471
    87  C   -0.015114
    88  C   -0.090625
    89  C    0.045833
    90  C    0.114342
    91  C    0.062580
    92  C   -0.077654
    93  H    0.034586
    94  N   -0.423433
    95  C    0.162804
    96  C   -0.174955
    97  C   -0.008018
    98  C    0.152011
    99  C    0.099539
   100  C    0.015387
   101  O   -0.253367
   102  C    0.061292
   103  N   -0.349978
   104  C    0.037461
   105  C   -0.019780
   106  C   -0.034851
   107  C    0.089074
   108  C    0.073704
   109  C    0.034751
   110  C   -0.007618
   111  N   -0.324280
   112  C    0.078703
   113  C   -0.162752
   114  C    0.002818
   115  C    0.096209
   116  C    0.131313
   117  C    0.043062
   118  O   -0.187113
   119  C    0.000636
   120  C    0.211159
   121  O   -0.251363
   122  O   -0.305302
   123  C    0.152143
   124  H   -0.020276
   125  H   -0.015780
   126  H   -0.040418
   127  H   -0.000188
   128  H   -0.004919
   129  H    0.023966
   130  H    0.014392
   131  H    0.015315
   132  H    0.013703
   133  H    0.037689
   134  H    0.020785
   135  H    0.019193
   136  H    0.008344
   137  H    0.025591
   138  H    0.039433
   139  H    0.037965
   140  H    0.036122
   141  H    0.033740
   142  H    0.014154
   143  H    0.012485
   144  H    0.024882
   145  H    0.011907
   146  H    0.005618
   147  H    0.006042
   148  H    0.003627
   149  H    0.010808
   150  H    0.017761
   151  H    0.030187
   152  H    0.045954
   153  H    0.008148
   154  H    0.048393
   155  H    0.036530
   156  H    0.044044
   157  H    0.049124
   158  H    0.053362
 Sum of Mulliken charges =  -0.00000

 Dipole moment (field-independent basis, Debye):
    X=             -3.5590    Y=             -2.4179    Z=             -7.7297  Tot=              8.8466
 Quadrupole moment (field-independent basis, Debye-Ang):
   XX=           -511.3476   YY=           -551.7517   ZZ=           -447.9041
   XY=             -1.1577   XZ=             -1.7927   YZ=            -48.9258

 Normal termination of Gaussian 16 at Sat Sep 11 15:00:05 2021.
