 Gaussian 16, Revision A.03,
 Gaussian 16:  ES64L-G16RevA.03 25-Dec-2016

 -----------------------------------
 #p cam-b3lyp/Def2SVP td=(nstates=5)
 -----------------------------------

 --------------------------------
 TDDFT excited states in gaussian
 --------------------------------
 Symbolic Z-matrix:
 Charge =  0 Multiplicity = 1

                         Standard orientation:
 ---------------------------------------------------------------------
 Center     Atomic      Atomic             Coordinates (Angstroms)
 Number     Number       Type             X           Y           Z
 ---------------------------------------------------------------------
      1         12           0        6.878006    0.314472    0.275841
      2          6           0        6.949447   -2.962343   -1.162768
      3          6           0        7.806700    1.514497   -2.780387
      4          6           0        7.263243    3.156219    1.629609
      5          6           0        7.073176   -1.214206    3.401655
      6          7           0        7.293071   -0.695224   -1.650005
      7          6           0        7.226335   -1.949908   -2.084154
      8          6           0        7.403920   -2.080248   -3.626506
      9          6           0        8.212492   -0.733917   -3.901464
     10          6           0        7.715570    0.091831   -2.727951
     11          6           0        9.724461   -0.896186   -3.782627
     12          6           0        6.033579   -2.090392   -4.383998
     13          6           0        6.098907   -2.539065   -5.846796
     14          1           0        4.991794   -3.309210   -6.393172
     15          7           0        6.972119    2.115545   -0.530463
     16          6           0        7.355722    2.418137   -1.794019
     17          6           0        7.255887    3.889013   -1.909073
     18          6           0        6.965496    4.432803   -0.553322
     19          6           0        7.082803    3.243556    0.251233
     20          6           0        7.381984    4.623134   -3.208655
     21          6           0        6.645075    5.808186   -0.059577
     22          8           0        6.656047    6.104088    1.184165
     23          6           0        6.401349    6.835324   -1.088474
     24          7           0        7.353142    0.908678    2.219755
     25          6           0        7.399888    2.203002    2.553705
     26          6           0        7.476749    2.380691    4.041138
     27          6           0        7.226986    0.935432    4.672486
     28          6           0        7.125521    0.119071    3.360416
     29          6           0        8.795771    2.951829    4.579649
     30          6           0        6.083204    0.809371    5.709930
     31          6           0        4.748995    1.026193    5.031719
     32          7           0        6.814276   -1.719111    1.031833
     33          6           0        6.936718   -2.126019    2.368286
     34          6           0        6.941069   -3.600479    2.372260
     35          6           0        6.836856   -3.951123    1.027628
     36          6           0        6.797980   -2.770587    0.231943
     37          6           0        7.091314   -4.430317    3.518222
     38          6           0        6.774114   -5.048627    0.076100
     39          8           0        6.674842   -6.272909    0.169752
     40          6           0        6.967244   -4.453762   -1.388367
     41          6           0        5.896470   -5.045281   -2.264072
     42          8           0        4.694207   -4.763883   -2.083117
     43          8           0        6.467437   -5.653842   -3.314877
     44          6           0        5.458756   -6.236954   -4.239375
     45          1           0        8.321876    1.979696   -3.623077
     46          1           0        7.289519    4.117247    2.147463
     47          1           0        7.046017   -1.760206    4.346430
     48          1           0        7.993368   -2.940183   -3.945074
     49          1           0        7.920387   -0.268806   -4.842776
     50          1           0        9.990605   -1.881904   -3.401251
     51          1           0       10.046873   -0.119696   -3.088649
     52          1           0       10.213770   -0.672489   -4.730948
     53          1           0        5.690294   -1.064814   -4.519662
     54          1           0        5.303152   -2.700882   -3.851921
     55          1           0        7.049364   -3.023108   -6.073162
     56          1           0        6.090721   -1.650000   -6.477428
     57          1           0        7.757847    3.975415   -3.999688
     58          1           0        8.162697    5.372017   -3.076859
     59          1           0        6.450306    5.110166   -3.496942
     60          1           0        7.282961    6.924867   -1.723526
     61          1           0        6.099999    7.733754   -0.551017
     62          1           0        5.589955    6.501174   -1.735724
     63          1           0        6.704386    3.062922    4.393902
     64          1           0        8.105629    0.561554    5.198676
     65          1           0        8.671622    3.862875    5.165555
     66          1           0        9.461194    3.118912    3.733135
     67          1           0        9.381793    2.258522    5.182410
     68          1           0        6.181248    1.576327    6.477466
     69          1           0        6.060363   -0.159064    6.209793
     70          1           0        4.656167    2.111569    5.018515
     71          1           0        3.947317    0.572866    5.615686
     72          1           0        4.769617    0.688290    3.995436
     73          1           0        6.359851   -5.231441    3.412718
     74          1           0        6.932777   -3.867769    4.438009
     75          1           0        8.125387   -4.753460    3.399358
     76          1           0        7.966818   -4.740263   -1.713777
     77          1           0        5.696318   -7.295314   -4.347414
     78          1           0        5.470496   -5.621352   -5.138987
     79          1           0        4.436315   -6.292809   -3.864097
     80         12           0       -6.349258    0.856810    0.261095
     81          6           0       -8.788565   -1.773843    0.168706
     82          6           0       -8.177907    2.434046   -2.147832
     83          6           0       -3.993782    2.965792   -0.006034
     84          6           0       -4.171757   -1.404243    1.774972
     85          7           0       -8.222974    0.301866   -0.775001
     86          6           0       -9.093588   -0.692114   -0.683508
     87          6           0      -10.400499   -0.479036   -1.493536
     88          6           0       -9.839691    0.554400   -2.587313
     89          6           0       -8.695198    1.165795   -1.781712
     90          6           0       -9.251403   -0.126041   -3.812175
     91          6           0      -11.541718    0.162832   -0.628868
     92          6           0      -12.933466    0.115051   -1.263294
     93          1           0      -14.089654   -0.074099   -0.391555
     94          7           0       -6.339778    2.678680   -0.525839
     95          6           0       -7.167779    3.158339   -1.477482
     96          6           0       -6.736434    4.542736   -1.725548
     97          6           0       -5.482941    4.787521   -0.961638
     98          6           0       -5.206181    3.451204   -0.474043
     99          6           0       -7.535689    5.508464   -2.551364
    100          6           0       -4.661445    6.017864   -0.721651
    101          8           0       -3.481696    5.953458   -0.224777
    102          6           0       -5.241564    7.291590   -1.171713
    103          7           0       -4.303154    0.736960    0.609540
    104          6           0       -3.513169    1.815567    0.466522
    105          6           0       -2.136858    1.562821    1.034228
    106          6           0       -2.241210    0.167600    1.808844
    107          6           0       -3.700099   -0.204532    1.464492
    108          6           0       -0.999206    1.495256    0.015615
    109          6           0       -1.807977    0.156632    3.300440
    110          6           0       -2.774610    0.976160    4.124672
    111          7           0       -6.488932   -1.153721    1.039756
    112          6           0       -5.449512   -1.922627    1.607629
    113          6           0       -6.001491   -3.264984    1.883016
    114          6           0       -7.327765   -3.190356    1.431464
    115          6           0       -7.578384   -1.899368    0.892888
    116          6           0       -5.282022   -4.363750    2.431834
    117          6           0       -8.569665   -3.913480    1.278228
    118          8           0       -8.981069   -5.017913    1.631379
    119          6           0       -9.533686   -3.068684    0.338346
    120          6           0      -10.888830   -3.017172    0.989087
    121          8           0      -11.048849   -2.422884    2.069736
    122          8           0      -11.809468   -3.486871    0.127590
    123          6           0      -13.171446   -3.445597    0.723522
    124          1           0       -8.550141    2.902761   -3.059232
    125          1           0       -3.176489    3.690016    0.025501
    126          1           0       -3.585003   -2.135001    2.335671
    127          1           0      -10.781803   -1.367446   -1.982528
    128          1           0      -10.580497    1.311139   -2.832074
    129          1           0       -9.200292   -1.197992   -3.691977
    130          1           0       -8.259149    0.289074   -3.931173
    131          1           0       -9.808458    0.163022   -4.707986
    132          1           0      -11.391405    1.249299   -0.587243
    133          1           0      -11.574408   -0.279559    0.347776
    134          1           0      -12.975563   -0.577088   -2.113068
    135          1           0      -13.148299    1.092221   -1.702623
    136          1           0       -8.322713    4.996895   -3.119077
    137          1           0       -6.862637    5.906642   -3.318383
    138          1           0       -7.931467    6.338920   -1.962834
    139          1           0       -5.437633    7.241605   -2.240131
    140          1           0       -4.548470    8.064182   -0.833191
    141          1           0       -6.211191    7.427586   -0.679826
    142          1           0       -1.861523    2.336883    1.740012
    143          1           0       -1.603765   -0.602146    1.349494
    144          1           0       -0.190207    2.222900    0.215932
    145          1           0       -1.414830    1.650801   -0.971103
    146          1           0       -0.525987    0.519905   -0.084151
    147          1           0       -0.827835    0.626390    3.413579
    148          1           0       -1.737931   -0.840315    3.722550
    149          1           0       -2.409998    1.998675    3.988209
    150          1           0       -2.733868    0.678899    5.170622
    151          1           0       -3.786865    0.928604    3.706665
    152          1           0       -5.928092   -4.822027    3.168774
    153          1           0       -4.340535   -4.042298    2.872325
    154          1           0       -5.129836   -4.966098    1.532236
    155          1           0       -9.564033   -3.566253   -0.631749
    156          1           0      -13.576979   -4.460342    0.664307
    157          1           0      -13.714042   -2.653441    0.174118
    158          1           0      -13.247642   -3.249077    1.786549
 ---------------------------------------------------------------------

 SCF Done:  E(RCAM-B3LYP) =  -4069.81187713     A.U. after   19 cycles

 Excitation energies and oscillator strengths:

 Excited State   1:      Singlet-A      1.6646 eV  744.82 nm  f=0.0095  <S**2>=0.000
     309 -> 315       -0.10801
     310 -> 316        0.13289
     311 -> 313       -0.43169
     312 -> 314        0.53398
 This state for optimization and/or second-order correction.
 Total Energy, E(TD-HF/TD-DFT) =  -4069.75070363
 Copying the excited state density for this state as the 1-particle RhoCI density.

 Excited State   2:      Singlet-A      1.6898 eV  733.72 nm  f=0.7315  <S**2>=0.000
     309 -> 315        0.13865
     310 -> 316        0.11142
     311 -> 313        0.53277
     312 -> 314        0.43076

 Excited State   3:      Singlet-A      2.1851 eV  567.41 nm  f=0.0968  <S**2>=0.000
     310 -> 314        0.63726
     312 -> 316       -0.27022

 Excited State   4:      Singlet-A      2.1940 eV  565.11 nm  f=0.1036  <S**2>=0.000
     309 -> 313        0.63511
     311 -> 315       -0.27659

 Excited State   5:      Singlet-A      2.6449 eV  468.76 nm  f=0.0000  <S**2>=0.000
     312 -> 313        0.70684

 The electronic state is 1-A.
 Alpha  occ. eigenvalues --  -46.87840 -46.87538 -19.26324 -19.26261 -19.19069
 Alpha  occ. eigenvalues --  -19.19068 -19.18804 -19.18620 -19.18203 -19.17936
 Alpha  occ. eigenvalues --  -14.42489 -14.42380 -14.41491 -14.41227 -14.39438
 Alpha  occ. eigenvalues --  -14.39233 -14.38631 -14.38475 -10.39127 -10.38996
 Alpha  occ. eigenvalues --  -10.35435 -10.35300 -10.34425 -10.34114 -10.31712
 Alpha  occ. eigenvalues --  -10.31678 -10.31447 -10.31190 -10.30940 -10.30918
 Alpha  occ. eigenvalues --  -10.30611 -10.30545 -10.30271 -10.30241 -10.30236
 Alpha  occ. eigenvalues --  -10.30004 -10.29964 -10.29752 -10.29662 -10.29316
 Alpha  occ. eigenvalues --  -10.29284 -10.29280 -10.28782 -10.28627 -10.28585
 Alpha  occ. eigenvalues --  -10.28571 -10.28399 -10.28291 -10.28149 -10.28046
 Alpha  occ. eigenvalues --  -10.27879 -10.27824 -10.27763 -10.27609 -10.27553
 Alpha  occ. eigenvalues --  -10.27548 -10.27489 -10.27483 -10.27440 -10.27385
 Alpha  occ. eigenvalues --  -10.27366 -10.27351 -10.27331 -10.27207 -10.27195
 Alpha  occ. eigenvalues --  -10.26942 -10.26743 -10.26611 -10.26359 -10.26350
 Alpha  occ. eigenvalues --  -10.26261 -10.26257 -10.26061 -10.25958 -10.25938
 Alpha  occ. eigenvalues --  -10.25883 -10.25790 -10.25674 -10.25460 -10.25212
 Alpha  occ. eigenvalues --  -10.24867 -10.24823 -10.24802 -10.24750 -10.24583
 Alpha  occ. eigenvalues --  -10.24563  -3.16584  -3.16288  -1.91466  -1.91170
 Alpha  occ. eigenvalues --   -1.91052  -1.90894  -1.90759  -1.90596  -1.16674
 Alpha  occ. eigenvalues --   -1.16554  -1.08663  -1.08544  -1.07203  -1.06874
 Alpha  occ. eigenvalues --   -1.06852  -1.06690  -1.04618  -1.04380  -1.03799
 Alpha  occ. eigenvalues --   -1.03540  -1.03272  -1.02909  -1.02450  -1.01985
 Alpha  occ. eigenvalues --   -0.92010  -0.91869  -0.89568  -0.89351  -0.89222
 Alpha  occ. eigenvalues --   -0.89052  -0.88332  -0.88068  -0.87907  -0.87709
 Alpha  occ. eigenvalues --   -0.87656  -0.87563  -0.87284  -0.87020  -0.85014
 Alpha  occ. eigenvalues --   -0.84896  -0.83988  -0.83727  -0.82971  -0.82829
 Alpha  occ. eigenvalues --   -0.82673  -0.82550  -0.81622  -0.81487  -0.80627
 Alpha  occ. eigenvalues --   -0.80332  -0.78819  -0.78521  -0.77257  -0.77029
 Alpha  occ. eigenvalues --   -0.76972  -0.76781  -0.75957  -0.75733  -0.74937
 Alpha  occ. eigenvalues --   -0.74659  -0.72812  -0.72570  -0.71706  -0.71456
 Alpha  occ. eigenvalues --   -0.69969  -0.69601  -0.68902  -0.68722  -0.67670
 Alpha  occ. eigenvalues --   -0.67484  -0.67243  -0.67107  -0.65323  -0.65168
 Alpha  occ. eigenvalues --   -0.64893  -0.64659  -0.64647  -0.64540  -0.64315
 Alpha  occ. eigenvalues --   -0.64059  -0.62337  -0.62167  -0.60463  -0.60224
 Alpha  occ. eigenvalues --   -0.59838  -0.59690  -0.59025  -0.58867  -0.58540
 Alpha  occ. eigenvalues --   -0.58303  -0.57623  -0.57443  -0.57343  -0.57108
 Alpha  occ. eigenvalues --   -0.56339  -0.56084  -0.56014  -0.55787  -0.55537
 Alpha  occ. eigenvalues --   -0.55385  -0.55350  -0.55109  -0.54570  -0.54357
 Alpha  occ. eigenvalues --   -0.53928  -0.53815  -0.53327  -0.53241  -0.53109
 Alpha  occ. eigenvalues --   -0.53035  -0.52953  -0.52794  -0.52763  -0.52581
 Alpha  occ. eigenvalues --   -0.52502  -0.52247  -0.51954  -0.51733  -0.51639
 Alpha  occ. eigenvalues --   -0.51564  -0.51237  -0.51079  -0.50567  -0.50383
 Alpha  occ. eigenvalues --   -0.50075  -0.49931  -0.49876  -0.49728  -0.49534
 Alpha  occ. eigenvalues --   -0.49388  -0.49242  -0.49126  -0.49097  -0.48993
 Alpha  occ. eigenvalues --   -0.48628  -0.48496  -0.48452  -0.48449  -0.48241
 Alpha  occ. eigenvalues --   -0.48229  -0.47723  -0.47484  -0.47321  -0.47001
 Alpha  occ. eigenvalues --   -0.46839  -0.46586  -0.46581  -0.46452  -0.46396
 Alpha  occ. eigenvalues --   -0.46202  -0.46143  -0.45947  -0.45860  -0.45697
 Alpha  occ. eigenvalues --   -0.45241  -0.45068  -0.44614  -0.44528  -0.44408
 Alpha  occ. eigenvalues --   -0.44358  -0.44184  -0.44119  -0.44039  -0.44021
 Alpha  occ. eigenvalues --   -0.43953  -0.43838  -0.43532  -0.43441  -0.43421
 Alpha  occ. eigenvalues --   -0.43270  -0.43063  -0.42826  -0.42778  -0.42741
 Alpha  occ. eigenvalues --   -0.42708  -0.42416  -0.42061  -0.41836  -0.41740
 Alpha  occ. eigenvalues --   -0.41567  -0.41550  -0.41349  -0.41174  -0.40909
 Alpha  occ. eigenvalues --   -0.40872  -0.40822  -0.40629  -0.40616  -0.40590
 Alpha  occ. eigenvalues --   -0.40348  -0.40263  -0.40141  -0.39509  -0.39268
 Alpha  occ. eigenvalues --   -0.38513  -0.38206  -0.37783  -0.37557  -0.37363
 Alpha  occ. eigenvalues --   -0.37299  -0.37128  -0.37090  -0.36757  -0.36665
 Alpha  occ. eigenvalues --   -0.36235  -0.36087  -0.34326  -0.34130  -0.33818
 Alpha  occ. eigenvalues --   -0.33764  -0.33225  -0.33051  -0.31337  -0.31177
 Alpha  occ. eigenvalues --   -0.31069  -0.30852  -0.30064  -0.29840  -0.29475
 Alpha  occ. eigenvalues --   -0.29358  -0.29214  -0.29087  -0.24120  -0.23912
 Alpha  occ. eigenvalues --   -0.21164  -0.20993
 Alpha virt. eigenvalues --   -0.08806  -0.08672  -0.01785  -0.01559  -0.00073
 Alpha virt. eigenvalues --    0.00074   0.02165   0.02332   0.03013   0.03341
 Alpha virt. eigenvalues --    0.04680   0.04842   0.05054   0.05262   0.06143

 Mulliken charges:
               1
     1  Mg   0.837650
     2  C   -0.003119
     3  C   -0.093958
     4  C   -0.045888
     5  C   -0.064190
     6  N   -0.256810
     7  C   -0.052641
     8  C   -0.013937
     9  C   -0.087025
    10  C    0.046323
    11  C    0.104768
    12  C    0.053419
    13  C   -0.071849
    14  H    0.036108
    15  N   -0.433310
    16  C    0.168496
    17  C   -0.176862
    18  C   -0.003657
    19  C    0.148656
    20  C    0.110124
    21  C    0.012770
    22  O   -0.249243
    23  C    0.062232
    24  N   -0.341049
    25  C    0.041142
    26  C   -0.028307
    27  C   -0.023910
    28  C    0.074449
    29  C    0.076088
    30  C    0.035216
    31  C   -0.004675
    32  N   -0.310339
    33  C    0.079855
    34  C   -0.170162
    35  C    0.008345
    36  C    0.082418
    37  C    0.127400
    38  C    0.045828
    39  O   -0.188409
    40  C   -0.005215
    41  C    0.213050
    42  O   -0.257705
    43  O   -0.304676
    44  C    0.157642
    45  H   -0.017388
    46  H   -0.016504
    47  H   -0.041613
    48  H    0.001021
    49  H   -0.003912
    50  H    0.025548
    51  H    0.016513
    52  H    0.016795
    53  H    0.011215
    54  H    0.043781
    55  H    0.017990
    56  H    0.018063
    57  H    0.005823
    58  H    0.027012
    59  H    0.040228
    60  H    0.037062
    61  H    0.036435
    62  H    0.032341
    63  H    0.016686
    64  H    0.009677
    65  H    0.023517
    66  H    0.012687
    67  H    0.004855
    68  H    0.006811
    69  H    0.004762
    70  H    0.009258
    71  H    0.017053
    72  H    0.028221
    73  H    0.047312
    74  H    0.008934
    75  H    0.046215
    76  H    0.035320
    77  H    0.043175
    78  H    0.046464
    79  H    0.053582
    80  Mg   0.837765
    81  C   -0.017011
    82  C   -0.088119
    83  C   -0.045662
    84  C   -0.064086
    85  N   -0.254576
    86  C   -0.049800
    87  C   -0.015089
    88  C   -0.090482
    89  C    0.045742
    90  C    0.114465
    91  C    0.062602
    92  C   -0.077753
    93  H    0.034658
    94  N   -0.423400
    95  C    0.162831
    96  C   -0.175051
    97  C   -0.008079
    98  C    0.152042
    99  C    0.099562
   100  C    0.015227
   101  O   -0.253299
   102  C    0.061263
   103  N   -0.350075
   104  C    0.037563
   105  C   -0.020002
   106  C   -0.035401
   107  C    0.088799
   108  C    0.072873
   109  C    0.034605
   110  C   -0.007677
   111  N   -0.324206
   112  C    0.078381
   113  C   -0.162705
   114  C    0.002217
   115  C    0.096333
   116  C    0.131579
   117  C    0.042524
   118  O   -0.187838
   119  C    0.000860
   120  C    0.211222
   121  O   -0.251097
   122  O   -0.305637
   123  C    0.152100
   124  H   -0.020168
   125  H   -0.015695
   126  H   -0.039153
   127  H   -0.000767
   128  H   -0.004626
   129  H    0.022492
   130  H    0.014405
   131  H    0.015860
   132  H    0.013859
   133  H    0.037660
   134  H    0.020696
   135  H    0.019421
   136  H    0.008507
   137  H    0.025515
   138  H    0.039461
   139  H    0.037802
   140  H    0.036072
   141  H    0.033878
   142  H    0.014347
   143  H    0.015044
   144  H    0.024707
   145  H    0.010923
   146  H    0.008110
   147  H    0.006583
   148  H    0.004330
   149  H    0.010829
   150  H    0.017396
   151  H    0.029767
   152  H    0.045758
   153  H    0.009339
   154  H    0.047870
   155  H    0.034982
   156  H    0.043812
   157  H    0.049339
   158  H    0.053499
 Sum of Mulliken charges =  -0.00000

 Dipole moment (field-independent basis, Debye):
    X=              1.6168    Y=              5.3449    Z=             -6.5009  Tot=              8.5699
 Quadrupole moment (field-independent basis, Debye-Ang):
   XX=           -457.3441   YY=           -556.2695   ZZ=           -465.0548
   XY=            -24.2145   XZ=             23.3251   YZ=             -8.6872

 Normal termination of Gaussian 16 at Sat Sep 11 17:02:37 2021.
