 Gaussian 16, Revision A.03,
 Gaussian 16:  ES64L-G16RevA.03 25-Dec-2016

 -----------------------------------
 #p cam-b3lyp/Def2SVP td=(nstates=5)
 -----------------------------------

 --------------------------------
 TDDFT excited states in gaussian
 --------------------------------
 Symbolic Z-matrix:
 Charge =  0 Multiplicity = 1

                         Standard orientation:
 ---------------------------------------------------------------------
 Center     Atomic      Atomic             Coordinates (Angstroms)
 Number     Number       Type             X           Y           Z
 ---------------------------------------------------------------------
      1         12           0        3.403825    1.204475    0.474135
      2          6           0        4.355995   -1.855584   -1.120111
      3          6           0        4.250273    2.802047   -2.419712
      4          6           0        3.003284    3.954033    2.002574
      5          6           0        3.718539   -0.457155    3.521364
      6          7           0        4.189761    0.458435   -1.456247
      7          6           0        4.454397   -0.743348   -1.959095
      8          6           0        4.773522   -0.718483   -3.483862
      9          6           0        5.259331    0.794415   -3.614727
     10          6           0        4.494296    1.396844   -2.449512
     11          6           0        6.753424    0.977993   -3.368787
     12          6           0        3.505531   -0.990947   -4.361183
     13          6           0        3.785150   -1.306593   -5.833438
     14          1           0        2.935872   -2.270716   -6.516477
     15          7           0        3.130090    3.031433   -0.225968
     16          6           0        3.525446    3.504055   -1.432454
     17          6           0        3.089754    4.916368   -1.479630
     18          6           0        2.577697    5.279931   -0.129181
     19          6           0        2.911765    4.095618    0.619937
     20          6           0        3.136374    5.750744   -2.722769
     21          6           0        1.904986    6.505066    0.404331
     22          8           0        1.751905    6.705783    1.657668
     23          6           0        1.503681    7.518905   -0.587702
     24          7           0        3.577102    1.751869    2.481116
     25          6           0        3.291285    2.994658    2.884561
     26          6           0        3.211601    3.078481    4.380075
     27          6           0        3.263645    1.573293    4.910597
     28          6           0        3.457227    0.851550    3.554174
     29          6           0        4.313793    3.899061    5.064059
     30          6           0        2.107199    1.112392    5.832889
     31          6           0        0.814587    1.062835    5.049438
     32          7           0        3.765742   -0.837461    1.114882
     33          6           0        3.879771   -1.299529    2.434035
     34          6           0        4.232186   -2.729450    2.361948
     35          6           0        4.315486   -2.997622    0.997034
     36          6           0        4.058788   -1.804264    0.263349
     37          6           0        4.487474   -3.581832    3.472221
     38          6           0        4.585848   -4.008980   -0.011884
     39          8           0        4.771987   -5.226525    0.008859
     40          6           0        4.742752   -3.282438   -1.420197
     41          6           0        3.911287   -4.041295   -2.418250
     42          8           0        2.666457   -4.059125   -2.331956
     43          8           0        4.687467   -4.424647   -3.443496
     44          6           0        3.917845   -5.157505   -4.484051
     45          1           0        4.702923    3.432767   -3.187333
     46          1           0        2.762550    4.855549    2.569807
     47          1           0        3.750049   -1.060759    4.430277
     48          1           0        5.571812   -1.393823   -3.792200
     49          1           0        4.937395    1.245482   -4.553140
     50          1           0        7.215476    0.055823   -3.016605
     51          1           0        6.829906    1.756320   -2.609281
     52          1           0        7.246062    1.375962   -4.256315
     53          1           0        2.940804   -0.065502   -4.473864
     54          1           0        2.902117   -1.790190   -3.929410
     55          1           0        4.837367   -1.540349   -5.998077
     56          1           0        3.614629   -0.400751   -6.415308
     57          1           0        3.713219    5.265721   -3.509247
     58          1           0        3.705739    6.648426   -2.482560
     59          1           0        2.140446    6.028539   -3.068150
     60          1           0        2.384446    7.854996   -1.135282
     61          1           0        0.958879    8.282545   -0.033720
     62          1           0        0.845431    7.053395   -1.321838
     63          1           0        2.275538    3.536669    4.696740
     64          1           0        4.163516    1.376019    5.493682
     65          1           0        3.934019    4.712441    5.682840
     66          1           0        4.982744    4.275531    4.290712
     67          1           0        4.999917    3.318730    5.680393
     68          1           0        1.963034    1.824342    6.644856
     69          1           0        2.276282    0.131716    6.277789
     70          1           0        0.469121    2.095441    5.084208
     71          1           0        0.101092    0.395901    5.534551
     72          1           0        0.992560    0.813835    4.003106
     73          1           0        3.976185   -4.520698    3.259891
     74          1           0        4.131583   -3.138416    4.401913
     75          1           0        5.574557   -3.647827    3.430373
     76          1           0        5.803327   -3.306086   -1.668681
     77          1           0        4.406277   -6.121771   -4.624974
     78          1           0        3.851542   -4.493160   -5.345826
     79          1           0        2.912277   -5.474890   -4.205774
     80         12           0       -4.348209   -0.313479   -0.241890
     81          6           0       -1.431751   -2.170838    0.719089
     82          6           0       -2.398884    2.485155   -0.193026
     83          6           0       -6.982757    1.408026   -0.645652
     84          6           0       -6.260303   -3.001429    0.882616
     85          7           0       -2.206117   -0.010170    0.218212
     86          6           0       -1.182561   -0.798282    0.510702
     87          6           0        0.197899   -0.088442    0.505104
     88          6           0       -0.302562    1.412827    0.778200
     89          6           0       -1.713273    1.308799    0.202210
     90          6           0       -0.413608    1.750809    2.255630
     91          6           0        0.926009   -0.208265   -0.879634
     92          6           0        2.403189    0.191151   -0.866169
     93          1           0        3.330000   -0.540893   -1.725018
     94          7           0       -4.577653    1.555215   -0.869516
     95          6           0       -3.675662    2.556081   -0.792320
     96          6           0       -4.334279    3.736840   -1.372126
     97          6           0       -5.755863    3.393186   -1.647295
     98          6           0       -5.834269    2.083403   -1.032141
     99          6           0       -3.598402    5.007082   -1.685781
    100          6           0       -6.865089    4.127892   -2.337242
    101          8           0       -8.083978    3.740564   -2.252768
    102          6           0       -6.494981    5.366616   -3.037296
    103          7           0       -6.337860   -0.640888    0.264507
    104          6           0       -7.291896    0.244324   -0.073327
    105          6           0       -8.671201   -0.329197    0.147960
    106          6           0       -8.444795   -1.877547    0.478025
    107          6           0       -6.900738   -1.913113    0.478189
    108          6           0       -9.487917    0.315458    1.267693
    109          6           0       -9.207687   -2.903938   -0.403562
    110          6           0       -8.674703   -2.866473   -1.817747
    111          7           0       -3.951508   -2.314291    0.470458
    112          6           0       -4.896856   -3.264879    0.914055
    113          6           0       -4.140191   -4.433426    1.408397
    114          6           0       -2.795959   -4.069417    1.238048
    115          6           0       -2.719936   -2.758004    0.695897
    116          6           0       -4.704750   -5.611798    1.973055
    117          6           0       -1.423871   -4.492176    1.403458
    118          8           0       -0.871916   -5.540040    1.736725
    119          6           0       -0.477996   -3.232314    1.192630
    120          6           0        0.635613   -3.637431    0.266198
    121          8           0        0.395727   -3.940397   -0.915874
    122          8           0        1.816388   -3.391911    0.862735
    123          6           0        2.951832   -3.767100   -0.021473
    124          1           0       -1.934695    3.450096    0.012629
    125          1           0       -7.924843    1.915054   -0.866711
    126          1           0       -6.784774   -3.918804    1.158393
    127          1           0        0.873991   -0.403710    1.290779
    128          1           0        0.286240    2.133720    0.216961
    129          1           0       -0.250357    0.885217    2.880314
    130          1           0       -1.415805    2.134459    2.395110
    131          1           0        0.261752    2.573985    2.505815
    132          1           0        0.530561    0.557312   -1.559532
    133          1           0        0.822959   -1.198101   -1.279895
    134          1           0        2.800873    0.265225    0.153284
    135          1           0        2.492044    1.205422   -1.262873
    136          1           0       -2.604613    5.021383   -1.221470
    137          1           0       -4.140538    5.820917   -1.192204
    138          1           0       -3.551009    5.212832   -2.757269
    139          1           0       -6.043522    6.059420   -2.331126
    140          1           0       -7.403813    5.699613   -3.542275
    141          1           0       -5.726655    5.131282   -3.782231
    142          1           0       -9.273274   -0.245361   -0.748458
    143          1           0       -8.764992   -2.127309    1.500244
    144          1           0      -10.463213    0.709805    0.925105
    145          1           0       -8.894574    1.102941    1.713039
    146          1           0       -9.692667   -0.329830    2.120263
    147          1           0      -10.266095   -2.638756   -0.463660
    148          1           0       -9.151194   -3.920780   -0.029611
    149          1           0       -9.215796   -2.026318   -2.263212
    150          1           0       -8.896201   -3.797612   -2.335395
    151          1           0       -7.607814   -2.614963   -1.829697
    152          1           0       -4.167465   -6.449055    1.547828
    153          1           0       -5.771523   -5.678383    1.769748
    154          1           0       -4.498866   -5.438287    3.032663
    155          1           0       -0.106283   -2.933919    2.173627
    156          1           0        3.576554   -4.467997    0.540788
    157          1           0        3.418115   -2.812616   -0.330171
    158          1           0        2.726086   -4.348848   -0.907498
 ---------------------------------------------------------------------

 SCF Done:  E(RCAM-B3LYP) =  -4068.99729279     A.U. after   20 cycles

 Excitation energies and oscillator strengths:

 Excited State   1:      Singlet-A      1.0326 eV 1200.72 nm  f=0.0270  <S**2>=0.000
     310 -> 313        0.12822
     310 -> 314       -0.17074
     311 -> 313       -0.12612
     311 -> 314        0.15295
     312 -> 313       -0.35233
     312 -> 314        0.49216
     312 -> 315       -0.12651
 This state for optimization and/or second-order correction.
 Total Energy, E(TD-HF/TD-DFT) =  -4068.95934608
 Copying the excited state density for this state as the 1-particle RhoCI density.

 Excited State   2:      Singlet-A      1.5936 eV  778.00 nm  f=0.0050  <S**2>=0.000
     310 -> 313       -0.21856
     310 -> 314        0.33094
     310 -> 315       -0.16437
     311 -> 313       -0.32186
     311 -> 315        0.12367
     312 -> 314        0.21713
     312 -> 315        0.36567

 Excited State   3:      Singlet-A      1.6703 eV  742.30 nm  f=0.3906  <S**2>=0.000
     309 -> 316        0.15038
     310 -> 313       -0.11834
     310 -> 314        0.11354
     311 -> 313        0.42366
     311 -> 314        0.33264
     312 -> 313       -0.29941
     312 -> 315        0.21615

 Excited State   4:      Singlet-A      2.0821 eV  595.48 nm  f=0.0218  <S**2>=0.000
     310 -> 313       -0.10380
     311 -> 313        0.26110
     311 -> 314        0.17370
     312 -> 313        0.48788
     312 -> 314        0.37258

 Excited State   5:      Singlet-A      2.1662 eV  572.36 nm  f=0.1135  <S**2>=0.000
     308 -> 314        0.13017
     309 -> 313       -0.12094
     310 -> 313       -0.13814
     310 -> 314        0.18681
     310 -> 315       -0.11972
     311 -> 313       -0.20566
     311 -> 314        0.37960
     311 -> 315       -0.14842
     312 -> 314       -0.12461
     312 -> 315       -0.35412

 The electronic state is 1-A.
 Alpha  occ. eigenvalues --  -46.87039 -46.86554 -19.28811 -19.26313 -19.21926
 Alpha  occ. eigenvalues --  -19.19079 -19.18282 -19.18182 -19.17500 -19.15427
 Alpha  occ. eigenvalues --  -14.46179 -14.41706 -14.41007 -14.40779 -14.39145
 Alpha  occ. eigenvalues --  -14.39060 -14.38759 -14.38019 -10.42274 -10.38442
 Alpha  occ. eigenvalues --  -10.38432 -10.35726 -10.34971 -10.33670 -10.33158
 Alpha  occ. eigenvalues --  -10.31159 -10.30889 -10.30867 -10.30700 -10.30653
 Alpha  occ. eigenvalues --  -10.30550 -10.30508 -10.30348 -10.30331 -10.30287
 Alpha  occ. eigenvalues --  -10.30273 -10.30200 -10.30120 -10.29829 -10.29738
 Alpha  occ. eigenvalues --  -10.29722 -10.29623 -10.29509 -10.29343 -10.29174
 Alpha  occ. eigenvalues --  -10.28902 -10.28848 -10.28706 -10.28441 -10.28001
 Alpha  occ. eigenvalues --  -10.27818 -10.27788 -10.27721 -10.27603 -10.27467
 Alpha  occ. eigenvalues --  -10.27391 -10.27348 -10.27278 -10.27098 -10.27069
 Alpha  occ. eigenvalues --  -10.26953 -10.26948 -10.26939 -10.26930 -10.26834
 Alpha  occ. eigenvalues --  -10.26788 -10.26519 -10.26508 -10.26257 -10.26166
 Alpha  occ. eigenvalues --  -10.26101 -10.25806 -10.25789 -10.25566 -10.25424
 Alpha  occ. eigenvalues --  -10.25388 -10.25338 -10.25019 -10.24656 -10.24596
 Alpha  occ. eigenvalues --  -10.24407 -10.24337 -10.24321 -10.24296 -10.24120
 Alpha  occ. eigenvalues --  -10.21411  -3.17479  -3.15791  -1.93063  -1.91670
 Alpha  occ. eigenvalues --   -1.91420  -1.90675  -1.90259  -1.90100  -1.19763
 Alpha  occ. eigenvalues --   -1.17257  -1.14348  -1.11100  -1.10983  -1.08125
 Alpha  occ. eigenvalues --   -1.07491  -1.06860  -1.06543  -1.05620  -1.04044
 Alpha  occ. eigenvalues --   -1.03761  -1.03008  -1.03003  -1.02476  -1.01523
 Alpha  occ. eigenvalues --   -0.99415  -0.92670  -0.91378  -0.90685  -0.89894
 Alpha  occ. eigenvalues --   -0.88992  -0.88826  -0.88516  -0.88103  -0.87753
 Alpha  occ. eigenvalues --   -0.87722  -0.87261  -0.86973  -0.86724  -0.86624
 Alpha  occ. eigenvalues --   -0.85915  -0.84572  -0.84030  -0.83768  -0.83362
 Alpha  occ. eigenvalues --   -0.83287  -0.82598  -0.82499  -0.82027  -0.81062
 Alpha  occ. eigenvalues --   -0.80396  -0.79413  -0.78961  -0.78430  -0.78200
 Alpha  occ. eigenvalues --   -0.77973  -0.76863  -0.76595  -0.76003  -0.75729
 Alpha  occ. eigenvalues --   -0.74621  -0.74265  -0.72854  -0.72184  -0.71743
 Alpha  occ. eigenvalues --   -0.70837  -0.70480  -0.69990  -0.69495  -0.69263
 Alpha  occ. eigenvalues --   -0.68779  -0.67758  -0.67587  -0.67564  -0.67110
 Alpha  occ. eigenvalues --   -0.66692  -0.65702  -0.64923  -0.64784  -0.64422
 Alpha  occ. eigenvalues --   -0.64105  -0.63719  -0.63508  -0.62456  -0.61204
 Alpha  occ. eigenvalues --   -0.60904  -0.60437  -0.59847  -0.59566  -0.59274
 Alpha  occ. eigenvalues --   -0.58991  -0.58668  -0.58143  -0.57956  -0.57799
 Alpha  occ. eigenvalues --   -0.57388  -0.57152  -0.56847  -0.56787  -0.56667
 Alpha  occ. eigenvalues --   -0.56267  -0.56081  -0.55621  -0.55108  -0.54861
 Alpha  occ. eigenvalues --   -0.54616  -0.54491  -0.54251  -0.53846  -0.53620
 Alpha  occ. eigenvalues --   -0.53213  -0.53133  -0.53071  -0.52949  -0.52686
 Alpha  occ. eigenvalues --   -0.52633  -0.52397  -0.52321  -0.52023  -0.51985
 Alpha  occ. eigenvalues --   -0.51676  -0.51416  -0.51234  -0.51059  -0.50903
 Alpha  occ. eigenvalues --   -0.50709  -0.50402  -0.50102  -0.50077  -0.49931
 Alpha  occ. eigenvalues --   -0.49857  -0.49639  -0.49544  -0.49300  -0.49235
 Alpha  occ. eigenvalues --   -0.48940  -0.48778  -0.48648  -0.48570  -0.48423
 Alpha  occ. eigenvalues --   -0.48295  -0.48069  -0.47967  -0.47787  -0.47588
 Alpha  occ. eigenvalues --   -0.47532  -0.47389  -0.47056  -0.47046  -0.46437
 Alpha  occ. eigenvalues --   -0.46366  -0.46265  -0.46126  -0.45758  -0.45671
 Alpha  occ. eigenvalues --   -0.45534  -0.45241  -0.45104  -0.44997  -0.44890
 Alpha  occ. eigenvalues --   -0.44803  -0.44630  -0.44512  -0.44475  -0.44423
 Alpha  occ. eigenvalues --   -0.44063  -0.43994  -0.43782  -0.43656  -0.43456
 Alpha  occ. eigenvalues --   -0.43306  -0.43117  -0.42902  -0.42666  -0.42490
 Alpha  occ. eigenvalues --   -0.42205  -0.42036  -0.41960  -0.41803  -0.41595
 Alpha  occ. eigenvalues --   -0.41476  -0.41304  -0.41168  -0.41002  -0.40911
 Alpha  occ. eigenvalues --   -0.40731  -0.40502  -0.40275  -0.40120  -0.40048
 Alpha  occ. eigenvalues --   -0.39728  -0.39455  -0.39274  -0.39027  -0.38917
 Alpha  occ. eigenvalues --   -0.38327  -0.38074  -0.37743  -0.37603  -0.37385
 Alpha  occ. eigenvalues --   -0.36979  -0.36789  -0.36565  -0.35816  -0.35508
 Alpha  occ. eigenvalues --   -0.35103  -0.33941  -0.33726  -0.33498  -0.32941
 Alpha  occ. eigenvalues --   -0.32724  -0.32395  -0.31720  -0.31490  -0.30933
 Alpha  occ. eigenvalues --   -0.30831  -0.30277  -0.29644  -0.29368  -0.28798
 Alpha  occ. eigenvalues --   -0.28669  -0.26653  -0.25574  -0.23422  -0.22606
 Alpha  occ. eigenvalues --   -0.20529  -0.20165
 Alpha virt. eigenvalues --   -0.08286  -0.08062  -0.04387  -0.01107  -0.00454
 Alpha virt. eigenvalues --    0.00536   0.00792   0.02344   0.02762   0.03515
 Alpha virt. eigenvalues --    0.03744   0.04884   0.05404   0.05695   0.05865

 Mulliken charges:
               1
     1  Mg   0.600693
     2  C   -0.139399
     3  C   -0.053480
     4  C   -0.064588
     5  C   -0.090987
     6  N   -0.250966
     7  C    0.097043
     8  C   -0.010482
     9  C   -0.053000
    10  C    0.019038
    11  C    0.109183
    12  C    0.046112
    13  C   -0.063073
    14  H    0.038871
    15  N   -0.422634
    16  C    0.156040
    17  C   -0.168886
    18  C   -0.014125
    19  C    0.151528
    20  C    0.110811
    21  C    0.008410
    22  O   -0.248831
    23  C    0.062818
    24  N   -0.320079
    25  C    0.043523
    26  C   -0.025706
    27  C   -0.027280
    28  C    0.097959
    29  C    0.078218
    30  C    0.056826
    31  C   -0.042620
    32  N   -0.289854
    33  C    0.110671
    34  C   -0.192358
    35  C   -0.172600
    36  C    0.191698
    37  C    0.132956
    38  C    0.030232
    39  O   -0.253155
    40  C    0.039226
    41  C    0.267192
    42  O   -0.217826
    43  O   -0.292495
    44  C    0.150127
    45  H   -0.011181
    46  H   -0.021737
    47  H   -0.043257
    48  H   -0.010076
    49  H   -0.012308
    50  H    0.022353
    51  H    0.017909
    52  H    0.013815
    53  H    0.012289
    54  H    0.049060
    55  H    0.018333
    56  H    0.020367
    57  H    0.004835
    58  H    0.028285
    59  H    0.039820
    60  H    0.037911
    61  H    0.035904
    62  H    0.028215
    63  H    0.015090
    64  H    0.012001
    65  H    0.023230
    66  H    0.013379
    67  H    0.004926
    68  H    0.004921
    69  H    0.003952
    70  H    0.015463
    71  H    0.019941
    72  H    0.041695
    73  H    0.038287
    74  H    0.005136
    75  H    0.038208
    76  H    0.042598
    77  H    0.053213
    78  H    0.054519
    79  H    0.067169
    80  Mg   0.835197
    81  C   -0.015928
    82  C   -0.091663
    83  C   -0.046986
    84  C   -0.066992
    85  N   -0.258443
    86  C   -0.024793
    87  C   -0.062260
    88  C   -0.123506
    89  C    0.059663
    90  C    0.098933
    91  C    0.236434
    92  C   -0.296274
    93  H    0.101924
    94  N   -0.423454
    95  C    0.163003
    96  C   -0.175052
    97  C   -0.009273
    98  C    0.152162
    99  C    0.099407
   100  C    0.014466
   101  O   -0.254598
   102  C    0.061795
   103  N   -0.350351
   104  C    0.037174
   105  C   -0.019418
   106  C   -0.034548
   107  C    0.089085
   108  C    0.074173
   109  C    0.035159
   110  C   -0.007365
   111  N   -0.323591
   112  C    0.078453
   113  C   -0.164692
   114  C    0.002855
   115  C    0.093959
   116  C    0.131717
   117  C    0.040724
   118  O   -0.187366
   119  C    0.005008
   120  C    0.242363
   121  O   -0.237027
   122  O   -0.296331
   123  C    0.332361
   124  H   -0.015349
   125  H   -0.017354
   126  H   -0.042333
   127  H    0.014164
   128  H    0.039461
   129  H    0.036692
   130  H    0.004138
   131  H    0.030188
   132  H   -0.013521
   133  H    0.011718
   134  H   -0.066093
   135  H    0.138289
   136  H    0.008391
   137  H    0.025720
   138  H    0.035545
   139  H    0.037884
   140  H    0.034783
   141  H    0.032179
   142  H    0.013129
   143  H    0.011360
   144  H    0.023814
   145  H    0.011657
   146  H    0.004604
   147  H    0.005049
   148  H    0.002905
   149  H    0.010260
   150  H    0.016561
   151  H    0.030756
   152  H    0.045335
   153  H    0.007417
   154  H    0.045616
   155  H    0.032522
   156  H    0.041796
   157  H   -0.047454
   158  H    0.065051
 Sum of Mulliken charges =  -0.00000

 Dipole moment (field-independent basis, Debye):
    X=              3.9382    Y=              5.2355    Z=             -3.8195  Tot=              7.5835
 Quadrupole moment (field-independent basis, Debye-Ang):
   XX=           -502.3839   YY=           -542.2486   ZZ=           -471.3624
   XY=             32.5443   XZ=            -30.9576   YZ=             -6.5309

 Normal termination of Gaussian 16 at Thu Sep  9 02:01:53 2021.
