 Gaussian 16, Revision A.03,
 Gaussian 16:  ES64L-G16RevA.03 25-Dec-2016

 -----------------------------------
 #p cam-b3lyp/Def2SVP td=(nstates=5)
 -----------------------------------

 --------------------------------
 TDDFT excited states in gaussian
 --------------------------------
 Symbolic Z-matrix:
 Charge =  0 Multiplicity = 1

                         Standard orientation:
 ---------------------------------------------------------------------
 Center     Atomic      Atomic             Coordinates (Angstroms)
 Number     Number       Type             X           Y           Z
 ---------------------------------------------------------------------
      1         12           0       -4.014824    0.500932   -0.034574
      2          6           0       -3.095611    3.959438    0.042899
      3          6           0       -4.679755    0.905559   -3.356803
      4          6           0       -5.258446   -2.416258   -0.029745
      5          6           0       -4.364149    0.668373    3.428892
      6          7           0       -3.865469    2.257534   -1.373487
      7          6           0       -3.442376    3.509921   -1.233163
      8          6           0       -3.329831    4.278978   -2.583444
      9          6           0       -4.369343    3.430013   -3.444068
     10          6           0       -4.274545    2.107468   -2.703925
     11          6           0       -5.802199    3.944266   -3.349374
     12          6           0       -1.888528    4.205905   -3.190928
     13          6           0       -1.608303    5.191836   -4.328807
     14          1           0       -0.279819    5.775295   -4.438599
     15          7           0       -4.386039   -0.736035   -1.529552
     16          6           0       -4.616205   -0.399102   -2.821367
     17          6           0       -4.838991   -1.671578   -3.540987
     18          6           0       -4.907551   -2.761209   -2.528023
     19          6           0       -4.879249   -2.001616   -1.304260
     20          6           0       -4.915195   -1.770258   -5.033704
     21          6           0       -4.996669   -4.250039   -2.644537
     22          8           0       -5.279113   -4.994852   -1.644510
     23          6           0       -4.829691   -4.814373   -3.996087
     24          7           0       -4.925886   -0.651908    1.448181
     25          6           0       -5.322456   -1.905254    1.201524
     26          6           0       -5.680971   -2.623829    2.468432
     27          6           0       -5.213354   -1.673322    3.663264
     28          6           0       -4.713479   -0.470274    2.825965
     29          6           0       -7.165816   -2.970996    2.643709
     30          6           0       -4.257274   -2.286759    4.716842
     31          6           0       -2.915711   -2.580015    4.083354
     32          7           0       -3.611163    1.969985    1.511385
     33          6           0       -3.854525    1.836020    2.885977
     34          6           0       -3.521087    3.128818    3.511725
     35          6           0       -3.120078    3.935439    2.448522
     36          6           0       -3.223084    3.201718    1.232244
     37          6           0       -3.662848    3.448268    4.890960
     38          6           0       -2.652002    5.254219    2.054085
     39          8           0       -2.291254    6.263703    2.660959
     40          6           0       -2.733521    5.360970    0.467331
     41          6           0       -1.426855    5.927133   -0.017841
     42          8           0       -0.367641    5.276436    0.091813
     43          8           0       -1.662648    7.031519   -0.742600
     44          6           0       -0.409478    7.626659   -1.278817
     45          1           0       -5.142500    0.971060   -4.343474
     46          1           0       -5.589083   -3.455165    0.031810
     47          1           0       -4.367820    0.768764    4.515796
     48          1           0       -3.645807    5.321444   -2.540454
     49          1           0       -4.041379    3.310815   -4.476518
     50          1           0       -5.893963    4.732719   -2.602485
     51          1           0       -6.403508    3.080040   -3.066472
     52          1           0       -6.167395    4.255886   -4.328303
     53          1           0       -1.772208    3.264663   -3.728136
     54          1           0       -1.134983    4.330192   -2.412436
     55          1           0       -2.371994    5.968376   -4.380469
     56          1           0       -1.700961    4.657436   -5.274339
     57          1           0       -4.997435   -0.787541   -5.496358
     58          1           0       -5.857641   -2.262658   -5.272549
     59          1           0       -4.085779   -2.342151   -5.450047
     60          1           0       -5.591878   -4.399484   -4.656002
     61          1           0       -4.834857   -5.896782   -3.872742
     62          1           0       -3.868397   -4.491819   -4.397113
     63          1           0       -5.154347   -3.574509    2.541239
     64          1           0       -6.056874   -1.308761    4.249986
     65          1           0       -7.351832   -4.034433    2.796039
     66          1           0       -7.703689   -2.600938    1.771332
     67          1           0       -7.667874   -2.437362    3.450300
     68          1           0       -4.653202   -3.233623    5.082406
     69          1           0       -4.095187   -1.639994    5.579207
     70          1           0       -3.073488   -3.552443    3.618249
     71          1           0       -2.138375   -2.633664    4.846297
     72          1           0       -2.687976   -1.871073    3.287097
     73          1           0       -2.759981    3.989797    5.173000
     74          1           0       -3.790692    2.549863    5.494389
     75          1           0       -4.561308    4.064634    4.864164
     76          1           0       -3.573406    6.016745    0.240012
     77          1           0       -0.376869    8.663067   -0.942622
     78          1           0       -0.414392    7.443222   -2.353401
     79          1           0        0.522706    7.245230   -0.860627
     80         12           0        3.530928   -1.975077    0.241080
     81          6           0        5.061862    1.268518    0.361046
     82          6           0        3.490153   -1.665559   -3.155563
     83          6           0        1.780242   -4.618553    0.120558
     84          6           0        2.662249   -1.535740    3.587426
     85          7           0        4.216803   -0.360297   -1.105890
     86          6           0        4.839008    0.798549   -0.950022
     87          6           0        5.316979    1.454979   -2.272973
     88          6           0        4.279910    0.752901   -3.278182
     89          6           0        3.998961   -0.523246   -2.487488
     90          6           0        2.975779    1.518346   -3.428773
     91          6           0        6.799873    1.081092   -2.624066
     92          6           0        7.431510    1.927405   -3.731566
     93          1           0        8.852167    2.251384   -3.635480
     94          7           0        3.183083   -3.217432   -1.266947
     95          6           0        3.233068   -2.931495   -2.584907
     96          6           0        2.876745   -4.177692   -3.280749
     97          6           0        2.452059   -5.177821   -2.263833
     98          6           0        2.435086   -4.352079   -1.073053
     99          6           0        3.032618   -4.355064   -4.763200
    100          6           0        2.104731   -6.633127   -2.351119
    101          8           0        1.532834   -7.248148   -1.382856
    102          6           0        2.368856   -7.294162   -3.637500
    103          7           0        2.204350   -2.850007    1.581618
    104          6           0        1.617339   -4.027493    1.304373
    105          6           0        0.925699   -4.592310    2.522169
    106          6           0        1.377125   -3.662526    3.742536
    107          6           0        2.217569   -2.621905    2.970438
    108          6           0       -0.600675   -4.641227    2.457477
    109          6           0        2.019958   -4.370616    4.966484
    110          6           0        3.361677   -4.950837    4.581098
    111          7           0        3.953759   -0.518088    1.779399
    112          6           0        3.467603   -0.511911    3.105178
    113          6           0        3.936555    0.739399    3.735037
    114          6           0        4.649328    1.390395    2.716875
    115          6           0        4.609165    0.610031    1.529893
    116          6           0        3.648110    1.160840    5.063685
    117          6           0        5.417592    2.565280    2.373220
    118          8           0        5.853572    3.531464    2.997851
    119          6           0        5.612053    2.598434    0.796048
    120          6           0        7.061499    2.883586    0.512651
    121          8           0        7.940988    2.064259    0.831742
    122          8           0        7.150714    3.968566   -0.278071
    123          6           0        8.568695    4.284851   -0.596046
    124          1           0        3.221811   -1.574213   -4.208434
    125          1           0        1.252897   -5.574242    0.165881
    126          1           0        2.516137   -1.370903    4.657084
    127          1           0        5.202719    2.531609   -2.313038
    128          1           0        4.750103    0.516494   -4.229177
    129          1           0        2.914702    2.349287   -2.741790
    130          1           0        2.189594    0.802482   -3.227522
    131          1           0        2.839979    1.830882   -4.468100
    132          1           0        6.815792    0.096097   -3.108082
    133          1           0        7.418287    1.112380   -1.748161
    134          1           0        6.845347    2.829216   -3.946285
    135          1           0        7.399446    1.358594   -4.664000
    136          1           0        3.208324   -3.396441   -5.266753
    137          1           0        2.063825   -4.690808   -5.148679
    138          1           0        3.791812   -5.096512   -5.021184
    139          1           0        1.816851   -6.786085   -4.424653
    140          1           0        2.139371   -8.349266   -3.476421
    141          1           0        3.432368   -7.182397   -3.876400
    142          1           0        1.250108   -5.607512    2.715106
    143          1           0        0.525550   -3.118693    4.177161
    144          1           0       -1.011646   -5.657129    2.609559
    145          1           0       -0.914742   -4.243132    1.501749
    146          1           0       -1.113894   -3.986997    3.160174
    147          1           0        1.399061   -5.210738    5.287166
    148          1           0        2.148077   -3.718954    5.824341
    149          1           0        3.094228   -5.907211    4.121865
    150          1           0        3.983480   -5.096246    5.462156
    151          1           0        3.848128   -4.340246    3.811558
    152          1           0        4.571343    1.546405    5.475372
    153          1           0        3.255364    0.342726    5.663863
    154          1           0        2.891557    1.924926    4.866030
    155          1           0        4.957065    3.376170    0.401489
    156          1           0        8.740413    5.322246   -0.292696
    157          1           0        8.694650    4.046340   -1.668890
    158          1           0        9.336151    3.769368   -0.030598
 ---------------------------------------------------------------------

 SCF Done:  E(RCAM-B3LYP) =  -4069.80940383     A.U. after   19 cycles

 Excitation energies and oscillator strengths:

 Excited State   1:      Singlet-A      1.6378 eV  757.01 nm  f=0.0014  <S**2>=0.000
     309 -> 315       -0.11182
     310 -> 316        0.12035
     311 -> 313       -0.46651
     312 -> 314        0.50599
 This state for optimization and/or second-order correction.
 Total Energy, E(TD-HF/TD-DFT) =  -4069.74921516
 Copying the excited state density for this state as the 1-particle RhoCI density.

 Excited State   2:      Singlet-A      1.7116 eV  724.37 nm  f=0.6783  <S**2>=0.000
     309 -> 315        0.13536
     310 -> 316        0.12383
     311 -> 313        0.50262
     312 -> 314        0.46340

 Excited State   3:      Singlet-A      2.1778 eV  569.31 nm  f=0.0146  <S**2>=0.000
     309 -> 313       -0.33625
     310 -> 314        0.55211
     311 -> 315        0.13712
     312 -> 316       -0.22693

 Excited State   4:      Singlet-A      2.1983 eV  564.01 nm  f=0.1544  <S**2>=0.000
     309 -> 313        0.54555
     310 -> 314        0.32993
     311 -> 315       -0.24249
     312 -> 316       -0.14889

 Excited State   5:      Singlet-A      2.2352 eV  554.68 nm  f=0.0000  <S**2>=0.000
     312 -> 313        0.70700

 The electronic state is 1-A.
 Alpha  occ. eigenvalues --  -46.87899 -46.87366 -19.26348 -19.26073 -19.19086
 Alpha  occ. eigenvalues --  -19.18873 -19.18838 -19.18467 -19.18221 -19.17683
 Alpha  occ. eigenvalues --  -14.42561 -14.42209 -14.41571 -14.41062 -14.39496
 Alpha  occ. eigenvalues --  -14.39065 -14.38682 -14.38285 -10.39148 -10.38792
 Alpha  occ. eigenvalues --  -10.35471 -10.35151 -10.34445 -10.33855 -10.31737
 Alpha  occ. eigenvalues --  -10.31529 -10.31522 -10.31015 -10.31007 -10.30745
 Alpha  occ. eigenvalues --  -10.30678 -10.30602 -10.30334 -10.30087 -10.30054
 Alpha  occ. eigenvalues --  -10.30041 -10.29881 -10.29722 -10.29565 -10.29349
 Alpha  occ. eigenvalues --  -10.29160 -10.29107 -10.28892 -10.28760 -10.28493
 Alpha  occ. eigenvalues --  -10.28457 -10.28453 -10.28253 -10.28095 -10.27883
 Alpha  occ. eigenvalues --  -10.27876 -10.27842 -10.27703 -10.27689 -10.27671
 Alpha  occ. eigenvalues --  -10.27613 -10.27602 -10.27504 -10.27401 -10.27324
 Alpha  occ. eigenvalues --  -10.27260 -10.27231 -10.27186 -10.27177 -10.27021
 Alpha  occ. eigenvalues --  -10.26903 -10.26664 -10.26487 -10.26482 -10.26423
 Alpha  occ. eigenvalues --  -10.26352 -10.26256 -10.26149 -10.25956 -10.25923
 Alpha  occ. eigenvalues --  -10.25741 -10.25654 -10.25557 -10.25476 -10.25166
 Alpha  occ. eigenvalues --  -10.24912 -10.24893 -10.24799 -10.24544 -10.24542
 Alpha  occ. eigenvalues --  -10.24370  -3.16641  -3.16116  -1.91522  -1.91109
 Alpha  occ. eigenvalues --   -1.90999  -1.90951  -1.90587  -1.90424  -1.16697
 Alpha  occ. eigenvalues --   -1.16363  -1.08677  -1.08282  -1.07231  -1.06720
 Alpha  occ. eigenvalues --   -1.06707  -1.06655  -1.04690  -1.04202  -1.03875
 Alpha  occ. eigenvalues --   -1.03368  -1.03333  -1.02737  -1.02515  -1.01804
 Alpha  occ. eigenvalues --   -0.92066  -0.91662  -0.89709  -0.89330  -0.89218
 Alpha  occ. eigenvalues --   -0.88891  -0.88461  -0.87959  -0.87922  -0.87798
 Alpha  occ. eigenvalues --   -0.87461  -0.87401  -0.87356  -0.86887  -0.85118
 Alpha  occ. eigenvalues --   -0.84739  -0.84166  -0.83576  -0.83067  -0.82766
 Alpha  occ. eigenvalues --   -0.82706  -0.82394  -0.81683  -0.81311  -0.80698
 Alpha  occ. eigenvalues --   -0.80163  -0.78891  -0.78370  -0.77392  -0.77091
 Alpha  occ. eigenvalues --   -0.76881  -0.76623  -0.76040  -0.75562  -0.75076
 Alpha  occ. eigenvalues --   -0.74475  -0.72895  -0.72400  -0.71787  -0.71296
 Alpha  occ. eigenvalues --   -0.70235  -0.69469  -0.68999  -0.68567  -0.67739
 Alpha  occ. eigenvalues --   -0.67351  -0.67308  -0.66968  -0.65427  -0.65011
 Alpha  occ. eigenvalues --   -0.64973  -0.64769  -0.64497  -0.64446  -0.64365
 Alpha  occ. eigenvalues --   -0.63904  -0.62395  -0.61994  -0.60543  -0.60076
 Alpha  occ. eigenvalues --   -0.59926  -0.59521  -0.59104  -0.58693  -0.58614
 Alpha  occ. eigenvalues --   -0.58126  -0.57668  -0.57432  -0.57218  -0.56942
 Alpha  occ. eigenvalues --   -0.56407  -0.56073  -0.55926  -0.55634  -0.55610
 Alpha  occ. eigenvalues --   -0.55511  -0.55193  -0.54958  -0.54677  -0.54221
 Alpha  occ. eigenvalues --   -0.54033  -0.53658  -0.53418  -0.53321  -0.53068
 Alpha  occ. eigenvalues --   -0.52962  -0.52894  -0.52849  -0.52708  -0.52622
 Alpha  occ. eigenvalues --   -0.52456  -0.52171  -0.52001  -0.51734  -0.51526
 Alpha  occ. eigenvalues --   -0.51414  -0.51327  -0.50907  -0.50669  -0.50289
 Alpha  occ. eigenvalues --   -0.50245  -0.50015  -0.49732  -0.49641  -0.49572
 Alpha  occ. eigenvalues --   -0.49310  -0.49239  -0.49215  -0.48923  -0.48832
 Alpha  occ. eigenvalues --   -0.48702  -0.48618  -0.48502  -0.48271  -0.48121
 Alpha  occ. eigenvalues --   -0.48075  -0.47787  -0.47401  -0.47342  -0.47041
 Alpha  occ. eigenvalues --   -0.46818  -0.46688  -0.46517  -0.46433  -0.46303
 Alpha  occ. eigenvalues --   -0.46278  -0.45981  -0.45921  -0.45768  -0.45530
 Alpha  occ. eigenvalues --   -0.45302  -0.44855  -0.44688  -0.44642  -0.44332
 Alpha  occ. eigenvalues --   -0.44248  -0.44204  -0.44178  -0.44101  -0.43854
 Alpha  occ. eigenvalues --   -0.43812  -0.43663  -0.43605  -0.43516  -0.43276
 Alpha  occ. eigenvalues --   -0.43158  -0.43110  -0.42914  -0.42759  -0.42655
 Alpha  occ. eigenvalues --   -0.42597  -0.42307  -0.42202  -0.41811  -0.41702
 Alpha  occ. eigenvalues --   -0.41676  -0.41372  -0.41248  -0.41204  -0.41041
 Alpha  occ. eigenvalues --   -0.40892  -0.40730  -0.40680  -0.40494  -0.40455
 Alpha  occ. eigenvalues --   -0.40386  -0.40202  -0.40005  -0.39633  -0.39147
 Alpha  occ. eigenvalues --   -0.38630  -0.38021  -0.37906  -0.37482  -0.37406
 Alpha  occ. eigenvalues --   -0.37387  -0.36950  -0.36917  -0.36781  -0.36475
 Alpha  occ. eigenvalues --   -0.36296  -0.35912  -0.34391  -0.33949  -0.33842
 Alpha  occ. eigenvalues --   -0.33569  -0.33289  -0.32879  -0.31374  -0.31137
 Alpha  occ. eigenvalues --   -0.31022  -0.30669  -0.30082  -0.29585  -0.29527
 Alpha  occ. eigenvalues --   -0.29402  -0.29052  -0.28873  -0.24187  -0.23731
 Alpha  occ. eigenvalues --   -0.21237  -0.20819
 Alpha virt. eigenvalues --   -0.08868  -0.08493  -0.01855  -0.01391  -0.00126
 Alpha virt. eigenvalues --    0.00242   0.02114   0.02429   0.02661   0.03637
 Alpha virt. eigenvalues --    0.04577   0.05011   0.05049   0.05468   0.05972

 Mulliken charges:
               1
     1  Mg   0.839020
     2  C   -0.002764
     3  C   -0.094890
     4  C   -0.046095
     5  C   -0.064463
     6  N   -0.256533
     7  C   -0.052853
     8  C   -0.013853
     9  C   -0.086928
    10  C    0.046188
    11  C    0.104779
    12  C    0.053677
    13  C   -0.071265
    14  H    0.034584
    15  N   -0.433474
    16  C    0.168806
    17  C   -0.177551
    18  C   -0.003245
    19  C    0.149715
    20  C    0.110417
    21  C    0.014311
    22  O   -0.248139
    23  C    0.062236
    24  N   -0.340800
    25  C    0.041290
    26  C   -0.029824
    27  C   -0.026974
    28  C    0.074153
    29  C    0.076068
    30  C    0.074955
    31  C   -0.058257
    32  N   -0.310606
    33  C    0.080505
    34  C   -0.169982
    35  C    0.008757
    36  C    0.083308
    37  C    0.127254
    38  C    0.046649
    39  O   -0.187164
    40  C   -0.005741
    41  C    0.213406
    42  O   -0.257195
    43  O   -0.304853
    44  C    0.157210
    45  H   -0.017721
    46  H   -0.016233
    47  H   -0.042043
    48  H    0.001347
    49  H   -0.004731
    50  H    0.025803
    51  H    0.016709
    52  H    0.016658
    53  H    0.009994
    54  H    0.043727
    55  H    0.018832
    56  H    0.017149
    57  H    0.005309
    58  H    0.027236
    59  H    0.038459
    60  H    0.036572
    61  H    0.037318
    62  H    0.030848
    63  H    0.017766
    64  H    0.010378
    65  H    0.023718
    66  H    0.013076
    67  H    0.005001
    68  H    0.005899
    69  H    0.000196
    70  H    0.034994
    71  H    0.026920
    72  H    0.035516
    73  H    0.048159
    74  H    0.008415
    75  H    0.046377
    76  H    0.035323
    77  H    0.043934
    78  H    0.045384
    79  H    0.054459
    80  Mg   0.837171
    81  C   -0.015125
    82  C   -0.088570
    83  C   -0.046823
    84  C   -0.064472
    85  N   -0.254534
    86  C   -0.048058
    87  C   -0.015106
    88  C   -0.090947
    89  C    0.046074
    90  C    0.113493
    91  C    0.062710
    92  C   -0.077200
    93  H    0.034110
    94  N   -0.423357
    95  C    0.162722
    96  C   -0.176530
    97  C   -0.008123
    98  C    0.151340
    99  C    0.100370
   100  C    0.014776
   101  O   -0.252600
   102  C    0.061669
   103  N   -0.350381
   104  C    0.038573
   105  C   -0.023169
   106  C   -0.035807
   107  C    0.088157
   108  C    0.095501
   109  C    0.033785
   110  C   -0.005420
   111  N   -0.324948
   112  C    0.079784
   113  C   -0.161239
   114  C    0.004869
   115  C    0.096366
   116  C    0.130246
   117  C    0.045154
   118  O   -0.186868
   119  C   -0.000391
   120  C    0.210668
   121  O   -0.251898
   122  O   -0.305146
   123  C    0.152315
   124  H   -0.022003
   125  H   -0.014784
   126  H   -0.041446
   127  H   -0.000050
   128  H   -0.005946
   129  H    0.028493
   130  H    0.013670
   131  H    0.012573
   132  H    0.013456
   133  H    0.037680
   134  H    0.020266
   135  H    0.018733
   136  H    0.007519
   137  H    0.023092
   138  H    0.039070
   139  H    0.036420
   140  H    0.035993
   141  H    0.033507
   142  H    0.012440
   143  H    0.013826
   144  H    0.021951
   145  H    0.011094
   146  H   -0.028339
   147  H    0.005048
   148  H    0.002196
   149  H    0.010874
   150  H    0.017164
   151  H    0.030136
   152  H    0.045331
   153  H    0.006629
   154  H    0.051989
   155  H    0.040361
   156  H    0.043561
   157  H    0.048651
   158  H    0.053117
 Sum of Mulliken charges =  -0.00000

 Dipole moment (field-independent basis, Debye):
    X=             -4.0693    Y=             -0.8051    Z=             -7.6721  Tot=              8.7217
 Quadrupole moment (field-independent basis, Debye-Ang):
   XX=           -516.9931   YY=           -549.3031   ZZ=           -448.1813
   XY=            -12.3043   XZ=            -25.8688   YZ=            -37.3595

 Normal termination of Gaussian 16 at Wed Sep  8 16:42:41 2021.
