 Gaussian 16, Revision A.03,
 Gaussian 16:  ES64L-G16RevA.03 25-Dec-2016

 -----------------------------------
 #p cam-b3lyp/Def2SVP td=(nstates=5)
 -----------------------------------

 --------------------------------
 TDDFT excited states in gaussian
 --------------------------------
 Symbolic Z-matrix:
 Charge =  0 Multiplicity = 1

                         Standard orientation:
 ---------------------------------------------------------------------
 Center     Atomic      Atomic             Coordinates (Angstroms)
 Number     Number       Type             X           Y           Z
 ---------------------------------------------------------------------
      1         12           0        8.197390    0.424440    0.679161
      2          6           0        8.487373   -2.589070   -1.230519
      3          6           0        9.259373    2.107111   -2.092819
      4          6           0        8.385530    3.035256    2.469375
      5          6           0        8.265370   -1.559072    3.543899
      6          7           0        8.768067   -0.264583   -1.345739
      7          6           0        8.778228   -1.439238   -1.968037
      8          6           0        9.053507   -1.325861   -3.497331
      9          6           0        9.822251    0.070856   -3.511859
     10          6           0        9.222665    0.691132   -2.262188
     11          6           0       11.329625   -0.061313   -3.319877
     12          6           0        7.732808   -1.261642   -4.335997
     13          6           0        7.904162   -1.478324   -5.842331
     14          1           0        6.863914   -2.189071   -6.570391
     15          7           0        8.267232    2.329936    0.162387
     16          6           0        8.713744    2.834444   -1.012937
     17          6           0        8.561817    4.301796   -0.910582
     18          6           0        8.168606    4.621953    0.489768
     19          6           0        8.285074    3.327495    1.111210
     20          6           0        8.736277    5.230156   -2.073106
     21          6           0        7.763851    5.894811    1.163666
     22          8           0        7.687949    5.996556    2.435854
     23          6           0        7.541345    7.059707    0.288138
     24          7           0        8.530231    0.727600    2.717530
     25          6           0        8.504569    1.956170    3.245679
     26          6           0        8.484468    1.905783    4.744678
     27          6           0        8.255583    0.373796    5.132465
     28          6           0        8.266324   -0.234286    3.708249
     29          6           0        9.744563    2.427676    5.448809
     30          6           0        7.057398    0.055042    6.061533
     31          6           0        5.758811    0.332375    5.337752
     32          7           0        8.170252   -1.702050    1.113153
     33          6           0        8.228269   -2.305267    2.377841
     34          6           0        8.291798   -3.762041    2.159112
     35          6           0        8.282989   -3.905230    0.773015
     36          6           0        8.244563   -2.618332    0.164155
     37          6           0        8.406065   -4.752896    3.173796
     38          6           0        8.321964   -4.845128   -0.335556
     39          8           0        8.266657   -6.071742   -0.434812
     40          6           0        8.578825   -4.026955   -1.677361
     41          6           0        7.587458   -4.509628   -2.700850
     42          8           0        6.366115   -4.296308   -2.558788
     43          8           0        8.244750   -4.931952   -3.791791
     44          6           0        7.317913   -5.396932   -4.858056
     45          1           0        9.805205    2.711676   -2.819806
     46          1           0        8.341808    3.905788    3.127174
     47          1           0        8.203378   -2.244150    4.391411
     48          1           0        9.695254   -2.108256   -3.902846
     49          1           0        9.568869    0.665726   -4.389156
     50          1           0       11.611826   -1.085254   -3.075276
     51          1           0       11.578090    0.609004   -2.496814
     52          1           0       11.865756    0.320141   -4.189264
     53          1           0        7.357262   -0.238400   -4.337288
     54          1           0        6.996857   -1.968641   -3.951479
     55          1           0        8.885265   -1.892541   -6.076360
     56          1           0        7.898152   -0.503694   -6.330449
     57          1           0        9.184907    4.723316   -2.926563
     58          1           0        9.476813    5.973516   -1.778607
     59          1           0        7.804785    5.726872   -2.345004
     60          1           0        8.455283    7.272612   -0.266783
     61          1           0        7.172200    7.855364    0.934290
     62          1           0        6.784541    6.804126   -0.454072
     63          1           0        7.665390    2.501810    5.145038
     64          1           0        9.115289   -0.049292    5.652636
     65          1           0        9.548727    3.233790    6.156293
     66          1           0       10.452493    2.742989    4.682843
     67          1           0       10.320679    1.668377    5.976987
     68          1           0        7.078037    0.697779    6.940969
     69          1           0        7.043539   -0.978866    6.406632
     70          1           0        5.623277    1.403562    5.482738
     71          1           0        4.942337   -0.229545    5.792534
     72          1           0        5.855421    0.158279    4.265911
     73          1           0        7.715171   -5.550379    2.900566
     74          1           0        8.169866   -4.343275    4.155642
     75          1           0        9.457603   -5.022129    3.075618
     76          1           0        9.606919   -4.229361   -1.975985
     77          1           0        7.604016   -6.418396   -5.109035
     78          1           0        7.359000   -4.650511   -5.651512
     79          1           0        6.277807   -5.541018   -4.563510
     80         12           0       -7.653404    0.583516   -0.278692
     81          6           0      -10.286752   -1.742075    0.453556
     82          6           0      -10.066083    2.757541   -1.321380
     83          6           0       -5.344112    2.476407   -1.351810
     84          6           0       -5.452697   -2.118799   -0.268672
     85          7           0       -9.856794    0.414703   -0.372571
     86          6           0      -10.750390   -0.493071   -0.009535
     87          6           0      -12.223380   -0.007716   -0.074963
     88          6           0      -12.043668    1.160152   -1.162466
     89          6           0      -10.573711    1.496183   -0.919631
     90          6           0      -12.192624    0.676352   -2.595328
     91          6           0      -12.727544    0.559049    1.298576
     92          6           0      -14.241115    0.763669    1.393223
     93          1           0      -14.897844    0.518615    2.674285
     94          7           0       -7.684816    2.513820   -0.738603
     95          6           0       -8.755221    3.242350   -1.119083
     96          6           0       -8.250221    4.602449   -1.362538
     97          6           0       -6.766190    4.578215   -1.254006
     98          6           0       -6.534300    3.153247   -1.128397
     99          6           0       -9.155660    5.778964   -1.584836
    100          6           0       -5.726724    5.657702   -1.274419
    101          8           0       -4.480020    5.389632   -1.403713
    102          6           0       -6.218759    7.042492   -1.232519
    103          7           0       -5.722416    0.209353   -0.952218
    104          6           0       -4.908134    1.217199   -1.311552
    105          6           0       -3.489557    0.733252   -1.495408
    106          6           0       -3.473690   -0.769070   -0.947364
    107          6           0       -4.971952   -0.930868   -0.609096
    108          6           0       -2.958905    0.757485   -2.928667
    109          6           0       -2.427519   -1.106914    0.149929
    110          6           0       -2.766094   -0.375030    1.428638
    111          7           0       -7.772311   -1.517410    0.211233
    112          6           0       -6.737852   -2.474342    0.120357
    113          6           0       -7.329265   -3.787414    0.449757
    114          6           0       -8.682506   -3.504458    0.688868
    115          6           0       -8.922046   -2.116406    0.500660
    116          6           0       -6.640706   -5.033210    0.450791
    117          6           0       -9.965003   -4.066068    1.047310
    118          8           0      -10.357411   -5.174716    1.408755
    119          6           0      -11.086845   -2.970458    0.787528
    120          6           0      -11.975821   -2.919403    1.999817
    121          8           0      -11.530402   -2.531817    3.094341
    122          8           0      -13.250050   -3.127064    1.620892
    123          6           0      -14.171323   -3.074842    2.787235
    124          1           0      -10.720389    3.425297   -1.882507
    125          1           0       -4.488512    3.101939   -1.616631
    126          1           0       -4.812135   -2.995033   -0.148026
    127          1           0      -12.929386   -0.746150   -0.435586
    128          1           0      -12.673494    2.015317   -0.931452
    129          1           0      -12.277897   -0.398725   -2.650755
    130          1           0      -11.303939    1.012600   -3.113234
    131          1           0      -13.032959    1.182781   -3.078756
    132          1           0      -12.390567    1.598470    1.402400
    133          1           0      -12.394838   -0.057946    2.110521
    134          1           0      -14.777318    0.254851    0.582950
    135          1           0      -14.458684    1.822737    1.234928
    136          1           0      -10.188276    5.461502   -1.775410
    137          1           0       -8.840134    6.252955   -2.520593
    138          1           0       -9.096942    6.513821   -0.779114
    139          1           0       -6.877782    7.217365   -2.079609
    140          1           0       -5.326399    7.667764   -1.164710
    141          1           0       -6.826064    7.170814   -0.329562
    142          1           0       -2.799098    1.328122   -0.910177
    143          1           0       -3.252065   -1.491911   -1.746253
    144          1           0       -2.034431    1.354665   -3.041775
    145          1           0       -3.738744    1.137825   -3.574990
    146          1           0       -2.755666   -0.220122   -3.362453
    147          1           0       -1.436140   -0.760801   -0.152612
    148          1           0       -2.348116   -2.168545    0.358790
    149          1           0       -2.331786    0.616267    1.268004
    150          1           0       -2.313021   -0.870390    2.285015
    151          1           0       -3.849713   -0.247067    1.533771
    152          1           0       -6.956313   -5.562638    1.339949
    153          1           0       -5.562125   -4.891347    0.433428
    154          1           0       -7.013313   -5.462771   -0.482965
    155          1           0      -11.633227   -3.267138   -0.108591
    156          1           0      -14.727824   -4.017118    2.797240
    157          1           0      -14.757542   -2.144907    2.663481
    158          1           0      -13.728488   -3.080240    3.776339
 ---------------------------------------------------------------------

 SCF Done:  E(RCAM-B3LYP) =  -4069.81191386     A.U. after   19 cycles

 Excitation energies and oscillator strengths:

 Excited State   1:      Singlet-A      1.6693 eV  742.75 nm  f=0.0202  <S**2>=0.000
     309 -> 315       -0.10193
     310 -> 316        0.13900
     311 -> 313       -0.40441
     312 -> 314        0.55459
 This state for optimization and/or second-order correction.
 Total Energy, E(TD-HF/TD-DFT) =  -4069.75056988
 Copying the excited state density for this state as the 1-particle RhoCI density.

 Excited State   2:      Singlet-A      1.6854 eV  735.62 nm  f=0.7353  <S**2>=0.000
     309 -> 315        0.14311
     310 -> 316        0.10377
     311 -> 313        0.55376
     312 -> 314        0.40388

 Excited State   3:      Singlet-A      2.1855 eV  567.29 nm  f=0.1044  <S**2>=0.000
     310 -> 314        0.64235
     312 -> 316       -0.27273

 Excited State   4:      Singlet-A      2.1932 eV  565.31 nm  f=0.0977  <S**2>=0.000
     309 -> 313        0.64037
     311 -> 315       -0.27858

 Excited State   5:      Singlet-A      2.7778 eV  446.34 nm  f=0.0000  <S**2>=0.000
     312 -> 313        0.70696

 The electronic state is 1-A.
 Alpha  occ. eigenvalues --  -46.87786 -46.87577 -19.26302 -19.26290 -19.19097
 Alpha  occ. eigenvalues --  -19.19042 -19.18778 -19.18652 -19.18164 -19.17976
 Alpha  occ. eigenvalues --  -14.42440 -14.42418 -14.41436 -14.41268 -14.39389
 Alpha  occ. eigenvalues --  -14.39272 -14.38578 -14.38516 -10.39098 -10.39026
 Alpha  occ. eigenvalues --  -10.35410 -10.35332 -10.34386 -10.34153 -10.31703
 Alpha  occ. eigenvalues --  -10.31700 -10.31398 -10.31229 -10.30952 -10.30898
 Alpha  occ. eigenvalues --  -10.30561 -10.30494 -10.30312 -10.30276 -10.30187
 Alpha  occ. eigenvalues --  -10.30044 -10.29908 -10.29797 -10.29615 -10.29355
 Alpha  occ. eigenvalues --  -10.29319 -10.29237 -10.28747 -10.28657 -10.28605
 Alpha  occ. eigenvalues --  -10.28547 -10.28353 -10.28329 -10.28111 -10.28077
 Alpha  occ. eigenvalues --  -10.27920 -10.27779 -10.27715 -10.27591 -10.27566
 Alpha  occ. eigenvalues --  -10.27479 -10.27450 -10.27427 -10.27409 -10.27405
 Alpha  occ. eigenvalues --  -10.27394 -10.27389 -10.27375 -10.27254 -10.27159
 Alpha  occ. eigenvalues --  -10.26979 -10.26713 -10.26636 -10.26371 -10.26354
 Alpha  occ. eigenvalues --  -10.26225 -10.26159 -10.26005 -10.25968 -10.25945
 Alpha  occ. eigenvalues --  -10.25834 -10.25832 -10.25740 -10.25410 -10.25284
 Alpha  occ. eigenvalues --  -10.24821 -10.24792 -10.24773 -10.24667 -10.24604
 Alpha  occ. eigenvalues --  -10.24564  -3.16529  -3.16327  -1.91411  -1.91209
 Alpha  occ. eigenvalues --   -1.90998  -1.90840  -1.90798  -1.90635  -1.16651
 Alpha  occ. eigenvalues --   -1.16583  -1.08625  -1.08584  -1.07178  -1.06906
 Alpha  occ. eigenvalues --   -1.06882  -1.06662  -1.04571  -1.04417  -1.03747
 Alpha  occ. eigenvalues --   -1.03579  -1.03221  -1.02950  -1.02399  -1.02026
 Alpha  occ. eigenvalues --   -0.91965  -0.91908  -0.89503  -0.89383  -0.89183
 Alpha  occ. eigenvalues --   -0.89083  -0.88269  -0.88102  -0.87859  -0.87704
 Alpha  occ. eigenvalues --   -0.87662  -0.87602  -0.87248  -0.87052  -0.84975
 Alpha  occ. eigenvalues --   -0.84929  -0.83919  -0.83756  -0.82934  -0.82856
 Alpha  occ. eigenvalues --   -0.82636  -0.82581  -0.81585  -0.81521  -0.80587
 Alpha  occ. eigenvalues --   -0.80367  -0.78777  -0.78558  -0.77205  -0.77063
 Alpha  occ. eigenvalues --   -0.76929  -0.76813  -0.75918  -0.75767  -0.74882
 Alpha  occ. eigenvalues --   -0.74701  -0.72761  -0.72611  -0.71660  -0.71497
 Alpha  occ. eigenvalues --   -0.69888  -0.69620  -0.68863  -0.68754  -0.67627
 Alpha  occ. eigenvalues --   -0.67522  -0.67210  -0.67136  -0.65282  -0.65200
 Alpha  occ. eigenvalues --   -0.64846  -0.64683  -0.64612  -0.64574  -0.64254
 Alpha  occ. eigenvalues --   -0.64090  -0.62300  -0.62200  -0.60419  -0.60259
 Alpha  occ. eigenvalues --   -0.59797  -0.59725  -0.58976  -0.58906  -0.58493
 Alpha  occ. eigenvalues --   -0.58340  -0.57585  -0.57480  -0.57294  -0.57144
 Alpha  occ. eigenvalues --   -0.56296  -0.56122  -0.55983  -0.55817  -0.55500
 Alpha  occ. eigenvalues --   -0.55384  -0.55329  -0.55146  -0.54519  -0.54388
 Alpha  occ. eigenvalues --   -0.53890  -0.53846  -0.53281  -0.53208  -0.53144
 Alpha  occ. eigenvalues --   -0.53069  -0.52910  -0.52825  -0.52732  -0.52608
 Alpha  occ. eigenvalues --   -0.52419  -0.52252  -0.51905  -0.51787  -0.51606
 Alpha  occ. eigenvalues --   -0.51595  -0.51187  -0.51112  -0.50536  -0.50409
 Alpha  occ. eigenvalues --   -0.50011  -0.49907  -0.49895  -0.49760  -0.49499
 Alpha  occ. eigenvalues --   -0.49420  -0.49203  -0.49132  -0.49088  -0.49030
 Alpha  occ. eigenvalues --   -0.48588  -0.48485  -0.48444  -0.48422  -0.48274
 Alpha  occ. eigenvalues --   -0.48274  -0.47680  -0.47516  -0.47280  -0.47039
 Alpha  occ. eigenvalues --   -0.46785  -0.46617  -0.46549  -0.46483  -0.46346
 Alpha  occ. eigenvalues --   -0.46181  -0.46153  -0.45993  -0.45819  -0.45739
 Alpha  occ. eigenvalues --   -0.45183  -0.45108  -0.44571  -0.44486  -0.44442
 Alpha  occ. eigenvalues --   -0.44393  -0.44128  -0.44078  -0.44054  -0.44005
 Alpha  occ. eigenvalues --   -0.43979  -0.43872  -0.43492  -0.43472  -0.43374
 Alpha  occ. eigenvalues --   -0.43307  -0.43016  -0.42858  -0.42817  -0.42703
 Alpha  occ. eigenvalues --   -0.42643  -0.42443  -0.41998  -0.41858  -0.41694
 Alpha  occ. eigenvalues --   -0.41587  -0.41526  -0.41376  -0.41129  -0.40909
 Alpha  occ. eigenvalues --   -0.40859  -0.40794  -0.40658  -0.40617  -0.40556
 Alpha  occ. eigenvalues --   -0.40377  -0.40231  -0.40168  -0.39421  -0.39286
 Alpha  occ. eigenvalues --   -0.38453  -0.38242  -0.37746  -0.37586  -0.37305
 Alpha  occ. eigenvalues --   -0.37258  -0.37163  -0.37125  -0.36720  -0.36696
 Alpha  occ. eigenvalues --   -0.36189  -0.36123  -0.34275  -0.34169  -0.33795
 Alpha  occ. eigenvalues --   -0.33786  -0.33176  -0.33091  -0.31309  -0.31210
 Alpha  occ. eigenvalues --   -0.31023  -0.30891  -0.30025  -0.29880  -0.29431
 Alpha  occ. eigenvalues --   -0.29310  -0.29251  -0.29130  -0.24070  -0.23952
 Alpha  occ. eigenvalues --   -0.21114  -0.21033
 Alpha virt. eigenvalues --   -0.08759  -0.08712  -0.01735  -0.01599  -0.00037
 Alpha virt. eigenvalues --    0.00040   0.02211   0.02290   0.03113   0.03311
 Alpha virt. eigenvalues --    0.04725   0.04805   0.05083   0.05231   0.06174

 Mulliken charges:
               1
     1  Mg   0.838301
     2  C   -0.003192
     3  C   -0.094088
     4  C   -0.045766
     5  C   -0.063957
     6  N   -0.256791
     7  C   -0.052623
     8  C   -0.013974
     9  C   -0.086991
    10  C    0.046280
    11  C    0.104791
    12  C    0.053459
    13  C   -0.071757
    14  H    0.035815
    15  N   -0.433197
    16  C    0.168453
    17  C   -0.177013
    18  C   -0.003812
    19  C    0.148733
    20  C    0.110135
    21  C    0.012531
    22  O   -0.249426
    23  C    0.062349
    24  N   -0.341099
    25  C    0.041235
    26  C   -0.028245
    27  C   -0.023943
    28  C    0.074723
    29  C    0.076145
    30  C    0.035104
    31  C   -0.004527
    32  N   -0.310381
    33  C    0.080172
    34  C   -0.169894
    35  C    0.008281
    36  C    0.082708
    37  C    0.127360
    38  C    0.045888
    39  O   -0.188579
    40  C   -0.005231
    41  C    0.212965
    42  O   -0.257670
    43  O   -0.304657
    44  C    0.157762
    45  H   -0.017522
    46  H   -0.016642
    47  H   -0.041454
    48  H    0.000929
    49  H   -0.003985
    50  H    0.025481
    51  H    0.016516
    52  H    0.016705
    53  H    0.011223
    54  H    0.043722
    55  H    0.017977
    56  H    0.018101
    57  H    0.005835
    58  H    0.026897
    59  H    0.039996
    60  H    0.037208
    61  H    0.035979
    62  H    0.031986
    63  H    0.016747
    64  H    0.009504
    65  H    0.023356
    66  H    0.012529
    67  H    0.004784
    68  H    0.006569
    69  H    0.004743
    70  H    0.009081
    71  H    0.018102
    72  H    0.028599
    73  H    0.047394
    74  H    0.009161
    75  H    0.046060
    76  H    0.035218
    77  H    0.043053
    78  H    0.046450
    79  H    0.053323
    80  Mg   0.837758
    81  C   -0.016974
    82  C   -0.087995
    83  C   -0.045529
    84  C   -0.064766
    85  N   -0.254580
    86  C   -0.049844
    87  C   -0.015118
    88  C   -0.090464
    89  C    0.045717
    90  C    0.114439
    91  C    0.062571
    92  C   -0.077807
    93  H    0.034761
    94  N   -0.423435
    95  C    0.162858
    96  C   -0.174852
    97  C   -0.007971
    98  C    0.152081
    99  C    0.099466
   100  C    0.015441
   101  O   -0.253411
   102  C    0.061254
   103  N   -0.350117
   104  C    0.037531
   105  C   -0.019841
   106  C   -0.035230
   107  C    0.088881
   108  C    0.073799
   109  C    0.034663
   110  C   -0.007809
   111  N   -0.324144
   112  C    0.078532
   113  C   -0.162880
   114  C    0.002179
   115  C    0.096314
   116  C    0.131386
   117  C    0.042441
   118  O   -0.187866
   119  C    0.000911
   120  C    0.211234
   121  O   -0.251016
   122  O   -0.305661
   123  C    0.152066
   124  H   -0.019965
   125  H   -0.015746
   126  H   -0.039528
   127  H   -0.000755
   128  H   -0.004496
   129  H    0.022406
   130  H    0.014386
   131  H    0.016048
   132  H    0.013902
   133  H    0.037693
   134  H    0.020712
   135  H    0.019491
   136  H    0.008614
   137  H    0.025800
   138  H    0.039589
   139  H    0.038033
   140  H    0.036052
   141  H    0.033931
   142  H    0.014456
   143  H    0.013236
   144  H    0.024865
   145  H    0.011000
   146  H    0.006287
   147  H    0.007626
   148  H    0.004864
   149  H    0.010694
   150  H    0.018342
   151  H    0.029377
   152  H    0.046063
   153  H    0.009371
   154  H    0.046982
   155  H    0.034901
   156  H    0.043835
   157  H    0.049398
   158  H    0.053563
 Sum of Mulliken charges =  -0.00000

 Dipole moment (field-independent basis, Debye):
    X=              0.5146    Y=              6.5387    Z=             -4.7568  Tot=              8.1022
 Quadrupole moment (field-independent basis, Debye-Ang):
   XX=           -424.3601   YY=           -545.9286   ZZ=           -481.1708
   XY=            -29.5129   XZ=              2.8745   YZ=             -9.3695

 Normal termination of Gaussian 16 at Sat Sep 11 18:47:23 2021.
