 Gaussian 16, Revision A.03,
 Gaussian 16:  ES64L-G16RevA.03 25-Dec-2016

 -----------------------------------
 #p cam-b3lyp/Def2SVP td=(nstates=5)
 -----------------------------------

 --------------------------------
 TDDFT excited states in gaussian
 --------------------------------
 Symbolic Z-matrix:
 Charge =  0 Multiplicity = 1

                         Standard orientation:
 ---------------------------------------------------------------------
 Center     Atomic      Atomic             Coordinates (Angstroms)
 Number     Number       Type             X           Y           Z
 ---------------------------------------------------------------------
      1         12           0       15.961713   -0.845325    0.208379
      2          6           0       16.277331    2.264349   -1.535905
      3          6           0       16.948936    0.805921    3.026507
      4          6           0       16.129639   -3.656798    1.665788
      5          6           0       16.111126   -2.430226   -2.891850
      6          7           0       16.513239    1.267446    0.572610
      7          6           0       16.535334    2.371508   -0.167477
      8          6           0       16.784499    3.666517    0.662127
      9          6           0       17.527014    3.022351    1.917404
     10          6           0       16.935719    1.624913    1.858556
     11          6           0       19.039391    2.923385    1.745872
     12          6           0       15.449872    4.368286    1.084055
     13          6           0       15.601594    5.798708    1.609630
     14          1           0       14.563371    6.771130    1.303305
     15          7           0       15.988278   -1.291293    2.132764
     16          6           0       16.406948   -0.492318    3.143526
     17          6           0       16.229589   -1.277535    4.383954
     18          6           0       15.852506   -2.664670    3.994390
     19          6           0       16.002558   -2.599080    2.563110
     20          6           0       16.368665   -0.691757    5.755548
     21          6           0       15.434928   -3.862652    4.787232
     22          8           0       15.377086   -5.031933    4.273413
     23          6           0       15.177283   -3.643635    6.222046
     24          7           0       16.320772   -2.782817   -0.480703
     25          6           0       16.280712   -3.829527    0.351030
     26          6           0       16.285013   -5.126358   -0.402728
     27          6           0       16.090539   -4.744286   -1.940893
     28          6           0       16.090203   -3.201829   -1.802695
     29          6           0       17.546130   -5.987230   -0.246224
     30          6           0       14.913131   -5.418010   -2.689375
     31          6           0       13.598477   -4.918175   -2.133548
     32          7           0       15.980622   -0.221648   -1.870494
     33          6           0       16.069553   -1.050093   -2.998521
     34          6           0       16.156524   -0.167807   -4.176687
     35          6           0       16.128661    1.121004   -3.647506
     36          6           0       16.056965    1.048302   -2.226990
     37          6           0       16.304929   -0.592311   -5.526579
     38          6           0       16.167616    2.542529   -3.950174
     39          8           0       16.133409    3.210062   -4.984931
     40          6           0       16.388297    3.338799   -2.588895
     41          6           0       15.390106    4.463819   -2.553465
     42          8           0       14.167407    4.231554   -2.461662
     43          8           0       16.037920    5.628051   -2.393963
     44          6           0       15.103244    6.782711   -2.321192
     45          1           0       17.472069    1.163087    3.915722
     46          1           0       16.080162   -4.648411    2.120424
     47          1           0       16.075063   -2.853027   -3.897530
     48          1           0       17.434149    4.397200    0.179964
     49          1           0       17.248994    3.512476    2.850251
     50          1           0       19.344235    3.193804    0.734999
     51          1           0       19.288297    1.882390    1.952920
     52          1           0       19.554715    3.511516    2.505688
     53          1           0       15.055532    3.883376    1.977039
     54          1           0       14.733204    4.360329    0.262076
     55          1           0       16.586391    6.205831    1.378686
     56          1           0       15.569957    5.767548    2.698771
     57          1           0       16.813157    0.302192    5.723361
     58          1           0       17.099876   -1.299174    6.288543
     59          1           0       15.424023   -0.691959    6.299592
     60          1           0       16.078337   -3.250878    6.693631
     61          1           0       14.803678   -4.591206    6.608541
     62          1           0       14.413799   -2.872674    6.330027
     63          1           0       15.461442   -5.765217   -0.086474
     64          1           0       16.965944   -4.998005   -2.539196
     65          1           0       17.346550   -6.992904    0.124576
     66          1           0       18.236043   -5.458046    0.410491
     67          1           0       18.144359   -6.090362   -1.151157
     68          1           0       14.935670   -6.496772   -2.538672
     69          1           0       14.923761   -5.232910   -3.763561
     70          1           0       13.445483   -5.553419   -1.261831
     71          1           0       12.799731   -5.057083   -2.862877
     72          1           0       13.681492   -3.891055   -1.777711
     73          1           0       15.624677    0.022228   -6.116128
     74          1           0       16.076609   -1.652294   -5.635710
     75          1           0       17.359590   -0.373111   -5.692401
     76          1           0       17.415151    3.702848   -2.601617
     77          1           0       15.404186    7.488568   -3.095424
     78          1           0       15.118123    7.128760   -1.287542
     79          1           0       14.070713    6.586136   -2.612012
     80         12           0      -15.751194    0.539457    0.642748
     81          6           0      -16.936534   -1.036001   -2.355918
     82          6           0      -17.465876   -1.835557    2.390255
     83          6           0      -15.098890    2.159651    3.291692
     84          6           0      -15.106983    3.380499   -1.270140
     85          7           0      -17.001843   -1.163686   -0.011033
     86          6           0      -17.330513   -1.701104   -1.176146
     87          6           0      -18.057344   -3.068705   -1.071484
     88          6           0      -18.654738   -2.910713    0.410752
     89          6           0      -17.628280   -1.936640    0.985433
     90          6           0      -20.018436   -2.240868    0.441762
     91          6           0      -17.065858   -4.281239   -1.164960
     92          6           0      -17.732354   -5.641819   -1.380284
     93          1           0      -17.048352   -6.628079   -2.212084
     94          7           0      -15.791786   -0.034496    2.542096
     95          6           0      -16.527926   -1.032117    3.075131
     96          6           0      -16.216301   -1.038120    4.512846
     97          6           0      -15.361847    0.142895    4.812541
     98          6           0      -15.402435    0.828279    3.536337
     99          6           0      -16.651480   -2.139639    5.435179
    100          6           0      -14.639560    0.589052    6.047636
    101          8           0      -14.152002    1.769730    6.153083
    102          6           0      -14.601273   -0.365148    7.165460
    103          7           0      -15.383539    2.552521    1.009817
    104          6           0      -15.074195    2.984802    2.244873
    105          6           0      -14.583431    4.412639    2.216058
    106          6           0      -14.397543    4.771895    0.668812
    107          6           0      -14.920959    3.461844    0.040176
    108          6           0      -15.500934    5.444771    2.871240
    109          6           0      -13.002612    5.296200    0.230712
    110          6           0      -11.973816    4.196100    0.360040
    111          7           0      -15.795166    1.043033   -1.457857
    112          6           0      -15.513770    2.298360   -2.040135
    113          6           0      -15.789611    2.179033   -3.486546
    114          6           0      -16.237871    0.858780   -3.643032
    115          6           0      -16.260386    0.207785   -2.380028
    116          6           0      -15.664396    3.222825   -4.446186
    117          6           0      -16.707227   -0.128963   -4.587896
    118          8           0      -16.815182   -0.177221   -5.812539
    119          6           0      -17.300819   -1.361063   -3.777971
    120          6           0      -16.739311   -2.622709   -4.374186
    121          8           0      -15.522553   -2.869234   -4.301169
    122          8           0      -17.754129   -3.428040   -4.737446
    123          6           0      -17.247498   -4.697209   -5.324247
    124          1           0      -18.148750   -2.392017    3.032839
    125          1           0      -14.760474    2.732965    4.157872
    126          1           0      -14.837872    4.192164   -1.949457
    127          1           0      -18.861593   -3.211354   -1.783252
    128          1           0      -18.628575   -3.854163    0.949799
    129          1           0      -20.309204   -1.873764   -0.531299
    130          1           0      -19.928119   -1.422097    1.143546
    131          1           0      -20.762815   -2.920736    0.866044
    132          1           0      -16.611017   -4.448581   -0.180152
    133          1           0      -16.330609   -4.114234   -1.927942
    134          1           0      -18.781352   -5.543339   -1.684979
    135          1           0      -17.779816   -6.160852   -0.419875
    136          1           0      -17.404394   -2.784138    4.964918
    137          1           0      -17.181144   -1.667430    6.269640
    138          1           0      -15.811360   -2.714920    5.830062
    139          1           0      -15.617209   -0.614922    7.462008
    140          1           0      -13.966112    0.097751    7.923202
    141          1           0      -14.137825   -1.294621    6.816302
    142          1           0      -13.626428    4.502782    2.715180
    143          1           0      -15.084567    5.569667    0.350364
    144          1           0      -15.005450    6.021339    3.675069
    145          1           0      -16.373487    4.931925    3.253560
    146          1           0      -15.940090    6.171083    2.189472
    147          1           0      -12.677454    6.104356    0.890485
    148          1           0      -12.984937    5.681482   -0.783314
    149          1           0      -11.698359    4.238969    1.418047
    150          1           0      -11.116474    4.396274   -0.279441
    151          1           0      -12.423226    3.213346    0.175979
    152          1           0      -15.184010    2.791576   -5.314381
    153          1           0      -15.094023    4.060532   -4.050325
    154          1           0      -16.717032    3.477258   -4.596102
    155          1           0      -18.387240   -1.316256   -3.863137
    156          1           0      -17.702862   -4.795503   -6.314534
    157          1           0      -17.481056   -5.483636   -4.582128
    158          1           0      -16.193329   -4.750077   -5.570015
 ---------------------------------------------------------------------

 SCF Done:  E(RCAM-B3LYP) =  -4069.81175329     A.U. after   19 cycles

 Excitation energies and oscillator strengths:

 Excited State   1:      Singlet-A      1.6753 eV  740.06 nm  f=0.2141  <S**2>=0.000
     310 -> 316        0.16865
     311 -> 313        0.66674
     312 -> 314       -0.16163
     310 <- 316        0.10167
 This state for optimization and/or second-order correction.
 Total Energy, E(TD-HF/TD-DFT) =  -4069.75018634
 Copying the excited state density for this state as the 1-particle RhoCI density.

 Excited State   2:      Singlet-A      1.6801 eV  737.95 nm  f=0.5634  <S**2>=0.000
     309 -> 315        0.17066
     311 -> 313        0.16158
     312 -> 314        0.66638
     309 <- 315        0.10218

 Excited State   3:      Singlet-A      2.1861 eV  567.15 nm  f=0.0968  <S**2>=0.000
     310 -> 313        0.64221
     311 -> 316       -0.27300

 Excited State   4:      Singlet-A      2.1925 eV  565.49 nm  f=0.1036  <S**2>=0.000
     309 -> 314        0.64043
     312 -> 315       -0.27817

 Excited State   5:      Singlet-A      3.0591 eV  405.29 nm  f=0.0000  <S**2>=0.000
     312 -> 313        0.70711

 The electronic state is 1-A.
 Alpha  occ. eigenvalues --  -46.87754 -46.87661 -19.26346 -19.26240 -19.19158
 Alpha  occ. eigenvalues --  -19.18975 -19.18774 -19.18716 -19.18127 -19.18051
 Alpha  occ. eigenvalues --  -14.42498 -14.42407 -14.41407 -14.41360 -14.39360
 Alpha  occ. eigenvalues --  -14.39352 -14.38600 -14.38544 -10.39088 -10.39035
 Alpha  occ. eigenvalues --  -10.35407 -10.35393 -10.34346 -10.34228 -10.31752
 Alpha  occ. eigenvalues --  -10.31634 -10.31362 -10.31309 -10.31024 -10.30867
 Alpha  occ. eigenvalues --  -10.30527 -10.30465 -10.30398 -10.30361 -10.30165
 Alpha  occ. eigenvalues --  -10.30142 -10.29895 -10.29878 -10.29588 -10.29437
 Alpha  occ. eigenvalues --  -10.29401 -10.29212 -10.28719 -10.28707 -10.28652
 Alpha  occ. eigenvalues --  -10.28495 -10.28405 -10.28322 -10.28141 -10.28075
 Alpha  occ. eigenvalues --  -10.28001 -10.27750 -10.27685 -10.27670 -10.27542
 Alpha  occ. eigenvalues --  -10.27518 -10.27484 -10.27469 -10.27466 -10.27459
 Alpha  occ. eigenvalues --  -10.27440 -10.27408 -10.27377 -10.27361 -10.27115
 Alpha  occ. eigenvalues --  -10.27050 -10.26691 -10.26661 -10.26417 -10.26370
 Alpha  occ. eigenvalues --  -10.26195 -10.26140 -10.26135 -10.26028 -10.25977
 Alpha  occ. eigenvalues --  -10.25934 -10.25849 -10.25800 -10.25401 -10.25396
 Alpha  occ. eigenvalues --  -10.24873 -10.24790 -10.24745 -10.24725 -10.24690
 Alpha  occ. eigenvalues --  -10.24641  -3.16497  -3.16411  -1.91378  -1.91293
 Alpha  occ. eigenvalues --   -1.90965  -1.90882  -1.90807  -1.90718  -1.16640
 Alpha  occ. eigenvalues --   -1.16588  -1.08657  -1.08584  -1.07175  -1.06968
 Alpha  occ. eigenvalues --   -1.06942  -1.06597  -1.04538  -1.04496  -1.03718
 Alpha  occ. eigenvalues --   -1.03664  -1.03191  -1.03039  -1.02369  -1.02112
 Alpha  occ. eigenvalues --   -0.91987  -0.91929  -0.89494  -0.89477  -0.89152
 Alpha  occ. eigenvalues --   -0.89146  -0.88244  -0.88220  -0.87828  -0.87794
 Alpha  occ. eigenvalues --   -0.87684  -0.87630  -0.87232  -0.87121  -0.85000
 Alpha  occ. eigenvalues --   -0.84940  -0.83894  -0.83876  -0.82933  -0.82926
 Alpha  occ. eigenvalues --   -0.82653  -0.82606  -0.81595  -0.81542  -0.80554
 Alpha  occ. eigenvalues --   -0.80442  -0.78755  -0.78636  -0.77176  -0.77145
 Alpha  occ. eigenvalues --   -0.76898  -0.76892  -0.75881  -0.75839  -0.74856
 Alpha  occ. eigenvalues --   -0.74803  -0.72732  -0.72699  -0.71630  -0.71582
 Alpha  occ. eigenvalues --   -0.69864  -0.69756  -0.68831  -0.68827  -0.67602
 Alpha  occ. eigenvalues --   -0.67599  -0.67200  -0.67177  -0.65272  -0.65244
 Alpha  occ. eigenvalues --   -0.64811  -0.64770  -0.64653  -0.64578  -0.64227
 Alpha  occ. eigenvalues --   -0.64203  -0.62277  -0.62254  -0.60400  -0.60341
 Alpha  occ. eigenvalues --   -0.59797  -0.59762  -0.58993  -0.58945  -0.58461
 Alpha  occ. eigenvalues --   -0.58426  -0.57553  -0.57541  -0.57266  -0.57237
 Alpha  occ. eigenvalues --   -0.56267  -0.56204  -0.55935  -0.55885  -0.55478
 Alpha  occ. eigenvalues --   -0.55452  -0.55297  -0.55247  -0.54487  -0.54480
 Alpha  occ. eigenvalues --   -0.53913  -0.53853  -0.53256  -0.53228  -0.53180
 Alpha  occ. eigenvalues --   -0.53142  -0.52902  -0.52871  -0.52714  -0.52669
 Alpha  occ. eigenvalues --   -0.52399  -0.52394  -0.51884  -0.51872  -0.51659
 Alpha  occ. eigenvalues --   -0.51574  -0.51201  -0.51153  -0.50531  -0.50477
 Alpha  occ. eigenvalues --   -0.49989  -0.49981  -0.49877  -0.49868  -0.49489
 Alpha  occ. eigenvalues --   -0.49472  -0.49203  -0.49172  -0.49105  -0.49054
 Alpha  occ. eigenvalues --   -0.48558  -0.48550  -0.48420  -0.48403  -0.48376
 Alpha  occ. eigenvalues --   -0.48340  -0.47652  -0.47595  -0.47255  -0.47119
 Alpha  occ. eigenvalues --   -0.46754  -0.46709  -0.46554  -0.46513  -0.46316
 Alpha  occ. eigenvalues --   -0.46271  -0.46120  -0.46086  -0.45821  -0.45779
 Alpha  occ. eigenvalues --   -0.45210  -0.45160  -0.44535  -0.44514  -0.44476
 Alpha  occ. eigenvalues --   -0.44465  -0.44128  -0.44102  -0.44077  -0.44046
 Alpha  occ. eigenvalues --   -0.43977  -0.43940  -0.43552  -0.43451  -0.43386
 Alpha  occ. eigenvalues --   -0.43343  -0.42985  -0.42929  -0.42901  -0.42655
 Alpha  occ. eigenvalues --   -0.42611  -0.42553  -0.41966  -0.41963  -0.41669
 Alpha  occ. eigenvalues --   -0.41661  -0.41491  -0.41459  -0.41099  -0.40990
 Alpha  occ. eigenvalues --   -0.40827  -0.40781  -0.40723  -0.40699  -0.40529
 Alpha  occ. eigenvalues --   -0.40493  -0.40227  -0.40191  -0.39424  -0.39397
 Alpha  occ. eigenvalues --   -0.38427  -0.38351  -0.37705  -0.37653  -0.37278
 Alpha  occ. eigenvalues --   -0.37266  -0.37221  -0.37200  -0.36769  -0.36669
 Alpha  occ. eigenvalues --   -0.36217  -0.36149  -0.34254  -0.34243  -0.33859
 Alpha  occ. eigenvalues --   -0.33726  -0.33176  -0.33144  -0.31303  -0.31275
 Alpha  occ. eigenvalues --   -0.30993  -0.30973  -0.29986  -0.29955  -0.29407
 Alpha  occ. eigenvalues --   -0.29328  -0.29279  -0.29212  -0.24038  -0.24037
 Alpha  occ. eigenvalues --   -0.21117  -0.21085
 Alpha virt. eigenvalues --   -0.08792  -0.08732  -0.01707  -0.01684  -0.00030
 Alpha virt. eigenvalues --   -0.00016   0.02207   0.02243   0.03168   0.03231
 Alpha virt. eigenvalues --    0.04729   0.04761   0.05142   0.05168   0.06183

 Mulliken charges:
               1
     1  Mg   0.838827
     2  C   -0.002936
     3  C   -0.094100
     4  C   -0.045881
     5  C   -0.063963
     6  N   -0.256788
     7  C   -0.052470
     8  C   -0.014019
     9  C   -0.087019
    10  C    0.046340
    11  C    0.104828
    12  C    0.053467
    13  C   -0.071818
    14  H    0.036183
    15  N   -0.433139
    16  C    0.168410
    17  C   -0.177162
    18  C   -0.003995
    19  C    0.148710
    20  C    0.110183
    21  C    0.012286
    22  O   -0.249647
    23  C    0.062474
    24  N   -0.341147
    25  C    0.041252
    26  C   -0.028166
    27  C   -0.023962
    28  C    0.074841
    29  C    0.076184
    30  C    0.035121
    31  C   -0.004505
    32  N   -0.310482
    33  C    0.080433
    34  C   -0.169692
    35  C    0.008352
    36  C    0.083018
    37  C    0.127301
    38  C    0.046133
    39  O   -0.188427
    40  C   -0.005339
    41  C    0.212857
    42  O   -0.257043
    43  O   -0.304817
    44  C    0.157677
    45  H   -0.017637
    46  H   -0.016861
    47  H   -0.041487
    48  H    0.000917
    49  H   -0.004031
    50  H    0.025454
    51  H    0.016424
    52  H    0.016623
    53  H    0.011232
    54  H    0.044165
    55  H    0.017830
    56  H    0.017946
    57  H    0.005862
    58  H    0.026777
    59  H    0.039576
    60  H    0.037308
    61  H    0.035626
    62  H    0.031545
    63  H    0.016564
    64  H    0.009426
    65  H    0.023184
    66  H    0.012515
    67  H    0.004721
    68  H    0.006341
    69  H    0.004740
    70  H    0.008777
    71  H    0.018215
    72  H    0.029004
    73  H    0.047614
    74  H    0.009125
    75  H    0.045970
    76  H    0.035115
    77  H    0.042927
    78  H    0.046395
    79  H    0.053741
    80  Mg   0.837890
    81  C   -0.016819
    82  C   -0.087787
    83  C   -0.045533
    84  C   -0.064874
    85  N   -0.254540
    86  C   -0.049845
    87  C   -0.015123
    88  C   -0.090487
    89  C    0.045740
    90  C    0.114376
    91  C    0.062540
    92  C   -0.077927
    93  H    0.034964
    94  N   -0.423483
    95  C    0.162928
    96  C   -0.174637
    97  C   -0.007807
    98  C    0.152149
    99  C    0.099363
   100  C    0.015572
   101  O   -0.253192
   102  C    0.061205
   103  N   -0.350096
   104  C    0.037528
   105  C   -0.019833
   106  C   -0.034835
   107  C    0.088920
   108  C    0.073681
   109  C    0.034751
   110  C   -0.007699
   111  N   -0.324120
   112  C    0.078459
   113  C   -0.163080
   114  C    0.002243
   115  C    0.096227
   116  C    0.131471
   117  C    0.042405
   118  O   -0.187829
   119  C    0.000909
   120  C    0.211266
   121  O   -0.250961
   122  O   -0.305652
   123  C    0.152005
   124  H   -0.019676
   125  H   -0.015581
   126  H   -0.040416
   127  H   -0.000650
   128  H   -0.004315
   129  H    0.022447
   130  H    0.014407
   131  H    0.016272
   132  H    0.013932
   133  H    0.037714
   134  H    0.020768
   135  H    0.019594
   136  H    0.008761
   137  H    0.026118
   138  H    0.039817
   139  H    0.038229
   140  H    0.036383
   141  H    0.033925
   142  H    0.014424
   143  H    0.012403
   144  H    0.025127
   145  H    0.011604
   146  H    0.005657
   147  H    0.006261
   148  H    0.003689
   149  H    0.010928
   150  H    0.018049
   151  H    0.030101
   152  H    0.046080
   153  H    0.008556
   154  H    0.046912
   155  H    0.035004
   156  H    0.043920
   157  H    0.049486
   158  H    0.053637
 Sum of Mulliken charges =  -0.00000

 Dipole moment (field-independent basis, Debye):
    X=             -0.3270    Y=             -1.2171    Z=              7.4221  Tot=              7.5284
 Quadrupole moment (field-independent basis, Debye-Ang):
   XX=           -366.5244   YY=           -471.4785   ZZ=           -534.0784
   XY=             51.0207   XZ=              5.6004   YZ=             19.4533

 Normal termination of Gaussian 16 at Sun Sep 12 11:55:19 2021.
