 Gaussian 16, Revision A.03,
 Gaussian 16:  ES64L-G16RevA.03 25-Dec-2016

 -----------------------------------
 #p cam-b3lyp/Def2SVP td=(nstates=5)
 -----------------------------------

 --------------------------------
 TDDFT excited states in gaussian
 --------------------------------
 Symbolic Z-matrix:
 Charge =  0 Multiplicity = 1

                         Standard orientation:
 ---------------------------------------------------------------------
 Center     Atomic      Atomic             Coordinates (Angstroms)
 Number     Number       Type             X           Y           Z
 ---------------------------------------------------------------------
      1         12           0        7.797157   -0.965381    0.021496
      2          6           0        8.415349    2.487008   -0.693390
      3          6           0        8.795850   -0.327860    3.221378
      4          6           0        7.694547   -4.088799    0.560339
      5          6           0        7.947007   -1.550495   -3.410828
      6          7           0        8.492531    0.885652    1.016875
      7          6           0        8.627096    2.155304    0.646678
      8          6           0        8.941077    3.114875    1.833275
      9          6           0        9.583065    2.062800    2.844704
     10          6           0        8.890342    0.802725    2.356576
     11          6           0       11.089138    1.893325    2.672878
     12          6           0        7.648002    3.766681    2.428957
     13          6           0        7.887026    4.954569    3.365517
     14          1           0        6.938219    6.057733    3.353568
     15          7           0        7.714691   -1.970382    1.720326
     16          6           0        8.152903   -1.550772    2.931599
     17          6           0        7.868258   -2.655069    3.872974
     18          6           0        7.402662   -3.823832    3.075911
     19          6           0        7.613027   -3.343402    1.734154
     20          6           0        7.997650   -2.523078    5.359442
     21          6           0        6.864877   -5.165345    3.462254
     22          8           0        6.738717   -6.116593    2.617395
     23          6           0        6.568734   -5.367440    4.892113
     24          7           0        8.035021   -2.628667   -1.217268
     25          6           0        7.883323   -3.869908   -0.742618
     26          6           0        7.818786   -4.875334   -1.853875
     27          6           0        7.714033   -4.033150   -3.206468
     28          6           0        7.825168   -2.609481   -2.607229
     29          6           0        9.003977   -5.846176   -1.947682
     30          6           0        6.519092   -4.348955   -4.140707
     31          6           0        5.225388   -3.930946   -3.478367
     32          7           0        7.944431    0.251102   -1.770018
     33          6           0        8.014318   -0.203866   -3.094705
     34          6           0        8.213827    0.981498   -3.948622
     35          6           0        8.263050    2.048871   -3.054118
     36          6           0        8.130636    1.558339   -1.723653
     37          6           0        8.382242    0.972018   -5.361414
     38          6           0        8.421386    3.487036   -2.911051
     39          8           0        8.478287    4.435425   -3.695152
     40          6           0        8.648437    3.815229   -1.369440
     41          6           0        7.737734    4.957137   -1.008922
     42          8           0        6.498303    4.811618   -1.009331
     43          8           0        8.465172    5.960643   -0.494771
     44          6           0        7.618540    7.114134   -0.088781
     45          1           0        9.309418   -0.300138    4.184405
     46          1           0        7.552365   -5.163426    0.692242
     47          1           0        7.918313   -1.646446   -4.497761
     48          1           0        9.662552    3.899487    1.604626
     49          1           0        9.306765    2.271015    3.878158
     50          1           0       11.452836    2.428803    1.796004
     51          1           0       11.250181    0.821224    2.558164
     52          1           0       11.617477    2.180046    3.582508
     53          1           0        7.183486    3.070449    3.127203
     54          1           0        6.965437    4.066713    1.633085
     55          1           0        8.908103    5.328056    3.282950
     56          1           0        7.810613    4.599859    4.393399
     57          1           0        8.517089   -1.606557    5.636420
     58          1           0        8.659365   -3.321928    5.693628
     59          1           0        7.035186   -2.607617    5.864266
     60          1           0        7.477851   -5.211983    5.473394
     61          1           0        6.109602   -6.352488    4.967805
     62          1           0        5.862225   -4.603419    5.217790
     63          1           0        6.937459   -5.508176   -1.757964
     64          1           0        8.590392   -4.167672   -3.840954
     65          1           0        8.714447   -6.896317   -1.902069
     66          1           0        9.705829   -5.599094   -1.151664
     67          1           0        9.627552   -5.722081   -2.832652
     68          1           0        6.453930   -5.420953   -4.323791
     69          1           0        6.585654   -3.850747   -5.107976
     70          1           0        4.990781   -4.783866   -2.842506
     71          1           0        4.447504   -3.776295   -4.226826
     72          1           0        5.372027   -3.069313   -2.826774
     73          1           0        7.774049    1.790370   -5.746600
     74          1           0        8.078703    0.017133   -5.789973
     75          1           0        9.456148    1.141522   -5.437896
     76          1           0        9.699633    4.078592   -1.256532
     77          1           0        8.002100    7.992362   -0.608234
     78          1           0        7.619220    7.130538    1.001236
     79          1           0        6.586229    7.101685   -0.440231
     80         12           0       -7.966744    0.963484    0.205165
     81          6           0       -8.199751   -2.604433   -0.102595
     82          6           0       -7.113332    1.042858   -3.096344
     83          6           0       -7.315452    4.049650    0.549930
     84          6           0       -7.711165    0.510365    3.651188
     85          7           0       -7.722090   -0.639760   -1.298825
     86          6           0       -7.897064   -1.952562   -1.316222
     87          6           0       -7.817807   -2.593350   -2.727841
     88          6           0       -6.923807   -1.472308   -3.450951
     89          6           0       -7.297479   -0.268148   -2.588959
     90          6           0       -5.429652   -1.712974   -3.313321
     91          6           0       -9.227657   -2.727580   -3.403341
     92          6           0       -9.263360   -3.621314   -4.645001
     93          1           0      -10.455079   -4.430011   -4.886467
     94          7           0       -7.791203    2.398665   -1.154243
     95          6           0       -7.459389    2.252050   -2.454123
     96          6           0       -7.445790    3.609301   -3.021440
     97          6           0       -7.635267    4.583242   -1.912269
     98          6           0       -7.565656    3.696572   -0.768129
     99          6           0       -7.344857    3.874087   -4.495593
    100          6           0       -7.832086    6.068744   -1.885080
    101          8           0       -7.737514    6.740718   -0.797737
    102          6           0       -8.046273    6.725535   -3.182869
    103          7           0       -7.358784    2.102773    1.834509
    104          6           0       -7.197427    3.433239    1.726122
    105          6           0       -7.027517    4.074414    3.082739
    106          6           0       -7.351410    2.923914    4.145301
    107          6           0       -7.575372    1.741335    3.177451
    108          6           0       -5.646107    4.660757    3.373097
    109          6           0       -8.446595    3.230933    5.203126
    110          6           0       -9.796355    3.341746    4.531370
    111          7           0       -8.138443   -0.700913    1.572042
    112          6           0       -7.969432   -0.674447    2.973768
    113          6           0       -8.069755   -2.069012    3.450794
    114          6           0       -8.268801   -2.818577    2.281587
    115          6           0       -8.270785   -1.954555    1.153332
    116          6           0       -7.929548   -2.498632    4.800564
    117          6           0       -8.467062   -4.145467    1.744226
    118          8           0       -8.640246   -5.262490    2.230036
    119          6           0       -8.304829   -4.080333    0.164412
    120          6           0       -9.458214   -4.823479   -0.451987
    121          8           0      -10.621350   -4.401598   -0.326548
    122          8           0       -8.980106   -5.782576   -1.265575
    123          6           0      -10.086411   -6.540103   -1.909042
    124          1           0       -6.618329    1.161206   -4.060636
    125          1           0       -7.194257    5.119186    0.736688
    126          1           0       -7.740024    0.296773    4.721805
    127          1           0       -7.313492   -3.551531   -2.764085
    128          1           0       -7.239837   -1.317814   -4.479353
    129          1           0       -5.213745   -2.536654   -2.649198
    130          1           0       -5.018377   -0.792361   -2.920418
    131          1           0       -4.977187   -1.848326   -4.299867
    132          1           0       -9.500741   -1.765783   -3.856229
    133          1           0       -9.959179   -3.064180   -2.694683
    134          1           0       -8.358109   -4.233475   -4.738414
    135          1           0       -9.248351   -2.983554   -5.532159
    136          1           0       -7.050794    2.972491   -5.047016
    137          1           0       -6.507744    4.565717   -4.639651
    138          1           0       -8.250851    4.325570   -4.905452
    139          1           0       -7.196918    6.527524   -3.832367
    140          1           0       -8.255722    7.771387   -2.950064
    141          1           0       -8.921653    6.274227   -3.663129
    142          1           0       -7.731922    4.885994    3.217857
    143          1           0       -6.470115    2.670363    4.752653
    144          1           0       -5.674636    5.734527    3.638167
    145          1           0       -5.017921    4.499407    2.507140
    146          1           0       -5.087338    4.158142    4.160724
    147          1           0       -8.255397    4.196975    5.676785
    148          1           0       -8.503185    2.490186    5.993743
    149          1           0       -9.806867    4.373480    4.167346
    150          1           0      -10.596389    3.167928    5.248131
    151          1           0       -9.856130    2.683124    3.657131
    152          1           0       -8.712572   -3.223441    4.979523
    153          1           0       -7.995370   -1.661976    5.492978
    154          1           0       -6.923312   -2.924739    4.766093
    155          1           0       -7.345036   -4.534202   -0.085341
    156          1           0       -9.927179   -7.597548   -1.676347
    157          1           0      -10.065440   -6.250526   -2.976494
    158          1           0      -11.088165   -6.387511   -1.524771
 ---------------------------------------------------------------------

 SCF Done:  E(RCAM-B3LYP) =  -4069.81181620     A.U. after   19 cycles

 Excitation energies and oscillator strengths:

 Excited State   1:      Singlet-A      1.6703 eV  742.30 nm  f=0.0357  <S**2>=0.000
     309 -> 315        0.10292
     310 -> 316        0.13854
     311 -> 313        0.40787
     312 -> 314        0.55200
 This state for optimization and/or second-order correction.
 Total Energy, E(TD-HF/TD-DFT) =  -4069.75043513
 Copying the excited state density for this state as the 1-particle RhoCI density.

 Excited State   2:      Singlet-A      1.6853 eV  735.69 nm  f=0.7199  <S**2>=0.000
     309 -> 315        0.14230
     310 -> 316       -0.10466
     311 -> 313        0.55120
     312 -> 314       -0.40737

 Excited State   3:      Singlet-A      2.1860 eV  567.18 nm  f=0.0608  <S**2>=0.000
     309 -> 313        0.13548
     310 -> 314        0.62826
     312 -> 316       -0.26671

 Excited State   4:      Singlet-A      2.1932 eV  565.32 nm  f=0.1330  <S**2>=0.000
     309 -> 313        0.62632
     310 -> 314       -0.13445
     311 -> 315       -0.27232

 Excited State   5:      Singlet-A      2.7652 eV  448.37 nm  f=0.0000  <S**2>=0.000
     312 -> 313        0.70710

 The electronic state is 1-A.
 Alpha  occ. eigenvalues --  -46.87836 -46.87589 -19.26319 -19.26296 -19.19106
 Alpha  occ. eigenvalues --  -19.19059 -19.18836 -19.18634 -19.18211 -19.17988
 Alpha  occ. eigenvalues --  -14.42487 -14.42425 -14.41490 -14.41290 -14.39440
 Alpha  occ. eigenvalues --  -14.39279 -14.38627 -14.38530 -10.39118 -10.39034
 Alpha  occ. eigenvalues --  -10.35468 -10.35310 -10.34431 -10.34165 -10.31710
 Alpha  occ. eigenvalues --  -10.31708 -10.31444 -10.31238 -10.30947 -10.30942
 Alpha  occ. eigenvalues --  -10.30611 -10.30547 -10.30329 -10.30292 -10.30246
 Alpha  occ. eigenvalues --  -10.30070 -10.29964 -10.29830 -10.29669 -10.29362
 Alpha  occ. eigenvalues --  -10.29331 -10.29291 -10.28780 -10.28646 -10.28594
 Alpha  occ. eigenvalues --  -10.28563 -10.28401 -10.28331 -10.28148 -10.28061
 Alpha  occ. eigenvalues --  -10.27930 -10.27832 -10.27764 -10.27619 -10.27593
 Alpha  occ. eigenvalues --  -10.27550 -10.27505 -10.27493 -10.27464 -10.27441
 Alpha  occ. eigenvalues --  -10.27413 -10.27393 -10.27371 -10.27317 -10.27196
 Alpha  occ. eigenvalues --  -10.26986 -10.26734 -10.26627 -10.26416 -10.26325
 Alpha  occ. eigenvalues --  -10.26263 -10.26249 -10.26098 -10.26062 -10.25930
 Alpha  occ. eigenvalues --  -10.25899 -10.25869 -10.25805 -10.25473 -10.25332
 Alpha  occ. eigenvalues --  -10.24872 -10.24826 -10.24804 -10.24763 -10.24691
 Alpha  occ. eigenvalues --  -10.24619  -3.16579  -3.16339  -1.91460  -1.91221
 Alpha  occ. eigenvalues --   -1.91047  -1.90889  -1.90810  -1.90647  -1.16668
 Alpha  occ. eigenvalues --   -1.16589  -1.08669  -1.08596  -1.07236  -1.06890
 Alpha  occ. eigenvalues --   -1.06886  -1.06681  -1.04618  -1.04422  -1.03800
 Alpha  occ. eigenvalues --   -1.03592  -1.03273  -1.02969  -1.02450  -1.02041
 Alpha  occ. eigenvalues --   -0.92011  -0.91918  -0.89566  -0.89433  -0.89220
 Alpha  occ. eigenvalues --   -0.89076  -0.88332  -0.88160  -0.87915  -0.87731
 Alpha  occ. eigenvalues --   -0.87710  -0.87613  -0.87303  -0.87039  -0.85015
 Alpha  occ. eigenvalues --   -0.84928  -0.83985  -0.83819  -0.82994  -0.82854
 Alpha  occ. eigenvalues --   -0.82680  -0.82579  -0.81623  -0.81535  -0.80632
 Alpha  occ. eigenvalues --   -0.80375  -0.78831  -0.78561  -0.77258  -0.77075
 Alpha  occ. eigenvalues --   -0.76971  -0.76834  -0.75958  -0.75768  -0.74939
 Alpha  occ. eigenvalues --   -0.74739  -0.72815  -0.72631  -0.71709  -0.71510
 Alpha  occ. eigenvalues --   -0.69961  -0.69704  -0.68906  -0.68756  -0.67677
 Alpha  occ. eigenvalues --   -0.67533  -0.67249  -0.67129  -0.65322  -0.65202
 Alpha  occ. eigenvalues --   -0.64893  -0.64704  -0.64659  -0.64588  -0.64314
 Alpha  occ. eigenvalues --   -0.64143  -0.62336  -0.62219  -0.60475  -0.60265
 Alpha  occ. eigenvalues --   -0.59839  -0.59723  -0.59027  -0.58925  -0.58543
 Alpha  occ. eigenvalues --   -0.58359  -0.57624  -0.57492  -0.57348  -0.57170
 Alpha  occ. eigenvalues --   -0.56347  -0.56136  -0.56013  -0.55824  -0.55552
 Alpha  occ. eigenvalues --   -0.55384  -0.55381  -0.55189  -0.54566  -0.54431
 Alpha  occ. eigenvalues --   -0.53927  -0.53839  -0.53335  -0.53252  -0.53160
 Alpha  occ. eigenvalues --   -0.53071  -0.52953  -0.52836  -0.52782  -0.52585
 Alpha  occ. eigenvalues --   -0.52494  -0.52352  -0.51963  -0.51830  -0.51647
 Alpha  occ. eigenvalues --   -0.51586  -0.51237  -0.51138  -0.50595  -0.50392
 Alpha  occ. eigenvalues --   -0.50076  -0.49947  -0.49904  -0.49801  -0.49545
 Alpha  occ. eigenvalues --   -0.49412  -0.49250  -0.49130  -0.49130  -0.49035
 Alpha  occ. eigenvalues --   -0.48630  -0.48500  -0.48491  -0.48474  -0.48315
 Alpha  occ. eigenvalues --   -0.48262  -0.47729  -0.47523  -0.47331  -0.47045
 Alpha  occ. eigenvalues --   -0.46838  -0.46644  -0.46587  -0.46482  -0.46399
 Alpha  occ. eigenvalues --   -0.46204  -0.46202  -0.46024  -0.45864  -0.45763
 Alpha  occ. eigenvalues --   -0.45243  -0.45143  -0.44618  -0.44539  -0.44450
 Alpha  occ. eigenvalues --   -0.44405  -0.44186  -0.44121  -0.44057  -0.44052
 Alpha  occ. eigenvalues --   -0.44013  -0.43865  -0.43534  -0.43494  -0.43422
 Alpha  occ. eigenvalues --   -0.43317  -0.43066  -0.42870  -0.42838  -0.42739
 Alpha  occ. eigenvalues --   -0.42701  -0.42491  -0.42055  -0.41905  -0.41743
 Alpha  occ. eigenvalues --   -0.41602  -0.41567  -0.41391  -0.41177  -0.40917
 Alpha  occ. eigenvalues --   -0.40907  -0.40847  -0.40650  -0.40626  -0.40615
 Alpha  occ. eigenvalues --   -0.40432  -0.40262  -0.40157  -0.39497  -0.39373
 Alpha  occ. eigenvalues --   -0.38512  -0.38288  -0.37780  -0.37587  -0.37363
 Alpha  occ. eigenvalues --   -0.37298  -0.37202  -0.37128  -0.36753  -0.36715
 Alpha  occ. eigenvalues --   -0.36233  -0.36155  -0.34325  -0.34184  -0.33809
 Alpha  occ. eigenvalues --   -0.33804  -0.33225  -0.33106  -0.31367  -0.31194
 Alpha  occ. eigenvalues --   -0.31073  -0.30902  -0.30071  -0.29893  -0.29484
 Alpha  occ. eigenvalues --   -0.29362  -0.29253  -0.29143  -0.24119  -0.23965
 Alpha  occ. eigenvalues --   -0.21166  -0.21046
 Alpha virt. eigenvalues --   -0.08811  -0.08720  -0.01787  -0.01613  -0.00088
 Alpha virt. eigenvalues --    0.00049   0.02160   0.02272   0.03076   0.03292
 Alpha virt. eigenvalues --    0.04683   0.04802   0.05060   0.05223   0.06148

 Mulliken charges:
               1
     1  Mg   0.838669
     2  C   -0.002935
     3  C   -0.094041
     4  C   -0.045847
     5  C   -0.064089
     6  N   -0.256793
     7  C   -0.052511
     8  C   -0.013995
     9  C   -0.087034
    10  C    0.046372
    11  C    0.104788
    12  C    0.053457
    13  C   -0.071887
    14  H    0.036246
    15  N   -0.433204
    16  C    0.168475
    17  C   -0.177035
    18  C   -0.003880
    19  C    0.148735
    20  C    0.110146
    21  C    0.012395
    22  O   -0.249448
    23  C    0.062410
    24  N   -0.341126
    25  C    0.041221
    26  C   -0.028227
    27  C   -0.023911
    28  C    0.074754
    29  C    0.076132
    30  C    0.035177
    31  C   -0.004453
    32  N   -0.310420
    33  C    0.080279
    34  C   -0.169993
    35  C    0.008312
    36  C    0.082823
    37  C    0.127385
    38  C    0.045963
    39  O   -0.188601
    40  C   -0.005262
    41  C    0.212843
    42  O   -0.257225
    43  O   -0.304756
    44  C    0.157676
    45  H   -0.017449
    46  H   -0.016706
    47  H   -0.041735
    48  H    0.000977
    49  H   -0.003936
    50  H    0.025491
    51  H    0.016467
    52  H    0.016780
    53  H    0.011197
    54  H    0.044061
    55  H    0.017918
    56  H    0.018010
    57  H    0.005928
    58  H    0.027003
    59  H    0.039746
    60  H    0.037381
    61  H    0.036024
    62  H    0.031598
    63  H    0.016591
    64  H    0.009467
    65  H    0.023337
    66  H    0.012668
    67  H    0.004746
    68  H    0.006391
    69  H    0.004473
    70  H    0.008993
    71  H    0.017427
    72  H    0.029030
    73  H    0.047239
    74  H    0.008857
    75  H    0.046071
    76  H    0.035211
    77  H    0.042979
    78  H    0.046512
    79  H    0.053669
    80  Mg   0.837969
    81  C   -0.016815
    82  C   -0.087572
    83  C   -0.045298
    84  C   -0.064974
    85  N   -0.254574
    86  C   -0.049845
    87  C   -0.015117
    88  C   -0.090510
    89  C    0.045748
    90  C    0.114261
    91  C    0.062539
    92  C   -0.077820
    93  H    0.034655
    94  N   -0.423601
    95  C    0.162954
    96  C   -0.174156
    97  C   -0.007642
    98  C    0.152238
    99  C    0.099150
   100  C    0.015746
   101  O   -0.253171
   102  C    0.061161
   103  N   -0.350027
   104  C    0.037635
   105  C   -0.019891
   106  C   -0.034688
   107  C    0.088897
   108  C    0.073597
   109  C    0.034782
   110  C   -0.007625
   111  N   -0.324048
   112  C    0.078356
   113  C   -0.163339
   114  C    0.002172
   115  C    0.096105
   116  C    0.131512
   117  C    0.042267
   118  O   -0.188181
   119  C    0.000955
   120  C    0.211212
   121  O   -0.251118
   122  O   -0.305588
   123  C    0.152085
   124  H   -0.019194
   125  H   -0.015498
   126  H   -0.040827
   127  H   -0.000687
   128  H   -0.004341
   129  H    0.022449
   130  H    0.014988
   131  H    0.016422
   132  H    0.013900
   133  H    0.037562
   134  H    0.020784
   135  H    0.019622
   136  H    0.008930
   137  H    0.026903
   138  H    0.039711
   139  H    0.038735
   140  H    0.036362
   141  H    0.033717
   142  H    0.014274
   143  H    0.012145
   144  H    0.024994
   145  H    0.012339
   146  H    0.005396
   147  H    0.006034
   148  H    0.003380
   149  H    0.010924
   150  H    0.017705
   151  H    0.030232
   152  H    0.045797
   153  H    0.008232
   154  H    0.046750
   155  H    0.035091
   156  H    0.043800
   157  H    0.049499
   158  H    0.053471
 Sum of Mulliken charges =  -0.00000

 Dipole moment (field-independent basis, Debye):
    X=              4.1448    Y=              0.5037    Z=              0.3981  Tot=              4.1942
 Quadrupole moment (field-independent basis, Debye-Ang):
   XX=           -521.1424   YY=           -548.3982   ZZ=           -449.4395
   XY=            -23.2748   XZ=             68.4017   YZ=             44.2665

 Normal termination of Gaussian 16 at Sat Sep  4 12:54:41 2021.
