 Gaussian 16, Revision A.03,
 Gaussian 16:  ES64L-G16RevA.03 25-Dec-2016

 -----------------------------------
 #p cam-b3lyp/Def2SVP td=(nstates=5)
 -----------------------------------

 --------------------------------
 TDDFT excited states in gaussian
 --------------------------------
 Symbolic Z-matrix:
 Charge =  0 Multiplicity = 1

                         Standard orientation:
 ---------------------------------------------------------------------
 Center     Atomic      Atomic             Coordinates (Angstroms)
 Number     Number       Type             X           Y           Z
 ---------------------------------------------------------------------
      1         12           0       15.622035   -0.788015    0.225303
      2          6           0       15.876726    2.205053   -1.721204
      3          6           0       16.474762    1.086247    2.946161
      4          6           0       15.847844   -3.485688    1.877026
      5          6           0       15.910179   -2.573913   -2.753488
      6          7           0       16.089904    1.363356    0.456273
      7          6           0       16.093724    2.414511   -0.357502
      8          6           0       16.275285    3.771243    0.386601
      9          6           0       17.005442    3.241575    1.701258
     10          6           0       16.464771    1.822751    1.724484
     11          6           0       18.524430    3.186350    1.574261
     12          6           0       14.906195    4.451004    0.726081
     13          6           0       14.993941    5.918482    1.155224
     14          1           0       13.931293    6.829286    0.757023
     15          7           0       15.611951   -1.100597    2.175955
     16          6           0       15.975151   -0.219898    3.139148
     17          6           0       15.791617   -0.924738    4.426081
     18          6           0       15.473546   -2.348008    4.124045
     19          6           0       15.659918   -2.374640    2.695783
     20          6           0       15.873119   -0.242212    5.756970
     21          6           0       15.076454   -3.503625    4.987179
     22          8           0       15.073123   -4.706520    4.554043
     23          6           0       14.772626   -3.196919    6.396669
     24          7           0       16.066585   -2.753567   -0.319322
     25          6           0       16.040347   -3.741952    0.581450
     26          6           0       16.110017   -5.086094   -0.080643
     27          6           0       15.944116   -4.817030   -1.645837
     28          6           0       15.886552   -3.269782   -1.614508
     29          6           0       17.395529   -5.887762    0.165927
     30          6           0       14.811471   -5.582645   -2.374786
     31          6           0       13.465711   -5.094364   -1.887334
     32          7           0       15.675568   -0.307121   -1.890570
     33          6           0       15.823674   -1.206687   -2.956178
     34          6           0       15.911856   -0.404122   -4.189945
     35          6           0       15.825004    0.915869   -3.751851
     36          6           0       15.717449    0.937533   -2.331902
     37          6           0       16.111376   -0.913898   -5.503244
     38          6           0       15.822819    2.313948   -4.150885
     39          8           0       15.793506    2.907754   -5.229787
     40          6           0       15.978828    3.208610   -2.842807
     41          6           0       14.941632    4.296293   -2.909721
     42          8           0       13.725686    4.026406   -2.832239
     43          8           0       15.544130    5.491526   -2.815074
     44          6           0       14.568348    6.613620   -2.845230
     45          1           0       16.960935    1.521986    3.821208
     46          1           0       15.820495   -4.445172    2.397680
     47          1           0       15.916034   -3.065270   -3.728161
     48          1           0       16.912019    4.490579   -0.128712
     49          1           0       16.685445    3.783644    2.590912
     50          1           0       18.846963    3.398215    0.554944
     51          1           0       18.803589    2.171644    1.858750
     52          1           0       18.998293    3.843265    2.304119
     53          1           0       14.504880    4.013997    1.640429
     54          1           0       14.212745    4.360955   -0.110785
     55          1           0       15.969917    6.344556    0.921044
     56          1           0       14.933934    5.960453    2.242807
     57          1           0       16.283585    0.762778    5.667194
     58          1           0       16.610259   -0.784852    6.348472
     59          1           0       14.914673   -0.239788    6.276303
     60          1           0       15.646424   -2.740367    6.862058
     61          1           0       14.421780   -4.128950    6.838342
     62          1           0       13.980224   -2.448738    6.432333
     63          1           0       15.300837   -5.731523    0.258586
     64          1           0       16.843667   -5.078835   -2.203458
     65          1           0       17.220980   -6.872448    0.600246
     66          1           0       18.048648   -5.290277    0.801331
     67          1           0       18.021250   -6.030421   -0.714720
     68          1           0       14.867317   -6.647095   -2.149457
     69          1           0       14.844747   -5.470881   -3.458600
     70          1           0       13.311299   -5.673907   -0.977874
     71          1           0       12.692297   -5.311654   -2.624780
     72          1           0       13.503397   -4.043049   -1.601321
     73          1           0       15.426430   -0.366152   -6.150385
     74          1           0       15.922989   -1.986469   -5.544525
     75          1           0       17.161904   -0.668203   -5.657783
     76          1           0       16.992408    3.608135   -2.855342
     77          1           0       14.865478    7.275598   -3.658700
     78          1           0       14.543234    7.029587   -1.837884
     79          1           0       13.551505    6.360184   -3.147122
     80         12           0      -16.125726   -0.516129   -0.226470
     81          6           0      -13.793659    1.850895    1.129161
     82          6           0      -18.579588    1.769154    0.398525
     83          6           0      -18.254808   -2.740228   -0.993198
     84          6           0      -13.723020   -2.982316    0.312627
     85          7           0      -16.069065    1.512810    0.652421
     86          6           0      -15.118158    2.332681    1.074238
     87          6           0      -15.602592    3.774734    1.383042
     88          6           0      -17.150066    3.452918    1.667051
     89          6           0      -17.293971    2.184811    0.828073
     90          6           0      -17.435166    3.100853    3.117606
     91          6           0      -15.431986    4.738144    0.156358
     92          6           0      -15.594146    6.225180    0.479107
     93          1           0      -14.764964    7.188050   -0.240498
     94          7           0      -18.033356   -0.343140   -0.745700
     95          6           0      -18.876181    0.660853   -0.424905
     96          6           0      -20.170128    0.308664   -1.029723
     97          6           0      -20.065930   -1.064440   -1.594018
     98          6           0      -18.758521   -1.452369   -1.103835
     99          6           0      -21.322156    1.268300   -1.103062
    100          6           0      -20.995249   -1.896160   -2.425166
    101          8           0      -20.800203   -3.150543   -2.602181
    102          6           0      -22.190635   -1.218901   -2.948475
    103          7           0      -16.091728   -2.592729   -0.131997
    104          6           0      -17.129572   -3.322143   -0.577831
    105          6           0      -16.769845   -4.786170   -0.665107
    106          6           0      -15.192008   -4.856590   -0.414002
    107          6           0      -14.915115   -3.365091   -0.123894
    108          6           0      -17.483960   -5.706780    0.324290
    109          6           0      -14.338019   -5.569710   -1.497896
    110          6           0      -14.354451   -4.766817   -2.778707
    111          7           0      -14.057782   -0.562952    0.397598
    112          6           0      -13.248172   -1.705115    0.582210
    113          6           0      -11.954713   -1.239153    1.122831
    114          6           0      -12.110955    0.150403    1.237790
    115          6           0      -13.417089    0.521758    0.818756
    116          6           0      -10.855343   -2.069255    1.481217
    117          6           0      -11.471601    1.386274    1.628353
    118          8           0      -10.336449    1.703292    1.981441
    119          6           0      -12.575912    2.527541    1.694699
    120          6           0      -12.043044    3.732264    0.968596
    121          8           0      -11.834296    3.690581   -0.256679
    122          8           0      -12.073827    4.793901    1.794637
    123          6           0      -11.565193    6.015737    1.116232
    124          1           0      -19.449815    2.318075    0.759476
    125          1           0      -18.912442   -3.536044   -1.350505
    126          1           0      -12.887749   -3.678376    0.415144
    127          1           0      -15.150685    4.228373    2.256978
    128          1           0      -17.794100    4.239558    1.282637
    129          1           0      -16.527743    3.009613    3.695887
    130          1           0      -17.964436    2.157285    3.092743
    131          1           0      -18.130471    3.825070    3.551638
    132          1           0      -16.279538    4.600766   -0.527406
    133          1           0      -14.489297    4.574323   -0.328543
    134          1           0      -15.559580    6.418946    1.558085
    135          1           0      -16.598627    6.537050    0.182833
    136          1           0      -21.159969    2.141459   -0.459091
    137          1           0      -22.188056    0.762689   -0.662125
    138          1           0      -21.565424    1.556832   -2.127878
    139          1           0      -22.772073   -0.821161   -2.120112
    140          1           0      -22.683994   -1.951323   -3.590380
    141          1           0      -21.871286   -0.360322   -3.549700
    142          1           0      -16.986746   -5.179605   -1.650639
    143          1           0      -14.950226   -5.406148    0.507609
    144          1           0      -18.041026   -6.526977   -0.166664
    145          1           0      -18.148195   -5.105982    0.931216
    146          1           0      -16.841401   -6.168053    1.072313
    147          1           0      -14.768084   -6.545282   -1.737604
    148          1           0      -13.309247   -5.736542   -1.196567
    149          1           0      -15.287968   -5.081103   -3.255015
    150          1           0      -13.493469   -5.013626   -3.396625
    151          1           0      -14.436061   -3.693850   -2.569569
    152          1           0       -9.964044   -1.585330    1.104535
    153          1           0      -10.965749   -3.072570    1.075077
    154          1           0      -10.947147   -2.054975    2.570544
    155          1           0      -12.768451    2.736264    2.747761
    156          1           0      -10.750792    6.408092    1.733069
    157          1           0      -12.447662    6.667316    0.973207
    158          1           0      -11.065986    5.888594    0.162777
 ---------------------------------------------------------------------

 SCF Done:  E(RCAM-B3LYP) =  -4069.81175065     A.U. after   19 cycles

 Excitation energies and oscillator strengths:

 Excited State   1:      Singlet-A      1.6756 eV  739.95 nm  f=0.3827  <S**2>=0.000
     309 -> 315        0.17332
     311 -> 313        0.68490
     309 <- 315        0.10446
 This state for optimization and/or second-order correction.
 Total Energy, E(TD-HF/TD-DFT) =  -4069.75017409
 Copying the excited state density for this state as the 1-particle RhoCI density.

 Excited State   2:      Singlet-A      1.6799 eV  738.05 nm  f=0.3990  <S**2>=0.000
     310 -> 316        0.17526
     312 -> 314        0.68455
     310 <- 316        0.10495

 Excited State   3:      Singlet-A      2.1861 eV  567.15 nm  f=0.0946  <S**2>=0.000
     309 -> 313        0.64203
     311 -> 315       -0.27293

 Excited State   4:      Singlet-A      2.1925 eV  565.49 nm  f=0.1054  <S**2>=0.000
     310 -> 314        0.64026
     312 -> 316       -0.27810

 Excited State   5:      Singlet-A      3.0450 eV  407.17 nm  f=0.0000  <S**2>=0.000
     312 -> 313        0.70709

 The electronic state is 1-A.
 Alpha  occ. eigenvalues --  -46.87722 -46.87660 -19.26346 -19.26207 -19.19157
 Alpha  occ. eigenvalues --  -19.18942 -19.18742 -19.18714 -19.18096 -19.18050
 Alpha  occ. eigenvalues --  -14.42498 -14.42377 -14.41377 -14.41359 -14.39352
 Alpha  occ. eigenvalues --  -14.39329 -14.38599 -14.38513 -10.39087 -10.39002
 Alpha  occ. eigenvalues --  -10.35391 -10.35375 -10.34316 -10.34227 -10.31752
 Alpha  occ. eigenvalues --  -10.31602 -10.31332 -10.31309 -10.31024 -10.30835
 Alpha  occ. eigenvalues --  -10.30496 -10.30434 -10.30397 -10.30360 -10.30141
 Alpha  occ. eigenvalues --  -10.30134 -10.29895 -10.29848 -10.29557 -10.29437
 Alpha  occ. eigenvalues --  -10.29400 -10.29181 -10.28720 -10.28675 -10.28653
 Alpha  occ. eigenvalues --  -10.28460 -10.28405 -10.28291 -10.28142 -10.28044
 Alpha  occ. eigenvalues --  -10.28001 -10.27720 -10.27670 -10.27654 -10.27518
 Alpha  occ. eigenvalues --  -10.27511 -10.27484 -10.27468 -10.27465 -10.27430
 Alpha  occ. eigenvalues --  -10.27408 -10.27379 -10.27376 -10.27330 -10.27084
 Alpha  occ. eigenvalues --  -10.27049 -10.26692 -10.26626 -10.26415 -10.26336
 Alpha  occ. eigenvalues --  -10.26166 -10.26135 -10.26111 -10.26029 -10.25946
 Alpha  occ. eigenvalues --  -10.25934 -10.25849 -10.25773 -10.25400 -10.25369
 Alpha  occ. eigenvalues --  -10.24872 -10.24760 -10.24726 -10.24715 -10.24690
 Alpha  occ. eigenvalues --  -10.24610  -3.16465  -3.16410  -1.91347  -1.91293
 Alpha  occ. eigenvalues --   -1.90933  -1.90881  -1.90776  -1.90718  -1.16640
 Alpha  occ. eigenvalues --   -1.16556  -1.08656  -1.08554  -1.07143  -1.06966
 Alpha  occ. eigenvalues --   -1.06941  -1.06564  -1.04507  -1.04495  -1.03687
 Alpha  occ. eigenvalues --   -1.03663  -1.03160  -1.03039  -1.02338  -1.02111
 Alpha  occ. eigenvalues --   -0.91987  -0.91899  -0.89494  -0.89447  -0.89152
 Alpha  occ. eigenvalues --   -0.89114  -0.88220  -0.88215  -0.87798  -0.87793
 Alpha  occ. eigenvalues --   -0.87684  -0.87600  -0.87200  -0.87120  -0.85000
 Alpha  occ. eigenvalues --   -0.84908  -0.83875  -0.83864  -0.82931  -0.82894
 Alpha  occ. eigenvalues --   -0.82652  -0.82575  -0.81595  -0.81511  -0.80522
 Alpha  occ. eigenvalues --   -0.80442  -0.78724  -0.78635  -0.77145  -0.77144
 Alpha  occ. eigenvalues --   -0.76898  -0.76860  -0.75850  -0.75839  -0.74827
 Alpha  occ. eigenvalues --   -0.74803  -0.72701  -0.72699  -0.71600  -0.71581
 Alpha  occ. eigenvalues --   -0.69834  -0.69756  -0.68827  -0.68799  -0.67601
 Alpha  occ. eigenvalues --   -0.67568  -0.67199  -0.67144  -0.65272  -0.65212
 Alpha  occ. eigenvalues --   -0.64780  -0.64770  -0.64653  -0.64547  -0.64203
 Alpha  occ. eigenvalues --   -0.64197  -0.62277  -0.62223  -0.60369  -0.60340
 Alpha  occ. eigenvalues --   -0.59797  -0.59731  -0.58993  -0.58914  -0.58430
 Alpha  occ. eigenvalues --   -0.58425  -0.57553  -0.57510  -0.57236  -0.57236
 Alpha  occ. eigenvalues --   -0.56237  -0.56204  -0.55903  -0.55885  -0.55451
 Alpha  occ. eigenvalues --   -0.55447  -0.55266  -0.55247  -0.54486  -0.54449
 Alpha  occ. eigenvalues --   -0.53913  -0.53821  -0.53227  -0.53226  -0.53148
 Alpha  occ. eigenvalues --   -0.53141  -0.52901  -0.52840  -0.52682  -0.52668
 Alpha  occ. eigenvalues --   -0.52399  -0.52364  -0.51884  -0.51843  -0.51658
 Alpha  occ. eigenvalues --   -0.51542  -0.51200  -0.51122  -0.50499  -0.50475
 Alpha  occ. eigenvalues --   -0.49980  -0.49959  -0.49867  -0.49845  -0.49488
 Alpha  occ. eigenvalues --   -0.49441  -0.49202  -0.49141  -0.49105  -0.49023
 Alpha  occ. eigenvalues --   -0.48558  -0.48520  -0.48390  -0.48376  -0.48372
 Alpha  occ. eigenvalues --   -0.48338  -0.47621  -0.47594  -0.47224  -0.47118
 Alpha  occ. eigenvalues --   -0.46724  -0.46709  -0.46554  -0.46481  -0.46286
 Alpha  occ. eigenvalues --   -0.46270  -0.46090  -0.46085  -0.45821  -0.45749
 Alpha  occ. eigenvalues --   -0.45209  -0.45130  -0.44513  -0.44504  -0.44476
 Alpha  occ. eigenvalues --   -0.44433  -0.44127  -0.44077  -0.44071  -0.44015
 Alpha  occ. eigenvalues --   -0.43946  -0.43938  -0.43551  -0.43420  -0.43386
 Alpha  occ. eigenvalues --   -0.43313  -0.42954  -0.42929  -0.42900  -0.42624
 Alpha  occ. eigenvalues --   -0.42580  -0.42553  -0.41963  -0.41936  -0.41669
 Alpha  occ. eigenvalues --   -0.41631  -0.41459  -0.41458  -0.41069  -0.40990
 Alpha  occ. eigenvalues --   -0.40795  -0.40749  -0.40722  -0.40698  -0.40499
 Alpha  occ. eigenvalues --   -0.40493  -0.40226  -0.40158  -0.39424  -0.39367
 Alpha  occ. eigenvalues --   -0.38397  -0.38350  -0.37672  -0.37653  -0.37266
 Alpha  occ. eigenvalues --   -0.37248  -0.37199  -0.37189  -0.36768  -0.36638
 Alpha  occ. eigenvalues --   -0.36216  -0.36118  -0.34253  -0.34213  -0.33859
 Alpha  occ. eigenvalues --   -0.33693  -0.33175  -0.33113  -0.31273  -0.31271
 Alpha  occ. eigenvalues --   -0.30973  -0.30962  -0.29956  -0.29954  -0.29376
 Alpha  occ. eigenvalues --   -0.29327  -0.29248  -0.29211  -0.24036  -0.24007
 Alpha  occ. eigenvalues --   -0.21117  -0.21054
 Alpha virt. eigenvalues --   -0.08792  -0.08701  -0.01684  -0.01676  -0.00029
 Alpha virt. eigenvalues --    0.00016   0.02208   0.02273   0.03201   0.03230
 Alpha virt. eigenvalues --    0.04729   0.04792   0.05168   0.05175   0.06182

 Mulliken charges:
               1
     1  Mg   0.838790
     2  C   -0.002929
     3  C   -0.094070
     4  C   -0.045868
     5  C   -0.063980
     6  N   -0.256763
     7  C   -0.052463
     8  C   -0.014013
     9  C   -0.086989
    10  C    0.046321
    11  C    0.104829
    12  C    0.053454
    13  C   -0.071834
    14  H    0.036258
    15  N   -0.433114
    16  C    0.168444
    17  C   -0.177158
    18  C   -0.003997
    19  C    0.148743
    20  C    0.110199
    21  C    0.012327
    22  O   -0.249657
    23  C    0.062449
    24  N   -0.341129
    25  C    0.041229
    26  C   -0.028147
    27  C   -0.023985
    28  C    0.074873
    29  C    0.076203
    30  C    0.035134
    31  C   -0.004508
    32  N   -0.310460
    33  C    0.080421
    34  C   -0.169702
    35  C    0.008352
    36  C    0.083015
    37  C    0.127301
    38  C    0.046135
    39  O   -0.188464
    40  C   -0.005355
    41  C    0.212870
    42  O   -0.256972
    43  O   -0.304856
    44  C    0.157673
    45  H   -0.017654
    46  H   -0.016872
    47  H   -0.041528
    48  H    0.000883
    49  H   -0.004015
    50  H    0.025428
    51  H    0.016403
    52  H    0.016595
    53  H    0.011284
    54  H    0.044210
    55  H    0.017772
    56  H    0.017955
    57  H    0.005855
    58  H    0.026744
    59  H    0.039641
    60  H    0.037278
    61  H    0.035642
    62  H    0.031620
    63  H    0.016582
    64  H    0.009378
    65  H    0.023165
    66  H    0.012500
    67  H    0.004678
    68  H    0.006300
    69  H    0.004702
    70  H    0.008796
    71  H    0.018216
    72  H    0.029056
    73  H    0.047606
    74  H    0.009101
    75  H    0.045919
    76  H    0.035072
    77  H    0.042882
    78  H    0.046401
    79  H    0.053798
    80  Mg   0.837863
    81  C   -0.016795
    82  C   -0.087794
    83  C   -0.045518
    84  C   -0.064897
    85  N   -0.254563
    86  C   -0.049857
    87  C   -0.015088
    88  C   -0.090489
    89  C    0.045742
    90  C    0.114375
    91  C    0.062520
    92  C   -0.077914
    93  H    0.034969
    94  N   -0.423496
    95  C    0.162938
    96  C   -0.174642
    97  C   -0.007800
    98  C    0.152130
    99  C    0.099378
   100  C    0.015583
   101  O   -0.253184
   102  C    0.061181
   103  N   -0.350066
   104  C    0.037517
   105  C   -0.019818
   106  C   -0.034834
   107  C    0.088937
   108  C    0.073662
   109  C    0.034731
   110  C   -0.007693
   111  N   -0.324113
   112  C    0.078482
   113  C   -0.163102
   114  C    0.002254
   115  C    0.096203
   116  C    0.131475
   117  C    0.042409
   118  O   -0.187819
   119  C    0.000903
   120  C    0.211277
   121  O   -0.250945
   122  O   -0.305669
   123  C    0.152004
   124  H   -0.019676
   125  H   -0.015571
   126  H   -0.040420
   127  H   -0.000672
   128  H   -0.004317
   129  H    0.022435
   130  H    0.014410
   131  H    0.016261
   132  H    0.013938
   133  H    0.037723
   134  H    0.020747
   135  H    0.019592
   136  H    0.008755
   137  H    0.026123
   138  H    0.039823
   139  H    0.038237
   140  H    0.036416
   141  H    0.033928
   142  H    0.014429
   143  H    0.012400
   144  H    0.025149
   145  H    0.011606
   146  H    0.005652
   147  H    0.006267
   148  H    0.003687
   149  H    0.010935
   150  H    0.018017
   151  H    0.030105
   152  H    0.046110
   153  H    0.008554
   154  H    0.046895
   155  H    0.034976
   156  H    0.043909
   157  H    0.049474
   158  H    0.053670
 Sum of Mulliken charges =  -0.00000

 Dipole moment (field-independent basis, Debye):
    X=             -2.0948    Y=              2.2404    Z=              5.2341  Tot=              6.0666
 Quadrupole moment (field-independent basis, Debye-Ang):
   XX=           -339.7425   YY=           -470.5339   ZZ=           -517.9233
   XY=            -36.5067   XZ=             38.1286   YZ=             34.0341

 Normal termination of Gaussian 16 at Sun Sep 12 15:42:00 2021.
