 Gaussian 16, Revision A.03,
 Gaussian 16:  ES64L-G16RevA.03 25-Dec-2016

 -----------------------------------
 #p cam-b3lyp/Def2SVP td=(nstates=5)
 -----------------------------------

 --------------------------------
 TDDFT excited states in gaussian
 --------------------------------
 Symbolic Z-matrix:
 Charge =  0 Multiplicity = 1

                         Standard orientation:
 ---------------------------------------------------------------------
 Center     Atomic      Atomic             Coordinates (Angstroms)
 Number     Number       Type             X           Y           Z
 ---------------------------------------------------------------------
      1         12           0        6.482958    0.781901    0.473229
      2          6           0        7.086802   -2.263206   -1.308598
      3          6           0        7.174347    2.441640   -2.426825
      4          6           0        6.401095    3.485610    2.128487
      5          6           0        6.954969   -1.020652    3.418339
      6          7           0        7.044588    0.068589   -1.545781
      7          6           0        7.183965   -1.125581   -2.112969
      8          6           0        7.368269   -1.057732   -3.658545
      9          6           0        7.939386    0.425946   -3.779060
     10          6           0        7.321550    1.026362   -2.528579
     11          6           0        9.458194    0.505430   -3.663278
     12          6           0        6.012620   -1.213898   -4.426372
     13          6           0        6.139826   -1.485302   -5.928208
     14          1           0        5.171851   -2.365389   -6.565248
     15          7           0        6.269654    2.649766   -0.133758
     16          6           0        6.587344    3.146195   -1.353560
     17          6           0        6.243316    4.583726   -1.310780
     18          6           0        5.877502    4.922478    0.092617
     19          6           0        6.197493    3.689653    0.765763
     20          6           0        6.235026    5.464210   -2.522567
     21          6           0        5.336779    6.164182    0.728166
     22          8           0        5.308445    6.322113    1.996562
     23          6           0        4.917283    7.241253   -0.186702
     24          7           0        6.868355    1.233988    2.474409
     25          6           0        6.701861    2.474481    2.946047
     26          6           0        6.760132    2.501252    4.444655
     27          6           0        6.759360    0.975120    4.914415
     28          6           0        6.784481    0.299355    3.521225
     29          6           0        7.970094    3.222348    5.054592
     30          6           0        5.660914    0.549708    5.920824
     31          6           0        4.303781    0.613482    5.256579
     32          7           0        6.764488   -1.303398    1.005501
     33          6           0        6.963718   -1.825806    2.291608
     34          6           0        7.213292   -3.270761    2.137058
     35          6           0        7.157976   -3.486986    0.761546
     36          6           0        6.916842   -2.250616    0.097064
     37          6           0        7.508743   -4.182587    3.188589
     38          6           0        7.270960   -4.470712   -0.303054
     39          8           0        7.377472   -5.697328   -0.342582
     40          6           0        7.350596   -3.697828   -1.693067
     41          6           0        6.386077   -4.361323   -2.637939
     42          8           0        5.155260   -4.304839   -2.439782
     43          8           0        7.041791   -4.749761   -3.742338
     44          6           0        6.136704   -5.389441   -4.734196
     45          1           0        7.598131    3.074005   -3.209424
     46          1           0        6.271344    4.376203    2.746911
     47          1           0        7.026652   -1.662087    4.298609
     48          1           0        8.089943   -1.768343   -4.061833
     49          1           0        7.566378    0.934650   -4.667771
     50          1           0        9.887666   -0.457588   -3.387467
     51          1           0        9.652565    1.245401   -2.886648
     52          1           0        9.895788    0.908153   -4.577117
     53          1           0        5.502443   -0.251092   -4.454392
     54          1           0        5.398242   -1.991009   -3.970340
     55          1           0        7.155692   -1.777384   -6.195813
     56          1           0        5.978770   -0.547301   -6.459637
     57          1           0        6.706976    4.976985   -3.374870
     58          1           0        6.881340    6.313843   -2.303226
     59          1           0        5.233016    5.817764   -2.766097
     60          1           0        5.766551    7.543959   -0.799614
     61          1           0        4.475051    8.013915    0.441210
     62          1           0        4.167561    6.848543   -0.874194
     63          1           0        5.887931    3.003591    4.861006
     64          1           0        7.692181    0.698044    5.406094
     65          1           0        7.700883    4.031616    5.733794
     66          1           0        8.591584    3.587892    4.237634
     67          1           0        8.668131    2.575283    5.585127
     68          1           0        5.636230    1.235116    6.767318
     69          1           0        5.803519   -0.457166    6.313403
     70          1           0        4.031609    1.663347    5.359232
     71          1           0        3.593426   -0.027013    5.780386
     72          1           0        4.371933    0.397292    4.190229
     73          1           0        6.919893   -5.078071    2.990261
     74          1           0        7.266292   -3.756584    4.161904
     75          1           0        8.581164   -4.314634    3.045993
     76          1           0        8.381234   -3.777452   -2.037405
     77          1           0        6.546115   -6.375709   -4.953034
     78          1           0        6.038605   -4.687208   -5.562236
     79          1           0        5.140867   -5.654561   -4.377320
     80         12           0       -6.648442   -0.881753    0.386108
     81          6           0       -6.788563    1.972897   -1.784247
     82          6           0       -6.057798    1.285723    2.952771
     83          6           0       -6.072978   -3.390834    2.241044
     84          6           0       -6.110646   -2.836550   -2.448548
     85          7           0       -6.469659    1.321918    0.450387
     86          6           0       -6.602676    2.305831   -0.426300
     87          6           0       -6.612804    3.726856    0.198332
     88          6           0       -5.814769    3.399774    1.552962
     89          6           0       -6.159128    1.917906    1.687793
     90          6           0       -4.307399    3.528701    1.409518
     91          6           0       -8.065878    4.238193    0.496881
     92          6           0       -8.169091    5.730888    0.817737
     93          1           0       -9.349063    6.460745    0.362275
     94          7           0       -6.626069   -1.038133    2.364389
     95          6           0       -6.391917   -0.052471    3.255974
     96          6           0       -6.466688   -0.683854    4.582595
     97          6           0       -6.600764   -2.154134    4.395444
     98          6           0       -6.413462   -2.255572    2.962015
     99          6           0       -6.489531    0.105426    5.859278
    100          6           0       -6.843077   -3.283496    5.350455
    101          8           0       -6.686003   -4.506533    5.000684
    102          6           0       -7.178934   -2.912463    6.732847
    103          7           0       -5.952806   -2.799954   -0.012572
    104          6           0       -5.843721   -3.713483    0.967991
    105          6           0       -5.589610   -5.091147    0.404225
    106          6           0       -5.792174   -4.952743   -1.176093
    107          6           0       -6.052267   -3.432966   -1.265732
    108          6           0       -4.209578   -5.682834    0.690257
    109          6           0       -6.811053   -5.917562   -1.842200
    110          6           0       -8.211910   -5.589453   -1.378184
    111          7           0       -6.658951   -0.559624   -1.750290
    112          6           0       -6.382231   -1.509841   -2.757554
    113          6           0       -6.399692   -0.792866   -4.049087
    114          6           0       -6.664718    0.539624   -3.698772
    115          6           0       -6.782663    0.649212   -2.286823
    116          6           0       -6.140893   -1.369747   -5.324374
    117          6           0       -6.860975    1.880307   -4.201517
    118          8           0       -6.959389    2.382813   -5.320239
    119          6           0       -6.824477    2.890401   -2.974839
    120          6           0       -7.997593    3.822703   -3.105780
    121          8           0       -9.160531    3.392565   -3.009971
    122          8           0       -7.553363    5.092750   -3.104693
    123          6           0       -8.681212    6.055126   -3.221426
    124          1           0       -5.643497    1.854799    3.785474
    125          1           0       -5.972453   -4.308174    2.825723
    126          1           0       -6.049076   -3.392685   -3.386417
    127          1           0       -6.081953    4.478309   -0.373748
    128          1           0       -6.214799    3.962126    2.392659
    129          1           0       -4.013752    3.704723    0.385350
    130          1           0       -3.896927    2.592758    1.765275
    131          1           0       -3.928978    4.300294    2.086111
    132          1           0       -8.404527    3.816830    1.452135
    133          1           0       -8.728654    3.995539   -0.310871
    134          1           0       -7.254440    6.274100    0.550745
    135          1           0       -8.243973    5.848504    1.901514
    136          1           0       -6.210138    1.152628    5.689838
    137          1           0       -5.689115   -0.289954    6.494009
    138          1           0       -7.438898    0.017578    6.391860
    139          1           0       -6.376746   -2.308064    7.149585
    140          1           0       -7.403501   -3.852107    7.241274
    141          1           0       -8.073918   -2.280479    6.717862
    142          1           0       -6.307368   -5.805028    0.789326
    143          1           0       -4.858486   -5.144672   -1.724920
    144          1           0       -4.252275   -6.659754    1.207827
    145          1           0       -3.645834   -4.967467    1.274194
    146          1           0       -3.575116   -5.818648   -0.183925
    147          1           0       -6.615064   -6.947342   -1.533503
    148          1           0       -6.781780   -5.895272   -2.926466
    149          1           0       -8.284290   -6.114833   -0.421201
    150          1           0       -8.947628   -5.960587   -2.088836
    151          1           0       -8.318147   -4.517568   -1.174624
    152          1           0       -6.883613   -0.971449   -6.002779
    153          1           0       -6.179757   -2.456328   -5.284509
    154          1           0       -5.127065   -1.001545   -5.502883
    155          1           0       -5.872805    3.421611   -3.016078
    156          1           0       -8.470029    6.691417   -4.086426
    157          1           0       -8.752855    6.552368   -2.235853
    158          1           0       -9.654416    5.657243   -3.484117
 ---------------------------------------------------------------------

 SCF Done:  E(RCAM-B3LYP) =  -4069.81189888     A.U. after   19 cycles

 Excitation energies and oscillator strengths:

 Excited State   1:      Singlet-A      1.6719 eV  741.57 nm  f=0.2335  <S**2>=0.000
     310 -> 316        0.14868
     311 -> 313        0.35062
     312 -> 314        0.58990
 This state for optimization and/or second-order correction.
 Total Energy, E(TD-HF/TD-DFT) =  -4069.75045701
 Copying the excited state density for this state as the 1-particle RhoCI density.

 Excited State   2:      Singlet-A      1.6819 eV  737.16 nm  f=0.5003  <S**2>=0.000
     309 -> 315        0.15121
     311 -> 313        0.58925
     312 -> 314       -0.35026

 Excited State   3:      Singlet-A      2.1852 eV  567.37 nm  f=0.0864  <S**2>=0.000
     309 -> 313        0.11915
     310 -> 314        0.63169
     312 -> 316       -0.26769

 Excited State   4:      Singlet-A      2.1926 eV  565.46 nm  f=0.1105  <S**2>=0.000
     309 -> 313        0.62952
     310 -> 314       -0.11835
     311 -> 315       -0.27344

 Excited State   5:      Singlet-A      2.6505 eV  467.78 nm  f=0.0000  <S**2>=0.000
     312 -> 313        0.70710

 The electronic state is 1-A.
 Alpha  occ. eigenvalues --  -46.87855 -46.87556 -19.26324 -19.26316 -19.19116
 Alpha  occ. eigenvalues --  -19.19065 -19.18892 -19.18617 -19.18219 -19.17984
 Alpha  occ. eigenvalues --  -14.42503 -14.42397 -14.41511 -14.41246 -14.39462
 Alpha  occ. eigenvalues --  -14.39250 -14.38644 -14.38500 -10.39125 -10.39044
 Alpha  occ. eigenvalues --  -10.35526 -10.35295 -10.34439 -10.34162 -10.31737
 Alpha  occ. eigenvalues --  -10.31715 -10.31453 -10.31216 -10.30959 -10.30928
 Alpha  occ. eigenvalues --  -10.30623 -10.30569 -10.30297 -10.30273 -10.30267
 Alpha  occ. eigenvalues --  -10.30019 -10.29986 -10.29777 -10.29689 -10.29331
 Alpha  occ. eigenvalues --  -10.29313 -10.29307 -10.28783 -10.28643 -10.28605
 Alpha  occ. eigenvalues --  -10.28547 -10.28420 -10.28310 -10.28150 -10.28054
 Alpha  occ. eigenvalues --  -10.27908 -10.27848 -10.27778 -10.27644 -10.27582
 Alpha  occ. eigenvalues --  -10.27568 -10.27532 -10.27523 -10.27458 -10.27388
 Alpha  occ. eigenvalues --  -10.27380 -10.27372 -10.27364 -10.27212 -10.27205
 Alpha  occ. eigenvalues --  -10.26987 -10.26728 -10.26629 -10.26488 -10.26329
 Alpha  occ. eigenvalues --  -10.26283 -10.26264 -10.26080 -10.26002 -10.25930
 Alpha  occ. eigenvalues --  -10.25892 -10.25823 -10.25774 -10.25514 -10.25169
 Alpha  occ. eigenvalues --  -10.24887 -10.24852 -10.24805 -10.24782 -10.24613
 Alpha  occ. eigenvalues --  -10.24578  -3.16598  -3.16306  -1.91480  -1.91188
 Alpha  occ. eigenvalues --   -1.91066  -1.90908  -1.90777  -1.90614  -1.16674
 Alpha  occ. eigenvalues --   -1.16607  -1.08676  -1.08596  -1.07296  -1.06902
 Alpha  occ. eigenvalues --   -1.06869  -1.06687  -1.04634  -1.04398  -1.03821
 Alpha  occ. eigenvalues --   -1.03559  -1.03293  -1.02930  -1.02470  -1.02007
 Alpha  occ. eigenvalues --   -0.92025  -0.91899  -0.89593  -0.89378  -0.89224
 Alpha  occ. eigenvalues --   -0.89066  -0.88361  -0.88086  -0.87923  -0.87724
 Alpha  occ. eigenvalues --   -0.87705  -0.87583  -0.87333  -0.87027  -0.85025
 Alpha  occ. eigenvalues --   -0.84912  -0.84015  -0.83745  -0.83038  -0.82829
 Alpha  occ. eigenvalues --   -0.82699  -0.82565  -0.81634  -0.81527  -0.80650
 Alpha  occ. eigenvalues --   -0.80360  -0.78853  -0.78543  -0.77275  -0.77051
 Alpha  occ. eigenvalues --   -0.76981  -0.76805  -0.75968  -0.75758  -0.74966
 Alpha  occ. eigenvalues --   -0.74666  -0.72831  -0.72600  -0.71727  -0.71470
 Alpha  occ. eigenvalues --   -0.69992  -0.69625  -0.68920  -0.68740  -0.67699
 Alpha  occ. eigenvalues --   -0.67506  -0.67261  -0.67121  -0.65330  -0.65190
 Alpha  occ. eigenvalues --   -0.64909  -0.64676  -0.64675  -0.64566  -0.64339
 Alpha  occ. eigenvalues --   -0.64083  -0.62348  -0.62207  -0.60505  -0.60235
 Alpha  occ. eigenvalues --   -0.59847  -0.59709  -0.59045  -0.58891  -0.58561
 Alpha  occ. eigenvalues --   -0.58330  -0.57634  -0.57487  -0.57372  -0.57130
 Alpha  occ. eigenvalues --   -0.56363  -0.56117  -0.56022  -0.55822  -0.55578
 Alpha  occ. eigenvalues --   -0.55407  -0.55373  -0.55139  -0.54586  -0.54386
 Alpha  occ. eigenvalues --   -0.53933  -0.53829  -0.53360  -0.53272  -0.53131
 Alpha  occ. eigenvalues --   -0.53058  -0.52970  -0.52821  -0.52811  -0.52581
 Alpha  occ. eigenvalues --   -0.52526  -0.52280  -0.51967  -0.51803  -0.51660
 Alpha  occ. eigenvalues --   -0.51580  -0.51252  -0.51114  -0.50634  -0.50380
 Alpha  occ. eigenvalues --   -0.50105  -0.49977  -0.49885  -0.49734  -0.49565
 Alpha  occ. eigenvalues --   -0.49400  -0.49267  -0.49137  -0.49121  -0.49021
 Alpha  occ. eigenvalues --   -0.48642  -0.48531  -0.48506  -0.48479  -0.48260
 Alpha  occ. eigenvalues --   -0.48235  -0.47750  -0.47501  -0.47353  -0.47012
 Alpha  occ. eigenvalues --   -0.46856  -0.46607  -0.46595  -0.46465  -0.46418
 Alpha  occ. eigenvalues --   -0.46221  -0.46169  -0.45977  -0.45870  -0.45743
 Alpha  occ. eigenvalues --   -0.45272  -0.45067  -0.44630  -0.44566  -0.44431
 Alpha  occ. eigenvalues --   -0.44386  -0.44211  -0.44132  -0.44072  -0.44041
 Alpha  occ. eigenvalues --   -0.43974  -0.43858  -0.43546  -0.43480  -0.43439
 Alpha  occ. eigenvalues --   -0.43289  -0.43083  -0.42869  -0.42805  -0.42763
 Alpha  occ. eigenvalues --   -0.42718  -0.42433  -0.42076  -0.41861  -0.41760
 Alpha  occ. eigenvalues --   -0.41578  -0.41577  -0.41367  -0.41194  -0.40922
 Alpha  occ. eigenvalues --   -0.40890  -0.40884  -0.40639  -0.40632  -0.40606
 Alpha  occ. eigenvalues --   -0.40368  -0.40266  -0.40153  -0.39531  -0.39295
 Alpha  occ. eigenvalues --   -0.38538  -0.38219  -0.37785  -0.37576  -0.37387
 Alpha  occ. eigenvalues --   -0.37306  -0.37152  -0.37109  -0.36766  -0.36708
 Alpha  occ. eigenvalues --   -0.36249  -0.36110  -0.34343  -0.34153  -0.33818
 Alpha  occ. eigenvalues --   -0.33806  -0.33244  -0.33074  -0.31422  -0.31175
 Alpha  occ. eigenvalues --   -0.31093  -0.30872  -0.30078  -0.29890  -0.29509
 Alpha  occ. eigenvalues --   -0.29377  -0.29232  -0.29120  -0.24137  -0.23934
 Alpha  occ. eigenvalues --   -0.21185  -0.21014
 Alpha virt. eigenvalues --   -0.08832  -0.08694  -0.01811  -0.01576  -0.00118
 Alpha virt. eigenvalues --    0.00064   0.02143   0.02294   0.03054   0.03322
 Alpha virt. eigenvalues --    0.04671   0.04827   0.05053   0.05215   0.06147

 Mulliken charges:
               1
     1  Mg   0.838635
     2  C   -0.002923
     3  C   -0.093788
     4  C   -0.046155
     5  C   -0.064014
     6  N   -0.256804
     7  C   -0.052345
     8  C   -0.014035
     9  C   -0.087051
    10  C    0.046298
    11  C    0.104767
    12  C    0.053368
    13  C   -0.071976
    14  H    0.036351
    15  N   -0.433133
    16  C    0.168340
    17  C   -0.176987
    18  C   -0.004173
    19  C    0.148649
    20  C    0.110074
    21  C    0.011942
    22  O   -0.250143
    23  C    0.062569
    24  N   -0.341129
    25  C    0.041264
    26  C   -0.028123
    27  C   -0.023944
    28  C    0.074739
    29  C    0.076190
    30  C    0.035195
    31  C   -0.004439
    32  N   -0.310503
    33  C    0.080388
    34  C   -0.169664
    35  C    0.008415
    36  C    0.082962
    37  C    0.127313
    38  C    0.046139
    39  O   -0.188296
    40  C   -0.005322
    41  C    0.212932
    42  O   -0.257253
    43  O   -0.304710
    44  C    0.157721
    45  H   -0.017337
    46  H   -0.017154
    47  H   -0.041508
    48  H    0.001037
    49  H   -0.003704
    50  H    0.025490
    51  H    0.016386
    52  H    0.016897
    53  H    0.011423
    54  H    0.043979
    55  H    0.017894
    56  H    0.018334
    57  H    0.006219
    58  H    0.026875
    59  H    0.039790
    60  H    0.037695
    61  H    0.035190
    62  H    0.031510
    63  H    0.015998
    64  H    0.009592
    65  H    0.022959
    66  H    0.012742
    67  H    0.004858
    68  H    0.006078
    69  H    0.004972
    70  H    0.008027
    71  H    0.017910
    72  H    0.029232
    73  H    0.047691
    74  H    0.009086
    75  H    0.046108
    76  H    0.035303
    77  H    0.043020
    78  H    0.046612
    79  H    0.053453
    80  Mg   0.838110
    81  C   -0.017031
    82  C   -0.087876
    83  C   -0.045269
    84  C   -0.064303
    85  N   -0.254592
    86  C   -0.049897
    87  C   -0.015077
    88  C   -0.090498
    89  C    0.045802
    90  C    0.114341
    91  C    0.062569
    92  C   -0.077740
    93  H    0.034497
    94  N   -0.423557
    95  C    0.163078
    96  C   -0.174586
    97  C   -0.007668
    98  C    0.152207
    99  C    0.099368
   100  C    0.015569
   101  O   -0.252880
   102  C    0.061219
   103  N   -0.350013
   104  C    0.037956
   105  C   -0.020158
   106  C   -0.034795
   107  C    0.088953
   108  C    0.073059
   109  C    0.034687
   110  C   -0.007629
   111  N   -0.324048
   112  C    0.078393
   113  C   -0.163162
   114  C    0.001957
   115  C    0.096251
   116  C    0.131543
   117  C    0.042099
   118  O   -0.188691
   119  C    0.001021
   120  C    0.211178
   121  O   -0.251026
   122  O   -0.305771
   123  C    0.152123
   124  H   -0.019627
   125  H   -0.015199
   126  H   -0.040383
   127  H   -0.001068
   128  H   -0.004452
   129  H    0.022019
   130  H    0.014966
   131  H    0.016539
   132  H    0.013941
   133  H    0.037537
   134  H    0.020623
   135  H    0.019634
   136  H    0.008730
   137  H    0.026135
   138  H    0.039600
   139  H    0.038181
   140  H    0.036338
   141  H    0.033721
   142  H    0.014158
   143  H    0.013401
   144  H    0.025259
   145  H    0.012486
   146  H    0.007484
   147  H    0.006569
   148  H    0.003443
   149  H    0.010924
   150  H    0.017576
   151  H    0.029837
   152  H    0.045560
   153  H    0.008610
   154  H    0.046754
   155  H    0.034484
   156  H    0.043466
   157  H    0.049517
   158  H    0.053529
 Sum of Mulliken charges =  -0.00000

 Dipole moment (field-independent basis, Debye):
    X=              3.5046    Y=              4.7242    Z=              1.2677  Tot=              6.0173
 Quadrupole moment (field-independent basis, Debye-Ang):
   XX=           -520.4893   YY=           -518.8092   ZZ=           -479.5019
   XY=             13.8985   XZ=            -49.4597   YZ=             17.2219

 Normal termination of Gaussian 16 at Sat Sep 11 10:00:28 2021.
