 Gaussian 16, Revision A.03,
 Gaussian 16:  ES64L-G16RevA.03 25-Dec-2016

 -----------------------------------
 #p cam-b3lyp/Def2SVP td=(nstates=5)
 -----------------------------------

 --------------------------------
 TDDFT excited states in gaussian
 --------------------------------
 Symbolic Z-matrix:
 Charge =  0 Multiplicity = 1

                         Standard orientation:
 ---------------------------------------------------------------------
 Center     Atomic      Atomic             Coordinates (Angstroms)
 Number     Number       Type             X           Y           Z
 ---------------------------------------------------------------------
      1         12           0       15.492274    0.732234    0.451758
      2          6           0       15.767610   -2.477529   -1.108314
      3          6           0       16.409112    2.098432   -2.537553
      4          6           0       15.698046    3.535686    1.919728
      5          6           0       15.714074   -0.904320    3.520659
      6          7           0       15.996160   -0.177993   -1.502272
      7          6           0       16.005552   -1.416593   -1.984923
      8          6           0       16.217645   -1.477068   -3.527237
      9          6           0       16.956630   -0.079621   -3.734697
     10          6           0       16.394541    0.671965   -2.540922
     11          6           0       18.472805   -0.165059   -3.591813
     12          6           0       14.863715   -1.531202   -4.311886
     13          6           0       14.979614   -1.918428   -5.789038
     14          1           0       13.926008   -2.724991   -6.386299
     15          7           0       15.502794    2.565789   -0.283643
     16          6           0       15.892019    2.937489   -1.526876
     17          6           0       15.714443    4.404255   -1.588067
     18          6           0       15.370602    4.878486   -0.218771
     19          6           0       15.537921    3.666821    0.542314
     20          6           0       15.823769    5.194127   -2.856098
     21          6           0       14.967054    6.214433    0.320235
     22          8           0       14.939572    6.461846    1.574271
     23          6           0       14.686369    7.266299   -0.673664
     24          7           0       15.899395    1.274931    2.425933
     25          6           0       15.869689    2.555914    2.809578
     26          6           0       15.910037    2.679420    4.303920
     27          6           0       15.727920    1.199361    4.874893
     28          6           0       15.694583    0.430439    3.531049
     29          6           0       17.186165    3.299087    4.890026
     30          6           0       14.574229    0.971831    5.883677
     31          6           0       13.242605    1.143017    5.187564
     32          7           0       15.525632   -1.329731    1.128687
     33          6           0       15.645984   -1.781212    2.450940
     34          6           0       15.730424   -3.252351    2.399103
     35          6           0       15.669607   -3.555459    1.040327
     36          6           0       15.580906   -2.348624    0.289346
     37          6           0       15.904951   -4.116924    3.515565
     38          6           0       15.683737   -4.616866    0.046812
     39          8           0       15.649511   -5.847428    0.091978
     40          6           0       15.870521   -3.955931   -1.389886
     41          6           0       14.849400   -4.569488   -2.308673
     42          8           0       13.630558   -4.360243   -2.141317
     43          8           0       15.471399   -5.105170   -3.370136
     44          6           0       14.512689   -5.705109   -4.336108
     45          1           0       16.913291    2.623053   -3.351505
     46          1           0       15.662722    4.475847    2.474063
     47          1           0       15.699670   -1.487361    4.443323
     48          1           0       16.858605   -2.291091   -3.866295
     49          1           0       16.656629    0.405449   -4.663367
     50          1           0       18.785254   -1.149183   -3.242819
     51          1           0       18.740001    0.599998   -2.862575
     52          1           0       18.966189    0.121317   -4.520973
     53          1           0       14.467670   -0.521010   -4.415428
     54          1           0       14.158119   -2.200245   -3.818083
     55          1           0       15.958897   -2.341611   -6.014492
     56          1           0       14.934434   -1.007203   -6.385551
     57          1           0       16.248445    4.598793   -3.663422
     58          1           0       16.560115    5.978109   -2.680384
     59          1           0       14.872320    5.641337   -3.144333
     60          1           0       15.573077    7.427662   -1.287065
     61          1           0       14.327007    8.125664   -0.108684
     62          1           0       13.906104    6.914563   -1.349251
     63          1           0       15.095510    3.304987    4.666739
     64          1           0       16.615995    0.852947    5.404039
     65          1           0       17.002158    4.178658    5.507441
     66          1           0       17.856623    3.534456    4.063964
     67          1           0       17.798091    2.615270    5.477698
     68          1           0       14.616620    1.712475    6.681546
     69          1           0       14.595098   -0.015162    6.345910
     70          1           0       13.091155    2.221541    5.213656
     71          1           0       12.456398    0.624947    5.737739
     72          1           0       13.300186    0.847311    4.139838
     73          1           0       15.220142   -4.951414    3.365127
     74          1           0       15.699561   -3.599930    4.452654
     75          1           0       16.957032   -4.379261    3.405290
     76          1           0       16.889879   -4.175514   -1.705820
     77          1           0       14.809346   -6.744192   -4.479406
     78          1           0       14.507103   -5.055204   -5.211320
     79          1           0       13.488219   -5.830296   -3.983787
     80         12           0      -16.243200    0.318929   -0.185589
     81          6           0      -13.647662   -2.018041    0.639509
     82          6           0      -13.824991    2.719080   -0.347308
     83          6           0      -18.547868    2.481233   -0.469113
     84          6           0      -18.523808   -1.958204    1.140752
     85          7           0      -14.054818    0.237802    0.125269
     86          6           0      -13.171426   -0.717167    0.374288
     87          6           0      -11.689806   -0.269037    0.257851
     88          6           0      -11.892825    1.302632    0.517644
     89          6           0      -13.335742    1.445323    0.037757
     90          6           0      -11.838931    1.681409    1.988344
     91          6           0      -11.092608   -0.543284   -1.166982
     92          6           0       -9.570418   -0.417579   -1.261365
     93          1           0       -8.851606   -1.320416   -2.156156
     94          7           0      -16.176713    2.186804   -0.852824
     95          6           0      -15.106724    3.009154   -0.864388
     96          6           0      -15.581458    4.279066   -1.435434
     97          6           0      -17.057205    4.193464   -1.607376
     98          6           0      -17.326430    2.930666   -0.949391
     99          6           0      -14.653223    5.389396   -1.834153
    100          6           0      -18.061753    5.104318   -2.245657
    101          8           0      -19.321512    4.945497   -2.070709
    102          6           0      -17.524864    6.242949   -3.005116
    103          7           0      -18.219410    0.366012    0.458403
    104          6           0      -19.020304    1.403074    0.156730
    105          6           0      -20.461415    1.092623    0.484151
    106          6           0      -20.494036   -0.465006    0.845158
    107          6           0      -18.985127   -0.779356    0.746231
    108          6           0      -21.069798    1.894267    1.634636
    109          6           0      -21.487774   -1.351969    0.046123
    110          6           0      -21.055895   -1.436774   -1.400134
    111          7           0      -16.163377   -1.707618    0.559259
    112          6           0      -17.230851   -2.463399    1.091588
    113          6           0      -16.663624   -3.740571    1.570653
    114          6           0      -15.290975   -3.628890    1.302618
    115          6           0      -15.018732   -2.362756    0.717554
    116          6           0      -17.389877   -4.787085    2.205861
    117          6           0      -14.008832   -4.289915    1.391303
    118          8           0      -13.632006   -5.414238    1.719356
    119          6           0      -12.869259   -3.225959    1.081829
    120          6           0      -11.913196   -3.842337    0.097692
    121          8           0      -12.284755   -4.117917   -1.056691
    122          8           0      -10.669122   -3.803918    0.608750
    123          6           0       -9.683332   -4.394064   -0.335585
    124          1           0      -13.182190    3.587614   -0.201256
    125          1           0      -19.396768    3.146338   -0.643722
    126          1           0      -19.183904   -2.760469    1.477392
    127          1           0      -11.028474   -0.687379    1.007116
    128          1           0      -11.224579    1.894962   -0.102003
    129          1           0      -11.790703    0.811842    2.626825
    130          1           0      -12.743989    2.242492    2.180968
    131          1           0      -11.011226    2.373135    2.169364
    132          1           0      -11.390448    0.268955   -1.842469
    133          1           0      -11.398938   -1.505126   -1.529825
    134          1           0       -9.096293   -0.398516   -0.272532
    135          1           0       -9.328798    0.556638   -1.693266
    136          1           0      -13.643273    5.231921   -1.435922
    137          1           0      -15.005158    6.296564   -1.331093
    138          1           0      -14.643993    5.564039   -2.912151
    139          1           0      -16.908721    6.855107   -2.350832
    140          1           0      -18.391990    6.725845   -3.459851
    141          1           0      -16.864637    5.859239   -3.790909
    142          1           0      -21.099275    1.268015   -0.373446
    143          1           0      -20.782285   -0.634444    1.893029
    144          1           0      -21.979905    2.452408    1.344360
    145          1           0      -20.315472    2.569211    2.016725
    146          1           0      -21.327431    1.311985    2.517687
    147          1           0      -22.483053   -0.900766    0.046881
    148          1           0      -21.588793   -2.355410    0.445974
    149          1           0      -21.467076   -0.520663   -1.834590
    150          1           0      -21.476065   -2.321544   -1.874137
    151          1           0      -19.964629   -1.382716   -1.488817
    152          1           0      -17.042182   -5.715184    1.772004
    153          1           0      -18.462769   -4.663159    2.074280
    154          1           0      -17.083375   -4.634823    3.244205
    155          1           0      -12.383078   -2.982303    2.027257
    156          1           0       -9.157016   -5.186291    0.205754
    157          1           0       -9.075943   -3.545364   -0.702402
    158          1           0      -10.070515   -4.941070   -1.187246
 ---------------------------------------------------------------------

 SCF Done:  E(RCAM-B3LYP) =  -4069.81177175     A.U. after   19 cycles

 Excitation energies and oscillator strengths:

 Excited State   1:      Singlet-A      1.6753 eV  740.08 nm  f=0.2056  <S**2>=0.000
     310 -> 316        0.16811
     311 -> 314       -0.16953
     312 -> 313        0.66478
     310 <- 316        0.10135
 This state for optimization and/or second-order correction.
 Total Energy, E(TD-HF/TD-DFT) =  -4069.75020606
 Copying the excited state density for this state as the 1-particle RhoCI density.

 Excited State   2:      Singlet-A      1.6801 eV  737.95 nm  f=0.5716  <S**2>=0.000
     309 -> 315        0.17014
     311 -> 314        0.66441
     312 -> 313        0.16947
     309 <- 315        0.10186

 Excited State   3:      Singlet-A      2.1860 eV  567.16 nm  f=0.1031  <S**2>=0.000
     310 -> 313        0.64249
     312 -> 316       -0.27305

 Excited State   4:      Singlet-A      2.1925 eV  565.50 nm  f=0.0984  <S**2>=0.000
     309 -> 314        0.64071
     311 -> 315       -0.27827

 Excited State   5:      Singlet-A      3.0623 eV  404.87 nm  f=0.0000  <S**2>=0.000
     312 -> 314        0.70709

 The electronic state is 1-A.
 Alpha  occ. eigenvalues --  -46.87811 -46.87658 -19.26333 -19.26292 -19.19148
 Alpha  occ. eigenvalues --  -19.19029 -19.18833 -19.18714 -19.18181 -19.18046
 Alpha  occ. eigenvalues --  -14.42495 -14.42464 -14.41464 -14.41358 -14.39417
 Alpha  occ. eigenvalues --  -14.39350 -14.38601 -14.38597 -10.39089 -10.39078
 Alpha  occ. eigenvalues --  -10.35467 -10.35392 -10.34401 -10.34223 -10.31734
 Alpha  occ. eigenvalues --  -10.31685 -10.31418 -10.31305 -10.31019 -10.30923
 Alpha  occ. eigenvalues --  -10.30583 -10.30522 -10.30396 -10.30358 -10.30222
 Alpha  occ. eigenvalues --  -10.30141 -10.29935 -10.29893 -10.29645 -10.29436
 Alpha  occ. eigenvalues --  -10.29399 -10.29269 -10.28761 -10.28711 -10.28638
 Alpha  occ. eigenvalues --  -10.28548 -10.28402 -10.28379 -10.28133 -10.28128
 Alpha  occ. eigenvalues --  -10.27999 -10.27807 -10.27741 -10.27666 -10.27599
 Alpha  occ. eigenvalues --  -10.27519 -10.27516 -10.27497 -10.27480 -10.27466
 Alpha  occ. eigenvalues --  -10.27465 -10.27463 -10.27417 -10.27377 -10.27169
 Alpha  occ. eigenvalues --  -10.27043 -10.26716 -10.26682 -10.26431 -10.26417
 Alpha  occ. eigenvalues --  -10.26245 -10.26201 -10.26140 -10.26034 -10.26018
 Alpha  occ. eigenvalues --  -10.25933 -10.25854 -10.25849 -10.25450 -10.25401
 Alpha  occ. eigenvalues --  -10.24870 -10.24846 -10.24802 -10.24733 -10.24706
 Alpha  occ. eigenvalues --  -10.24688  -3.16554  -3.16408  -1.91435  -1.91290
 Alpha  occ. eigenvalues --   -1.91022  -1.90879  -1.90864  -1.90716  -1.16641
 Alpha  occ. eigenvalues --   -1.16628  -1.08652  -1.08638  -1.07234  -1.06967
 Alpha  occ. eigenvalues --   -1.06933  -1.06652  -1.04595  -1.04492  -1.03775
 Alpha  occ. eigenvalues --   -1.03661  -1.03248  -1.03037  -1.02425  -1.02109
 Alpha  occ. eigenvalues --   -0.91985  -0.91983  -0.89535  -0.89494  -0.89200
 Alpha  occ. eigenvalues --   -0.89144  -0.88302  -0.88220  -0.87883  -0.87791
 Alpha  occ. eigenvalues --   -0.87686  -0.87681  -0.87290  -0.87119  -0.84995
 Alpha  occ. eigenvalues --   -0.84994  -0.83952  -0.83876  -0.82984  -0.82931
 Alpha  occ. eigenvalues --   -0.82662  -0.82647  -0.81597  -0.81588  -0.80609
 Alpha  occ. eigenvalues --   -0.80437  -0.78812  -0.78634  -0.77232  -0.77140
 Alpha  occ. eigenvalues --   -0.76946  -0.76892  -0.75935  -0.75832  -0.74912
 Alpha  occ. eigenvalues --   -0.74801  -0.72788  -0.72697  -0.71685  -0.71578
 Alpha  occ. eigenvalues --   -0.69923  -0.69758  -0.68886  -0.68822  -0.67655
 Alpha  occ. eigenvalues --   -0.67598  -0.67233  -0.67194  -0.65299  -0.65265
 Alpha  occ. eigenvalues --   -0.64867  -0.64767  -0.64648  -0.64634  -0.64284
 Alpha  occ. eigenvalues --   -0.64203  -0.62308  -0.62269  -0.60458  -0.60339
 Alpha  occ. eigenvalues --   -0.59817  -0.59791  -0.59001  -0.58990  -0.58517
 Alpha  occ. eigenvalues --   -0.58422  -0.57596  -0.57547  -0.57323  -0.57234
 Alpha  occ. eigenvalues --   -0.56323  -0.56201  -0.55989  -0.55876  -0.55535
 Alpha  occ. eigenvalues --   -0.55447  -0.55353  -0.55244  -0.54536  -0.54483
 Alpha  occ. eigenvalues --   -0.53907  -0.53905  -0.53313  -0.53235  -0.53225
 Alpha  occ. eigenvalues --   -0.53136  -0.52927  -0.52896  -0.52771  -0.52666
 Alpha  occ. eigenvalues --   -0.52454  -0.52402  -0.51927  -0.51883  -0.51652
 Alpha  occ. eigenvalues --   -0.51630  -0.51209  -0.51197  -0.50590  -0.50475
 Alpha  occ. eigenvalues --   -0.50047  -0.49977  -0.49934  -0.49867  -0.49528
 Alpha  occ. eigenvalues --   -0.49484  -0.49228  -0.49198  -0.49108  -0.49098
 Alpha  occ. eigenvalues --   -0.48605  -0.48552  -0.48477  -0.48460  -0.48375
 Alpha  occ. eigenvalues --   -0.48336  -0.47709  -0.47590  -0.47311  -0.47116
 Alpha  occ. eigenvalues --   -0.46811  -0.46706  -0.46568  -0.46548  -0.46373
 Alpha  occ. eigenvalues --   -0.46268  -0.46175  -0.46082  -0.45833  -0.45816
 Alpha  occ. eigenvalues --   -0.45216  -0.45208  -0.44590  -0.44522  -0.44509
 Alpha  occ. eigenvalues --   -0.44471  -0.44159  -0.44123  -0.44101  -0.44076
 Alpha  occ. eigenvalues --   -0.44033  -0.43935  -0.43545  -0.43506  -0.43399
 Alpha  occ. eigenvalues --   -0.43381  -0.43040  -0.42922  -0.42895  -0.42711
 Alpha  occ. eigenvalues --   -0.42668  -0.42553  -0.42024  -0.41961  -0.41717
 Alpha  occ. eigenvalues --   -0.41665  -0.41546  -0.41453  -0.41154  -0.40986
 Alpha  occ. eigenvalues --   -0.40883  -0.40840  -0.40719  -0.40694  -0.40586
 Alpha  occ. eigenvalues --   -0.40492  -0.40246  -0.40219  -0.39457  -0.39426
 Alpha  occ. eigenvalues --   -0.38484  -0.38349  -0.37760  -0.37646  -0.37335
 Alpha  occ. eigenvalues --   -0.37276  -0.37264  -0.37194  -0.36760  -0.36724
 Alpha  occ. eigenvalues --   -0.36213  -0.36205  -0.34300  -0.34251  -0.33851
 Alpha  occ. eigenvalues --   -0.33781  -0.33200  -0.33173  -0.31362  -0.31273
 Alpha  occ. eigenvalues --   -0.31049  -0.30970  -0.30040  -0.29950  -0.29464
 Alpha  occ. eigenvalues --   -0.29335  -0.29326  -0.29209  -0.24094  -0.24034
 Alpha  occ. eigenvalues --   -0.21142  -0.21115
 Alpha virt. eigenvalues --   -0.08790  -0.08788  -0.01764  -0.01682  -0.00073
 Alpha virt. eigenvalues --   -0.00027   0.02187   0.02210   0.03105   0.03229
 Alpha virt. eigenvalues --    0.04705   0.04734   0.05088   0.05177   0.06166

 Mulliken charges:
               1
     1  Mg   0.838710
     2  C   -0.002967
     3  C   -0.094116
     4  C   -0.045922
     5  C   -0.063971
     6  N   -0.256780
     7  C   -0.052467
     8  C   -0.013994
     9  C   -0.087018
    10  C    0.046319
    11  C    0.104809
    12  C    0.053477
    13  C   -0.071833
    14  H    0.036166
    15  N   -0.433153
    16  C    0.168395
    17  C   -0.177161
    18  C   -0.004032
    19  C    0.148718
    20  C    0.110177
    21  C    0.012242
    22  O   -0.249665
    23  C    0.062495
    24  N   -0.341157
    25  C    0.041268
    26  C   -0.028167
    27  C   -0.023993
    28  C    0.074851
    29  C    0.076174
    30  C    0.035150
    31  C   -0.004504
    32  N   -0.310469
    33  C    0.080412
    34  C   -0.169704
    35  C    0.008377
    36  C    0.082995
    37  C    0.127309
    38  C    0.046145
    39  O   -0.188357
    40  C   -0.005341
    41  C    0.212891
    42  O   -0.257124
    43  O   -0.304783
    44  C    0.157667
    45  H   -0.017590
    46  H   -0.016869
    47  H   -0.041471
    48  H    0.000978
    49  H   -0.004030
    50  H    0.025497
    51  H    0.016444
    52  H    0.016683
    53  H    0.011166
    54  H    0.044113
    55  H    0.017912
    56  H    0.017944
    57  H    0.005895
    58  H    0.026826
    59  H    0.039492
    60  H    0.037376
    61  H    0.035586
    62  H    0.031448
    63  H    0.016502
    64  H    0.009492
    65  H    0.023185
    66  H    0.012563
    67  H    0.004776
    68  H    0.006350
    69  H    0.004762
    70  H    0.008726
    71  H    0.018121
    72  H    0.028980
    73  H    0.047608
    74  H    0.009114
    75  H    0.046049
    76  H    0.035189
    77  H    0.043010
    78  H    0.046406
    79  H    0.053698
    80  Mg   0.837801
    81  C   -0.016809
    82  C   -0.087767
    83  C   -0.045527
    84  C   -0.064912
    85  N   -0.254584
    86  C   -0.049828
    87  C   -0.015088
    88  C   -0.090487
    89  C    0.045752
    90  C    0.114368
    91  C    0.062533
    92  C   -0.077965
    93  H    0.035034
    94  N   -0.423476
    95  C    0.162894
    96  C   -0.174609
    97  C   -0.007829
    98  C    0.152100
    99  C    0.099365
   100  C    0.015550
   101  O   -0.253209
   102  C    0.061206
   103  N   -0.350053
   104  C    0.037508
   105  C   -0.019821
   106  C   -0.034819
   107  C    0.088938
   108  C    0.073660
   109  C    0.034745
   110  C   -0.007674
   111  N   -0.324108
   112  C    0.078446
   113  C   -0.163140
   114  C    0.002274
   115  C    0.096204
   116  C    0.131487
   117  C    0.042379
   118  O   -0.187769
   119  C    0.000940
   120  C    0.211271
   121  O   -0.251028
   122  O   -0.305618
   123  C    0.151988
   124  H   -0.019644
   125  H   -0.015595
   126  H   -0.040467
   127  H   -0.000569
   128  H   -0.004290
   129  H    0.022487
   130  H    0.014381
   131  H    0.016339
   132  H    0.013875
   133  H    0.037683
   134  H    0.020873
   135  H    0.019578
   136  H    0.008784
   137  H    0.026128
   138  H    0.039780
   139  H    0.038247
   140  H    0.036372
   141  H    0.033892
   142  H    0.014387
   143  H    0.012402
   144  H    0.025122
   145  H    0.011639
   146  H    0.005659
   147  H    0.006243
   148  H    0.003651
   149  H    0.010921
   150  H    0.017933
   151  H    0.030120
   152  H    0.046041
   153  H    0.008492
   154  H    0.046954
   155  H    0.035079
   156  H    0.044049
   157  H    0.049549
   158  H    0.053585
 Sum of Mulliken charges =  -0.00000

 Dipole moment (field-independent basis, Debye):
    X=              3.8400    Y=              7.1363    Z=             -2.2963  Tot=              8.4229
 Quadrupole moment (field-independent basis, Debye-Ang):
   XX=           -480.7466   YY=           -555.5168   ZZ=           -472.8450
   XY=             10.1040   XZ=            -62.7536   YZ=            -10.3260

 Normal termination of Gaussian 16 at Sun Sep 12 16:42:26 2021.
