 Gaussian 16, Revision A.03,
 Gaussian 16:  ES64L-G16RevA.03 25-Dec-2016

 -----------------------------------
 #p cam-b3lyp/Def2SVP td=(nstates=5)
 -----------------------------------

 --------------------------------
 TDDFT excited states in gaussian
 --------------------------------
 Symbolic Z-matrix:
 Charge =  0 Multiplicity = 1

                         Standard orientation:
 ---------------------------------------------------------------------
 Center     Atomic      Atomic             Coordinates (Angstroms)
 Number     Number       Type             X           Y           Z
 ---------------------------------------------------------------------
      1         12           0       -3.770481   -1.134043    0.035688
      2          6           0       -4.308609    2.397687    0.258206
      3          6           0       -4.631978   -0.907482   -3.258178
      4          6           0       -3.743720   -4.303141   -0.077115
      5          6           0       -4.063097   -1.248288    3.506565
      6          7           0       -4.372279    0.583366   -1.224863
      7          6           0       -4.481414    1.894271   -1.033055
      8          6           0       -4.722503    2.693213   -2.348708
      9          6           0       -5.359034    1.531315   -3.235736
     10          6           0       -4.723354    0.331158   -2.556428
     11          6           0       -6.874840    1.424757   -3.103525
     12          6           0       -3.389282    3.225972   -2.973545
     13          6           0       -3.557638    4.282805   -4.069042
     14          1           0       -2.576656    5.353121   -4.166225
     15          7           0       -3.656890   -2.360132   -1.509191
     16          6           0       -4.037657   -2.096237   -2.782243
     17          6           0       -3.752749   -3.323958   -3.555682
     18          6           0       -3.352410   -4.386354   -2.591764
     19          6           0       -3.596760   -3.724674   -1.335639
     20          6           0       -3.823799   -3.389818   -5.050461
     21          6           0       -2.842116   -5.780847   -2.773763
     22          8           0       -2.775930   -6.612734   -1.805178
     23          6           0       -2.500377   -6.180836   -4.150812
     24          7           0       -4.104001   -2.609062    1.474687
     25          6           0       -3.973078   -3.906304    1.176345
     26          6           0       -3.979806   -4.754472    2.413481
     27          6           0       -3.898744   -3.740979    3.644746
     28          6           0       -3.944448   -2.408467    2.856969
     29          6           0       -5.196718   -5.673491    2.588234
     30          6           0       -2.748840   -3.958503    4.660041
     31          6           0       -1.419700   -3.666322    4.000408
     32          7           0       -3.945725    0.315647    1.641532
     33          6           0       -4.077695    0.044869    3.011181
     34          6           0       -4.271901    1.338975    3.690623
     35          6           0       -4.255883    2.277266    2.660479
     36          6           0       -4.090116    1.609075    1.413750
     37          6           0       -4.491896    1.523842    5.084130
     38          6           0       -4.364915    3.686680    2.320594
     39          8           0       -4.421365    4.733032    2.968246
     40          6           0       -4.525513    3.810238    0.741110
     41          6           0       -3.567836    4.869814    0.268391
     42          8           0       -2.334265    4.694268    0.338036
     43          8           0       -4.245076    5.813197   -0.403856
     44          6           0       -3.349388    6.879757   -0.925724
     45          1           0       -5.109027   -0.996493   -4.236157
     46          1           0       -3.629705   -5.389004   -0.058662
     47          1           0       -4.076972   -1.197899    4.596850
     48          1           0       -5.427537    3.519499   -2.255960
     49          1           0       -5.039030    1.591586   -4.275778
     50          1           0       -7.253728    2.082344   -2.321257
     51          1           0       -7.072615    0.382255   -2.853388
     52          1           0       -7.360680    1.599864   -4.063772
     53          1           0       -2.921106    2.430606   -3.553430
     54          1           0       -2.727328    3.612885   -2.198018
     55          1           0       -4.569165    4.689792   -4.078153
     56          1           0       -3.454687    3.791269   -5.036509
     57          1           0       -4.304574   -2.505986   -5.467883
     58          1           0       -4.496980   -4.209302   -5.301425
     59          1           0       -2.846609   -3.565870   -5.500392
     60          1           0       -3.382538   -6.081940   -4.783710
     61          1           0       -2.069083   -7.178445   -4.075904
     62          1           0       -1.759470   -5.485725   -4.546828
     63          1           0       -3.115304   -5.416622    2.438356
     64          1           0       -4.801339   -3.766676    4.255757
     65          1           0       -4.937919   -6.727234    2.694793
     66          1           0       -5.861227   -5.517969    1.738804
     67          1           0       -5.848046   -5.415734    3.422950
     68          1           0       -2.723155   -4.997449    4.986962
     69          1           0       -2.835360   -3.333219    5.548739
     70          1           0       -1.188230   -4.602678    3.493959
     71          1           0       -0.665247   -3.432215    4.752210
     72          1           0       -1.516121   -2.896698    3.234335
     73          1           0       -3.873439    2.370861    5.380843
     74          1           0       -4.233473    0.627869    5.648093
     75          1           0       -5.562199    1.729287    5.094081
     76          1           0       -5.563365    4.082614    0.551910
     77          1           0       -3.724627    7.829309   -0.543911
     78          1           0       -3.309847    6.749444   -2.007325
     79          1           0       -2.331430    6.888492   -0.534539
     80         12           0        4.139126   -0.386812    0.122711
     81          6           0        3.289365    3.095088    0.305347
     82          6           0        3.580890   -0.193467   -3.236695
     83          6           0        4.441687   -3.542533   -0.008738
     84          6           0        3.519989   -0.574916    3.547186
     85          7           0        3.519792    1.289808   -1.180226
     86          6           0        3.285253    2.582036   -1.008499
     87          6           0        3.111229    3.384746   -2.325669
     88          6           0        2.655440    2.179111   -3.283574
     89          6           0        3.319400    1.017422   -2.547141
     90          6           0        1.153604    1.947167   -3.285985
     91          6           0        4.455374    4.030023   -2.814430
     92          6           0        4.301345    5.078302   -3.918578
     93          1           0        5.201967    6.227800   -3.917527
     94          7           0        4.505574   -1.578620   -1.421273
     95          6           0        4.235316   -1.333496   -2.720560
     96          6           0        4.677036   -2.528672   -3.455808
     97          6           0        5.078566   -3.565907   -2.467046
     98          6           0        4.662097   -2.929454   -1.233521
     99          6           0        4.763956   -2.576668   -4.953663
    100          6           0        5.718315   -4.913749   -2.609315
    101          8           0        5.759201   -5.745872   -1.635288
    102          6           0        6.212277   -5.266937   -3.948250
    103          7           0        3.798222   -1.895041    1.512455
    104          6           0        4.059773   -3.180207    1.216080
    105          6           0        4.001138   -4.047593    2.450834
    106          6           0        3.883161   -3.034310    3.682462
    107          6           0        3.800580   -1.701437    2.906568
    108          6           0        2.848959   -5.050557    2.505129
    109          6           0        4.944031   -3.169302    4.808972
    110          6           0        6.305879   -2.773341    4.285546
    111          7           0        3.698335    1.018901    1.703134
    112          6           0        3.449259    0.724537    3.061583
    113          6           0        3.084688    1.994472    3.722494
    114          6           0        3.124886    2.943196    2.689641
    115          6           0        3.469107    2.305830    1.467028
    116          6           0        2.726928    2.146876    5.091764
    117          6           0        2.944015    4.337120    2.353547
    118          8           0        2.732996    5.365214    2.995598
    119          6           0        2.918907    4.476080    0.770360
    120          6           0        3.829063    5.611373    0.389250
    121          8           0        5.053949    5.534206    0.590054
    122          8           0        3.137634    6.503726   -0.342862
    123          6           0        4.000556    7.643052   -0.754115
    124          1           0        3.213645   -0.298681   -4.257939
    125          1           0        4.641141   -4.616144    0.023799
    126          1           0        3.408145   -0.532980    4.632727
    127          1           0        2.341554    4.146618   -2.295019
    128          1           0        3.073768    2.287254   -4.280910
    129          1           0        0.650620    2.556699   -2.550029
    130          1           0        1.017806    0.896775   -3.063970
    131          1           0        0.750615    2.097196   -4.291674
    132          1           0        5.040338    3.273803   -3.353579
    133          1           0        4.998019    4.450443   -1.990161
    134          1           0        3.260866    5.405399   -4.034153
    135          1           0        4.543536    4.611538   -4.876436
    136          1           0        4.246790   -1.725811   -5.414069
    137          1           0        4.190785   -3.451468   -5.279344
    138          1           0        5.790680   -2.673031   -5.313123
    139          1           0        5.390011   -5.226876   -4.658699
    140          1           0        6.715244   -6.228649   -3.829894
    141          1           0        6.938416   -4.509655   -4.264271
    142          1           0        4.909085   -4.628118    2.559093
    143          1           0        2.926868   -3.148403    4.213793
    144          1           0        3.186464   -6.096623    2.631220
    145          1           0        2.262864   -4.946374    1.601708
    146          1           0        2.110210   -4.863607    3.282626
    147          1           0        5.025546   -4.210801    5.129584
    148          1           0        4.716456   -2.578092    5.689689
    149          1           0        6.656817   -3.686317    3.795230
    150          1           0        6.962854   -2.487675    5.104584
    151          1           0        6.221331   -1.997429    3.515834
    152          1           0        3.236162    3.031658    5.449993
    153          1           0        2.997779    1.268329    5.673627
    154          1           0        1.643449    2.259666    4.998857
    155          1           0        1.885886    4.662430    0.474200
    156          1           0        3.509603    8.557349   -0.406688
    157          1           0        4.142938    7.531258   -1.845427
    158          1           0        4.971906    7.732045   -0.281875
 ---------------------------------------------------------------------

 SCF Done:  E(RCAM-B3LYP) =  -4069.81136145     A.U. after   19 cycles

 Excitation energies and oscillator strengths:

 Excited State   1:      Singlet-A      1.6377 eV  757.04 nm  f=0.0048  <S**2>=0.000
     309 -> 315       -0.11412
     310 -> 316        0.11804
     311 -> 313       -0.47588
     312 -> 314        0.49726
 This state for optimization and/or second-order correction.
 Total Energy, E(TD-HF/TD-DFT) =  -4069.75117531
 Copying the excited state density for this state as the 1-particle RhoCI density.

 Excited State   2:      Singlet-A      1.7126 eV  723.95 nm  f=0.6741  <S**2>=0.000
     309 -> 315        0.13325
     310 -> 316        0.12619
     311 -> 313        0.49385
     312 -> 314        0.47266

 Excited State   3:      Singlet-A      2.1774 eV  569.41 nm  f=0.0089  <S**2>=0.000
     309 -> 313       -0.34664
     310 -> 314        0.54549
     311 -> 315        0.14156
     312 -> 316       -0.22474

 Excited State   4:      Singlet-A      2.1982 eV  564.02 nm  f=0.1579  <S**2>=0.000
     309 -> 313        0.53905
     310 -> 314        0.34027
     311 -> 315       -0.23985
     312 -> 316       -0.15312

 Excited State   5:      Singlet-A      2.2314 eV  555.65 nm  f=0.0000  <S**2>=0.000
     312 -> 313        0.70708

 The electronic state is 1-A.
 Alpha  occ. eigenvalues --  -46.87896 -46.87358 -19.26339 -19.25979 -19.19097
 Alpha  occ. eigenvalues --  -19.18878 -19.18782 -19.18455 -19.18197 -19.17577
 Alpha  occ. eigenvalues --  -14.42566 -14.42205 -14.41554 -14.41057 -14.39500
 Alpha  occ. eigenvalues --  -14.39051 -14.38676 -14.38271 -10.39154 -10.38692
 Alpha  occ. eigenvalues --  -10.35513 -10.35140 -10.34422 -10.33742 -10.31708
 Alpha  occ. eigenvalues --  -10.31520 -10.31478 -10.31033 -10.30985 -10.30721
 Alpha  occ. eigenvalues --  -10.30669 -10.30593 -10.30319 -10.30070 -10.30024
 Alpha  occ. eigenvalues --  -10.30013 -10.29892 -10.29720 -10.29572 -10.29353
 Alpha  occ. eigenvalues --  -10.29162 -10.29080 -10.28930 -10.28830 -10.28493
 Alpha  occ. eigenvalues --  -10.28457 -10.28421 -10.28275 -10.28064 -10.27877
 Alpha  occ. eigenvalues --  -10.27873 -10.27843 -10.27676 -10.27665 -10.27630
 Alpha  occ. eigenvalues --  -10.27623 -10.27556 -10.27506 -10.27394 -10.27301
 Alpha  occ. eigenvalues --  -10.27295 -10.27225 -10.27159 -10.27147 -10.27120
 Alpha  occ. eigenvalues --  -10.26987 -10.26493 -10.26484 -10.26463 -10.26365
 Alpha  occ. eigenvalues --  -10.26364 -10.26233 -10.26128 -10.25962 -10.25890
 Alpha  occ. eigenvalues --  -10.25755 -10.25652 -10.25522 -10.25484 -10.25124
 Alpha  occ. eigenvalues --  -10.24931 -10.24908 -10.24881 -10.24552 -10.24513
 Alpha  occ. eigenvalues --  -10.24371  -3.16639  -3.16109  -1.91520  -1.91107
 Alpha  occ. eigenvalues --   -1.90992  -1.90949  -1.90580  -1.90416  -1.16690
 Alpha  occ. eigenvalues --   -1.16270  -1.08650  -1.08164  -1.07275  -1.06711
 Alpha  occ. eigenvalues --   -1.06707  -1.06563  -1.04695  -1.04188  -1.03866
 Alpha  occ. eigenvalues --   -1.03357  -1.03328  -1.02732  -1.02508  -1.01795
 Alpha  occ. eigenvalues --   -0.92062  -0.91608  -0.89642  -0.89355  -0.89215
 Alpha  occ. eigenvalues --   -0.88878  -0.88406  -0.87953  -0.87948  -0.87801
 Alpha  occ. eigenvalues --   -0.87451  -0.87396  -0.87372  -0.86864  -0.85138
 Alpha  occ. eigenvalues --   -0.84728  -0.84062  -0.83610  -0.83066  -0.82777
 Alpha  occ. eigenvalues --   -0.82699  -0.82378  -0.81669  -0.81267  -0.80693
 Alpha  occ. eigenvalues --   -0.80134  -0.78895  -0.78350  -0.77351  -0.77069
 Alpha  occ. eigenvalues --   -0.76877  -0.76613  -0.76031  -0.75531  -0.75005
 Alpha  occ. eigenvalues --   -0.74515  -0.72875  -0.72390  -0.71777  -0.71275
 Alpha  occ. eigenvalues --   -0.70057  -0.69526  -0.69013  -0.68553  -0.67737
 Alpha  occ. eigenvalues --   -0.67387  -0.67291  -0.66951  -0.65432  -0.64974
 Alpha  occ. eigenvalues --   -0.64955  -0.64736  -0.64471  -0.64387  -0.64353
 Alpha  occ. eigenvalues --   -0.63929  -0.62372  -0.61946  -0.60541  -0.60067
 Alpha  occ. eigenvalues --   -0.59942  -0.59503  -0.59090  -0.58680  -0.58600
 Alpha  occ. eigenvalues --   -0.58098  -0.57656  -0.57405  -0.57133  -0.56912
 Alpha  occ. eigenvalues --   -0.56403  -0.56069  -0.55903  -0.55615  -0.55568
 Alpha  occ. eigenvalues --   -0.55443  -0.55167  -0.54948  -0.54623  -0.54187
 Alpha  occ. eigenvalues --   -0.54060  -0.53644  -0.53399  -0.53345  -0.53022
 Alpha  occ. eigenvalues --   -0.52947  -0.52876  -0.52855  -0.52607  -0.52589
 Alpha  occ. eigenvalues --   -0.52435  -0.52171  -0.51981  -0.51763  -0.51521
 Alpha  occ. eigenvalues --   -0.51395  -0.51294  -0.50870  -0.50684  -0.50262
 Alpha  occ. eigenvalues --   -0.50170  -0.50031  -0.49723  -0.49638  -0.49606
 Alpha  occ. eigenvalues --   -0.49309  -0.49222  -0.49216  -0.48885  -0.48782
 Alpha  occ. eigenvalues --   -0.48686  -0.48555  -0.48516  -0.48244  -0.48103
 Alpha  occ. eigenvalues --   -0.48032  -0.47811  -0.47397  -0.47322  -0.46922
 Alpha  occ. eigenvalues --   -0.46855  -0.46709  -0.46462  -0.46433  -0.46295
 Alpha  occ. eigenvalues --   -0.46252  -0.45991  -0.45901  -0.45763  -0.45480
 Alpha  occ. eigenvalues --   -0.45310  -0.44918  -0.44659  -0.44643  -0.44268
 Alpha  occ. eigenvalues --   -0.44235  -0.44221  -0.44172  -0.44099  -0.43839
 Alpha  occ. eigenvalues --   -0.43810  -0.43615  -0.43579  -0.43513  -0.43247
 Alpha  occ. eigenvalues --   -0.43127  -0.43088  -0.42816  -0.42738  -0.42611
 Alpha  occ. eigenvalues --   -0.42545  -0.42299  -0.42149  -0.41798  -0.41701
 Alpha  occ. eigenvalues --   -0.41688  -0.41301  -0.41249  -0.41194  -0.41027
 Alpha  occ. eigenvalues --   -0.40932  -0.40700  -0.40687  -0.40478  -0.40457
 Alpha  occ. eigenvalues --   -0.40433  -0.40218  -0.39988  -0.39606  -0.39203
 Alpha  occ. eigenvalues --   -0.38604  -0.38094  -0.37945  -0.37442  -0.37414
 Alpha  occ. eigenvalues --   -0.37402  -0.36992  -0.36913  -0.36795  -0.36436
 Alpha  occ. eigenvalues --   -0.36297  -0.35922  -0.34386  -0.33941  -0.33845
 Alpha  occ. eigenvalues --   -0.33488  -0.33284  -0.32864  -0.31410  -0.31137
 Alpha  occ. eigenvalues --   -0.31013  -0.30653  -0.30057  -0.29535  -0.29473
 Alpha  occ. eigenvalues --   -0.29396  -0.29029  -0.28844  -0.24183  -0.23712
 Alpha  occ. eigenvalues --   -0.21231  -0.20812
 Alpha virt. eigenvalues --   -0.08867  -0.08471  -0.01852  -0.01389  -0.00146
 Alpha virt. eigenvalues --    0.00266   0.02129   0.02423   0.02700   0.03634
 Alpha virt. eigenvalues --    0.04564   0.04957   0.05059   0.05562   0.05911

 Mulliken charges:
               1
     1  Mg   0.838671
     2  C   -0.003439
     3  C   -0.095217
     4  C   -0.045298
     5  C   -0.064008
     6  N   -0.256551
     7  C   -0.053386
     8  C   -0.013380
     9  C   -0.086845
    10  C    0.045933
    11  C    0.104787
    12  C    0.050530
    13  C   -0.071135
    14  H    0.034288
    15  N   -0.433275
    16  C    0.168297
    17  C   -0.177848
    18  C   -0.003692
    19  C    0.149062
    20  C    0.110372
    21  C    0.013255
    22  O   -0.248725
    23  C    0.062465
    24  N   -0.340944
    25  C    0.041052
    26  C   -0.028675
    27  C   -0.024031
    28  C    0.074739
    29  C    0.076042
    30  C    0.035932
    31  C   -0.010326
    32  N   -0.310719
    33  C    0.080775
    34  C   -0.169716
    35  C    0.009197
    36  C    0.083343
    37  C    0.126983
    38  C    0.047262
    39  O   -0.186061
    40  C   -0.006122
    41  C    0.214551
    42  O   -0.257986
    43  O   -0.304930
    44  C    0.156339
    45  H   -0.017900
    46  H   -0.016452
    47  H   -0.041550
    48  H    0.001573
    49  H   -0.004983
    50  H    0.025870
    51  H    0.016845
    52  H    0.016620
    53  H    0.010517
    54  H    0.044456
    55  H    0.019332
    56  H    0.016990
    57  H    0.005244
    58  H    0.027201
    59  H    0.038021
    60  H    0.036982
    61  H    0.036620
    62  H    0.030529
    63  H    0.016901
    64  H    0.009925
    65  H    0.023546
    66  H    0.012773
    67  H    0.004891
    68  H    0.006429
    69  H    0.004514
    70  H    0.012004
    71  H    0.017005
    72  H    0.031482
    73  H    0.048943
    74  H    0.008637
    75  H    0.046361
    76  H    0.035339
    77  H    0.044174
    78  H    0.044816
    79  H    0.056167
    80  Mg   0.836385
    81  C   -0.014750
    82  C   -0.088234
    83  C   -0.045409
    84  C   -0.065791
    85  N   -0.254443
    86  C   -0.048277
    87  C   -0.014872
    88  C   -0.091773
    89  C    0.045415
    90  C    0.110882
    91  C    0.062760
    92  C   -0.076895
    93  H    0.033979
    94  N   -0.423337
    95  C    0.162457
    96  C   -0.176196
    97  C   -0.008238
    98  C    0.151473
    99  C    0.100134
   100  C    0.015044
   101  O   -0.253512
   102  C    0.061539
   103  N   -0.350386
   104  C    0.037313
   105  C   -0.020453
   106  C   -0.034894
   107  C    0.089704
   108  C    0.073092
   109  C    0.034632
   110  C   -0.007320
   111  N   -0.324929
   112  C    0.079527
   113  C   -0.162453
   114  C    0.005425
   115  C    0.095203
   116  C    0.130585
   117  C    0.047393
   118  O   -0.185333
   119  C   -0.002361
   120  C    0.209964
   121  O   -0.252613
   122  O   -0.304280
   123  C    0.152430
   124  H   -0.022194
   125  H   -0.015903
   126  H   -0.041522
   127  H    0.001746
   128  H   -0.006251
   129  H    0.032008
   130  H    0.013397
   131  H    0.011750
   132  H    0.013273
   133  H    0.037826
   134  H    0.019748
   135  H    0.018477
   136  H    0.007199
   137  H    0.023721
   138  H    0.038935
   139  H    0.037120
   140  H    0.035749
   141  H    0.033427
   142  H    0.013766
   143  H    0.011545
   144  H    0.024355
   145  H    0.013862
   146  H    0.004839
   147  H    0.005470
   148  H    0.002886
   149  H    0.010798
   150  H    0.017379
   151  H    0.030609
   152  H    0.045800
   153  H    0.006490
   154  H    0.050684
   155  H    0.049021
   156  H    0.043096
   157  H    0.047975
   158  H    0.052944
 Sum of Mulliken charges =  -0.00000

 Dipole moment (field-independent basis, Debye):
    X=             -3.5781    Y=             -2.2829    Z=             -7.3670  Tot=              8.5022
 Quadrupole moment (field-independent basis, Debye-Ang):
   XX=           -515.0316   YY=           -550.6829   ZZ=           -449.7332
   XY=              3.0881   XZ=              2.2613   YZ=            -47.8876

 Normal termination of Gaussian 16 at Thu Sep  9 07:10:08 2021.
