 Gaussian 16, Revision A.03,
 Gaussian 16:  ES64L-G16RevA.03 25-Dec-2016

 -----------------------------------
 #p cam-b3lyp/Def2SVP td=(nstates=5)
 -----------------------------------

 --------------------------------
 TDDFT excited states in gaussian
 --------------------------------
 Symbolic Z-matrix:
 Charge =  0 Multiplicity = 1

                         Standard orientation:
 ---------------------------------------------------------------------
 Center     Atomic      Atomic             Coordinates (Angstroms)
 Number     Number       Type             X           Y           Z
 ---------------------------------------------------------------------
      1         12           0        8.139036    0.460099    0.879518
      2          6           0        8.535717   -2.460442   -1.151565
      3          6           0        9.279783    2.278087   -1.773157
      4          6           0        8.229489    2.988981    2.790851
      5          6           0        8.127813   -1.650358    3.652874
      6          7           0        8.791355   -0.130216   -1.151899
      7          6           0        8.838753   -1.275280   -1.825511
      8          6           0        9.167891   -1.089731   -3.337005
      9          6           0        9.919154    0.314459   -3.260509
     10          6           0        9.266929    0.870924   -2.007164
     11          6           0       11.420104    0.190070   -3.019308
     12          6           0        7.877787   -1.001886   -4.219980
     13          6           0        8.106366   -1.148204   -5.727195
     14          1           0        7.102172   -1.836456   -6.524221
     15          7           0        8.203778    2.387704    0.451734
     16          6           0        8.686297    2.949772   -0.682524
     17          6           0        8.512445    4.409245   -0.520054
     18          6           0        8.064725    4.661325    0.877836
     19          6           0        8.174728    3.341370    1.444401
     20          6           0        8.717355    5.391175   -1.632518
     21          6           0        7.619924    5.897869    1.592848
     22          8           0        7.496656    5.941022    2.864664
     23          6           0        7.414796    7.098770    0.762906
     24          7           0        8.393901    0.674154    2.940309
     25          6           0        8.333755    1.877173    3.521781
     26          6           0        8.259919    1.758685    5.015249
     27          6           0        8.036267    0.208305    5.325179
     28          6           0        8.106260   -0.334450    3.876460
     29          6           0        9.487025    2.261756    5.788000
     30          6           0        6.809241   -0.165196    6.194271
     31          6           0        5.534403    0.130564    5.436370
     32          7           0        8.122731   -1.684044    1.216307
     33          6           0        8.142359   -2.343296    2.453916
     34          6           0        8.231969   -3.787885    2.172490
     35          6           0        8.275238   -3.868192    0.781978
     36          6           0        8.242857   -2.555514    0.230508
     37          6           0        8.321717   -4.822414    3.145183
     38          6           0        8.366137   -4.756404   -0.365486
     39          8           0        8.329790   -5.977786   -0.521681
     40          6           0        8.661268   -3.875522   -1.658843
     41          6           0        7.713788   -4.322028   -2.738761
     42          8           0        6.485527   -4.128616   -2.632312
     43          8           0        8.415446   -4.687325   -3.822632
     44          6           0        7.533779   -5.113519   -4.942086
     45          1           0        9.844035    2.920859   -2.451688
     46          1           0        8.151065    3.828280    3.485016
     47          1           0        8.043678   -2.373775    4.465918
     48          1           0        9.833648   -1.845942   -3.753344
     49          1           0        9.690355    0.945698   -4.118944
     50          1           0       11.706011   -0.840785   -2.810704
     51          1           0       11.630157    0.825049   -2.158394
     52          1           0       11.982615    0.616323   -3.850371
     53          1           0        7.489786    0.016233   -4.189150
     54          1           0        7.137258   -1.733521   -3.894937
     55          1           0        9.100410   -1.540731   -5.943317
     56          1           0        8.105896   -0.152575   -6.170954
     57          1           0        9.202945    4.928429   -2.490779
     58          1           0        9.437379    6.128407   -1.277887
     59          1           0        7.790209    5.889579   -1.915938
     60          1           0        8.345533    7.346500    0.252116
     61          1           0        7.012546    7.860276    1.430104
     62          1           0        6.688666    6.868903   -0.017380
     63          1           0        7.419476    2.327041    5.411549
     64          1           0        8.881753   -0.228580    5.857117
     65          1           0        9.255601    3.032806    6.523275
     66          1           0       10.218283    2.619114    5.063537
     67          1           0       10.053038    1.485588    6.302401
     68          1           0        6.789935    0.437208    7.101841
     69          1           0        6.795785   -1.213772    6.491860
     70          1           0        5.380332    1.192547    5.624215
     71          1           0        4.709049   -0.460207    5.835108
     72          1           0        5.671999    0.006284    4.362076
     73          1           0        7.651202   -5.614135    2.811182
     74          1           0        8.044957   -4.460297    4.135071
     75          1           0        9.379404   -5.075507    3.073783
     76          1           0        9.701966   -4.053030   -1.928213
     77          1           0        7.841533   -6.119398   -5.227971
     78          1           0        7.594299   -4.331503   -5.699180
     79          1           0        6.485553   -5.282072   -4.692785
     80         12           0       -7.663933    0.490858   -0.651305
     81          6           0      -10.078139   -1.722118    0.816156
     82          6           0      -10.115573    2.860416   -0.747337
     83          6           0       -5.698910    2.312677   -2.350437
     84          6           0       -5.789585   -2.327931   -1.480127
     85          7           0       -9.782668    0.454345   -0.017337
     86          6           0      -10.573230   -0.421996    0.583801
     87          6           0      -11.945832    0.149805    1.029413
     88          6           0      -12.045501    1.371700   -0.007853
     89          6           0      -10.556323    1.607302   -0.251826
     90          6           0      -12.691171    0.988417   -1.329051
     91          6           0      -11.928564    0.656770    2.514232
     92          6           0      -13.307940    0.941085    3.112781
     93          1           0      -13.525276    0.653706    4.527934
     94          7           0       -7.700014    2.444939   -0.996033
     95          6           0       -8.778421    3.255903   -0.970821
     96          6           0       -8.280937    4.597586   -1.312220
     97          6           0       -6.849391    4.481888   -1.702102
     98          6           0       -6.696240    3.040928   -1.718351
     99          6           0       -9.118714    5.835532   -1.174273
    100          6           0       -5.796392    5.499412   -2.021547
    101          8           0       -4.684488    5.169293   -2.566996
    102          6           0       -6.142721    6.904639   -1.762888
    103          7           0       -6.093640    0.050250   -1.940636
    104          6           0       -5.369098    1.030599   -2.507972
    105          6           0       -4.129280    0.479002   -3.170529
    106          6           0       -4.047041   -1.053303   -2.720158
    107          6           0       -5.359551   -1.150301   -1.911902
    108          6           0       -4.097011    0.563145   -4.696397
    109          6           0       -2.727526   -1.518768   -2.045694
    110          6           0       -2.573022   -0.850764   -0.698370
    111          7           0       -7.772366   -1.626541   -0.235445
    112          6           0       -6.899216   -2.633337   -0.702416
    113          6           0       -7.446445   -3.928640   -0.249480
    114          6           0       -8.621631   -3.584528    0.435358
    115          6           0       -8.805252   -2.175969    0.393644
    116          6           0       -6.890569   -5.209297   -0.527051
    117          6           0       -9.754172   -4.093476    1.174975
    118          8           0      -10.088194   -5.198484    1.600564
    119          6           0      -10.814101   -2.921420    1.345921
    120          6           0      -11.250604   -2.896178    2.785134
    121          8           0      -10.443683   -2.604369    3.685322
    122          8           0      -12.590407   -3.006476    2.841241
    123          6           0      -13.072288   -2.975326    4.247883
    124          1           0      -10.865765    3.598465   -1.032631
    125          1           0       -4.933034    2.903785   -2.857883
    126          1           0       -5.212153   -3.245166   -1.614023
    127          1           0      -12.784051   -0.522936    0.893118
    128          1           0      -12.499228    2.245167    0.453174
    129          1           0      -12.869905   -0.074411   -1.396770
    130          1           0      -11.998611    1.305343   -2.097798
    131          1           0      -13.603182    1.571435   -1.486070
    132          1           0      -11.499566    1.666660    2.542819
    133          1           0      -11.395367   -0.028137    3.144506
    134          1           0      -14.116323    0.515764    2.505697
    135          1           0      -13.485618    2.018714    3.078607
    136          1           0      -10.177456    5.590172   -1.025034
    137          1           0       -9.092585    6.348750   -2.141634
    138          1           0       -8.744673    6.513621   -0.404243
    139          1           0       -7.027806    7.169863   -2.336247
    140          1           0       -5.233305    7.472432   -1.968924
    141          1           0       -6.409460    7.010276   -0.705395
    142          1           0       -3.242857    0.995441   -2.823161
    143          1           0       -4.153880   -1.735854   -3.576051
    144          1           0       -3.218698    1.112521   -5.084762
    145          1           0       -5.014810    1.027340   -5.032124
    146          1           0       -4.120643   -0.395193   -5.212353
    147          1           0       -1.866975   -1.211444   -2.644995
    148          1           0       -2.663611   -2.594251   -1.918230
    149          1           0       -2.142539    0.122271   -0.953289
    150          1           0       -1.902804   -1.424141   -0.061123
    151          1           0       -3.549690   -0.668032   -0.235384
    152          1           0       -6.936196   -5.774805    0.394157
    153          1           0       -5.869749   -5.128432   -0.894672
    154          1           0       -7.579401   -5.557212   -1.301480
    155          1           0      -11.644358   -3.129388    0.669905
    156          1           0      -13.663552   -3.883051    4.403227
    157          1           0      -13.595545   -2.007499    4.363052
    158          1           0      -12.331675   -3.068294    5.033569
 ---------------------------------------------------------------------

 SCF Done:  E(RCAM-B3LYP) =  -4069.81189490     A.U. after   19 cycles

 Excitation energies and oscillator strengths:

 Excited State   1:      Singlet-A      1.6694 eV  742.68 nm  f=0.0200  <S**2>=0.000
     309 -> 315       -0.10236
     310 -> 316        0.13869
     311 -> 313       -0.40607
     312 -> 314        0.55337
 This state for optimization and/or second-order correction.
 Total Energy, E(TD-HF/TD-DFT) =  -4069.75054537
 Copying the excited state density for this state as the 1-particle RhoCI density.

 Excited State   2:      Singlet-A      1.6853 eV  735.69 nm  f=0.7363  <S**2>=0.000
     309 -> 315        0.14275
     310 -> 316        0.10416
     311 -> 313        0.55255
     312 -> 314        0.40554

 Excited State   3:      Singlet-A      2.1855 eV  567.31 nm  f=0.0934  <S**2>=0.000
     310 -> 314        0.63941
     312 -> 316       -0.27140

 Excited State   4:      Singlet-A      2.1931 eV  565.35 nm  f=0.1065  <S**2>=0.000
     309 -> 313        0.63754
     311 -> 315       -0.27710

 Excited State   5:      Singlet-A      2.7946 eV  443.66 nm  f=0.0000  <S**2>=0.000
     312 -> 313        0.70700

 The electronic state is 1-A.
 Alpha  occ. eigenvalues --  -46.87751 -46.87581 -19.26290 -19.26277 -19.19097
 Alpha  occ. eigenvalues --  -19.19014 -19.18754 -19.18658 -19.18133 -19.17979
 Alpha  occ. eigenvalues --  -14.42422 -14.42406 -14.41402 -14.41274 -14.39355
 Alpha  occ. eigenvalues --  -14.39275 -14.38542 -14.38520 -10.39070 -10.39026
 Alpha  occ. eigenvalues --  -10.35386 -10.35337 -10.34354 -10.34156 -10.31702
 Alpha  occ. eigenvalues --  -10.31681 -10.31365 -10.31232 -10.30956 -10.30867
 Alpha  occ. eigenvalues --  -10.30526 -10.30460 -10.30316 -10.30280 -10.30153
 Alpha  occ. eigenvalues --  -10.30051 -10.29873 -10.29804 -10.29582 -10.29360
 Alpha  occ. eigenvalues --  -10.29323 -10.29204 -10.28719 -10.28659 -10.28605
 Alpha  occ. eigenvalues --  -10.28525 -10.28332 -10.28321 -10.28082 -10.28079
 Alpha  occ. eigenvalues --  -10.27924 -10.27746 -10.27682 -10.27594 -10.27534
 Alpha  occ. eigenvalues --  -10.27441 -10.27423 -10.27410 -10.27408 -10.27392
 Alpha  occ. eigenvalues --  -10.27392 -10.27389 -10.27362 -10.27269 -10.27129
 Alpha  occ. eigenvalues --  -10.26982 -10.26686 -10.26636 -10.26375 -10.26337
 Alpha  occ. eigenvalues --  -10.26199 -10.26114 -10.25971 -10.25969 -10.25948
 Alpha  occ. eigenvalues --  -10.25840 -10.25795 -10.25746 -10.25381 -10.25312
 Alpha  occ. eigenvalues --  -10.24796 -10.24788 -10.24739 -10.24611 -10.24610
 Alpha  occ. eigenvalues --  -10.24539  -3.16494  -3.16331  -1.91375  -1.91213
 Alpha  occ. eigenvalues --   -1.90962  -1.90804  -1.90802  -1.90639  -1.16626
 Alpha  occ. eigenvalues --   -1.16583  -1.08593  -1.08586  -1.07154  -1.06911
 Alpha  occ. eigenvalues --   -1.06882  -1.06635  -1.04538  -1.04421  -1.03713
 Alpha  occ. eigenvalues --   -1.03584  -1.03187  -1.02955  -1.02365  -1.02031
 Alpha  occ. eigenvalues --   -0.91932  -0.91912  -0.89466  -0.89388  -0.89154
 Alpha  occ. eigenvalues --   -0.89085  -0.88233  -0.88110  -0.87824  -0.87709
 Alpha  occ. eigenvalues --   -0.87630  -0.87607  -0.87219  -0.87055  -0.84945
 Alpha  occ. eigenvalues --   -0.84932  -0.83882  -0.83760  -0.82906  -0.82860
 Alpha  occ. eigenvalues --   -0.82608  -0.82583  -0.81556  -0.81523  -0.80557
 Alpha  occ. eigenvalues --   -0.80370  -0.78746  -0.78562  -0.77172  -0.77066
 Alpha  occ. eigenvalues --   -0.76899  -0.76816  -0.75888  -0.75769  -0.74849
 Alpha  occ. eigenvalues --   -0.74711  -0.72727  -0.72615  -0.71629  -0.71504
 Alpha  occ. eigenvalues --   -0.69847  -0.69623  -0.68833  -0.68757  -0.67596
 Alpha  occ. eigenvalues --   -0.67526  -0.67182  -0.67139  -0.65251  -0.65202
 Alpha  occ. eigenvalues --   -0.64814  -0.64687  -0.64581  -0.64577  -0.64218
 Alpha  occ. eigenvalues --   -0.64095  -0.62271  -0.62202  -0.60388  -0.60265
 Alpha  occ. eigenvalues --   -0.59766  -0.59728  -0.58943  -0.58911  -0.58460
 Alpha  occ. eigenvalues --   -0.58344  -0.57554  -0.57483  -0.57262  -0.57149
 Alpha  occ. eigenvalues --   -0.56265  -0.56126  -0.55956  -0.55819  -0.55472
 Alpha  occ. eigenvalues --   -0.55387  -0.55296  -0.55151  -0.54486  -0.54391
 Alpha  occ. eigenvalues --   -0.53862  -0.53848  -0.53250  -0.53180  -0.53148
 Alpha  occ. eigenvalues --   -0.53072  -0.52879  -0.52828  -0.52705  -0.52611
 Alpha  occ. eigenvalues --   -0.52377  -0.52250  -0.51869  -0.51792  -0.51597
 Alpha  occ. eigenvalues --   -0.51579  -0.51154  -0.51115  -0.50510  -0.50412
 Alpha  occ. eigenvalues --   -0.49976  -0.49910  -0.49867  -0.49765  -0.49472
 Alpha  occ. eigenvalues --   -0.49424  -0.49173  -0.49135  -0.49060  -0.49033
 Alpha  occ. eigenvalues --   -0.48558  -0.48489  -0.48412  -0.48396  -0.48284
 Alpha  occ. eigenvalues --   -0.48278  -0.47650  -0.47519  -0.47250  -0.47046
 Alpha  occ. eigenvalues --   -0.46751  -0.46621  -0.46521  -0.46486  -0.46313
 Alpha  occ. eigenvalues --   -0.46185  -0.46120  -0.46000  -0.45788  -0.45743
 Alpha  occ. eigenvalues --   -0.45150  -0.45116  -0.44540  -0.44457  -0.44445
 Alpha  occ. eigenvalues --   -0.44396  -0.44095  -0.44057  -0.44049  -0.43979
 Alpha  occ. eigenvalues --   -0.43976  -0.43876  -0.43473  -0.43462  -0.43343
 Alpha  occ. eigenvalues --   -0.43312  -0.42984  -0.42859  -0.42822  -0.42676
 Alpha  occ. eigenvalues --   -0.42605  -0.42446  -0.41962  -0.41857  -0.41662
 Alpha  occ. eigenvalues --   -0.41591  -0.41497  -0.41378  -0.41098  -0.40915
 Alpha  occ. eigenvalues --   -0.40827  -0.40768  -0.40662  -0.40619  -0.40520
 Alpha  occ. eigenvalues --   -0.40382  -0.40205  -0.40170  -0.39378  -0.39285
 Alpha  occ. eigenvalues --   -0.38418  -0.38250  -0.37718  -0.37589  -0.37270
 Alpha  occ. eigenvalues --   -0.37228  -0.37169  -0.37128  -0.36698  -0.36691
 Alpha  occ. eigenvalues --   -0.36157  -0.36128  -0.34241  -0.34173  -0.33795
 Alpha  occ. eigenvalues --   -0.33757  -0.33143  -0.33096  -0.31285  -0.31216
 Alpha  occ. eigenvalues --   -0.30991  -0.30896  -0.29994  -0.29883  -0.29399
 Alpha  occ. eigenvalues --   -0.29276  -0.29255  -0.29134  -0.24036  -0.23957
 Alpha  occ. eigenvalues --   -0.21081  -0.21037
 Alpha virt. eigenvalues --   -0.08727  -0.08716  -0.01701  -0.01604  -0.00007
 Alpha virt. eigenvalues --    0.00036   0.02243   0.02286   0.03166   0.03313
 Alpha virt. eigenvalues --    0.04756   0.04802   0.05112   0.05230   0.06201

 Mulliken charges:
               1
     1  Mg   0.838616
     2  C   -0.003189
     3  C   -0.094109
     4  C   -0.045733
     5  C   -0.063899
     6  N   -0.256788
     7  C   -0.052598
     8  C   -0.013970
     9  C   -0.087018
    10  C    0.046299
    11  C    0.104809
    12  C    0.053474
    13  C   -0.071696
    14  H    0.035653
    15  N   -0.433154
    16  C    0.168479
    17  C   -0.177052
    18  C   -0.003855
    19  C    0.148748
    20  C    0.110154
    21  C    0.012496
    22  O   -0.249536
    23  C    0.062362
    24  N   -0.341134
    25  C    0.041255
    26  C   -0.028196
    27  C   -0.023999
    28  C    0.074839
    29  C    0.076177
    30  C    0.035108
    31  C   -0.004554
    32  N   -0.310412
    33  C    0.080294
    34  C   -0.169750
    35  C    0.008275
    36  C    0.082854
    37  C    0.127328
    38  C    0.045948
    39  O   -0.188608
    40  C   -0.005273
    41  C    0.212943
    42  O   -0.257577
    43  O   -0.304673
    44  C    0.157802
    45  H   -0.017608
    46  H   -0.016731
    47  H   -0.041391
    48  H    0.000870
    49  H   -0.004024
    50  H    0.025445
    51  H    0.016504
    52  H    0.016635
    53  H    0.011287
    54  H    0.043747
    55  H    0.017940
    56  H    0.018096
    57  H    0.005813
    58  H    0.026795
    59  H    0.039947
    60  H    0.037201
    61  H    0.035768
    62  H    0.031960
    63  H    0.016728
    64  H    0.009437
    65  H    0.023261
    66  H    0.012464
    67  H    0.004743
    68  H    0.006454
    69  H    0.004793
    70  H    0.008940
    71  H    0.018459
    72  H    0.028784
    73  H    0.047505
    74  H    0.009256
    75  H    0.045973
    76  H    0.035151
    77  H    0.042988
    78  H    0.046405
    79  H    0.053263
    80  Mg   0.837867
    81  C   -0.016940
    82  C   -0.087972
    83  C   -0.045502
    84  C   -0.064782
    85  N   -0.254566
    86  C   -0.049873
    87  C   -0.015093
    88  C   -0.090459
    89  C    0.045721
    90  C    0.114431
    91  C    0.062559
    92  C   -0.077822
    93  H    0.034788
    94  N   -0.423422
    95  C    0.162857
    96  C   -0.174830
    97  C   -0.007978
    98  C    0.152103
    99  C    0.099444
   100  C    0.015495
   101  O   -0.253493
   102  C    0.061259
   103  N   -0.350153
   104  C    0.037538
   105  C   -0.019693
   106  C   -0.035205
   107  C    0.089094
   108  C    0.073853
   109  C    0.034668
   110  C   -0.007891
   111  N   -0.324170
   112  C    0.078604
   113  C   -0.162823
   114  C    0.002182
   115  C    0.096338
   116  C    0.131350
   117  C    0.042470
   118  O   -0.187842
   119  C    0.000882
   120  C    0.211246
   121  O   -0.250966
   122  O   -0.305675
   123  C    0.152055
   124  H   -0.019932
   125  H   -0.015801
   126  H   -0.039690
   127  H   -0.000749
   128  H   -0.004474
   129  H    0.022394
   130  H    0.014380
   131  H    0.016071
   132  H    0.013921
   133  H    0.037717
   134  H    0.020706
   135  H    0.019501
   136  H    0.008634
   137  H    0.025828
   138  H    0.039613
   139  H    0.038085
   140  H    0.035962
   141  H    0.033969
   142  H    0.014474
   143  H    0.012563
   144  H    0.024750
   145  H    0.011193
   146  H    0.005743
   147  H    0.007232
   148  H    0.004814
   149  H    0.010578
   150  H    0.019507
   151  H    0.029284
   152  H    0.046213
   153  H    0.009325
   154  H    0.046826
   155  H    0.034887
   156  H    0.043836
   157  H    0.049398
   158  H    0.053587
 Sum of Mulliken charges =  -0.00000

 Dipole moment (field-independent basis, Debye):
    X=              0.0465    Y=              6.8844    Z=             -3.6404  Tot=              7.7878
 Quadrupole moment (field-independent basis, Debye-Ang):
   XX=           -420.1570   YY=           -541.7487   ZZ=           -481.8001
   XY=            -27.1507   XZ=            -13.0954   YZ=             -2.4594

 Normal termination of Gaussian 16 at Sat Sep 11 19:49:01 2021.
