 Gaussian 16, Revision A.03,
 Gaussian 16:  ES64L-G16RevA.03 25-Dec-2016

 -----------------------------------
 #p cam-b3lyp/Def2SVP td=(nstates=5)
 -----------------------------------

 --------------------------------
 TDDFT excited states in gaussian
 --------------------------------
 Symbolic Z-matrix:
 Charge =  0 Multiplicity = 1

                         Standard orientation:
 ---------------------------------------------------------------------
 Center     Atomic      Atomic             Coordinates (Angstroms)
 Number     Number       Type             X           Y           Z
 ---------------------------------------------------------------------
      1         12           0        6.495270    0.683272    0.532357
      2          6           0        7.024006   -2.146846   -1.594397
      3          6           0        7.165584    2.653160   -2.171953
      4          6           0        6.481151    3.181685    2.485394
      5          6           0        6.986609   -1.449169    3.244724
      6          7           0        7.013650    0.197144   -1.564214
      7          6           0        7.125696   -0.926401   -2.265828
      8          6           0        7.286333   -0.685408   -3.796675
      9          6           0        7.878060    0.794574   -3.757789
     10          6           0        7.289501    1.256845   -2.436492
     11          6           0        9.399560    0.840045   -3.660457
     12          6           0        5.916378   -0.734961   -4.553312
     13          6           0        6.015445   -0.835202   -6.078268
     14          1           0        5.024095   -1.623979   -6.794091
     15          7           0        6.300876    2.610804    0.145467
     16          6           0        6.606613    3.238657   -1.015400
     17          6           0        6.285318    4.666428   -0.803451
     18          6           0        5.947160    4.847974    0.635571
     19          6           0        6.258974    3.542330    1.158488
     20          6           0        6.271151    5.679246   -1.906967
     21          6           0        5.435683    6.016316    1.417556
     22          8           0        5.430006    6.029103    2.695984
     23          6           0        5.018152    7.196099    0.638567
     24          7           0        6.919409    0.899272    2.564864
     25          6           0        6.779436    2.080081    3.177304
     26          6           0        6.862011    1.935192    4.667984
     27          6           0        6.845414    0.365631    4.961168
     28          6           0        6.837975   -0.147315    3.499969
     29          6           0        8.092428    2.565880    5.334555
     30          6           0        5.756791   -0.156932    5.931863
     31          6           0        4.390367    0.000224    5.303147
     32          7           0        6.753358   -1.452660    0.819111
     33          6           0        6.965076   -2.120783    2.033797
     34          6           0        7.190043   -3.541935    1.711638
     35          6           0        7.109491   -3.599310    0.321650
     36          6           0        6.876707   -2.292185   -0.193644
     37          6           0        7.488265   -4.571471    2.647347
     38          6           0        7.190431   -4.456787   -0.849690
     39          8           0        7.277542   -5.672229   -1.030256
     40          6           0        7.259681   -3.531732   -2.144026
     41          6           0        6.270183   -4.070328   -3.141080
     42          8           0        5.043691   -4.020338   -2.916168
     43          8           0        6.902181   -4.339165   -4.293836
     44          6           0        5.971715   -4.849545   -5.335901
     45          1           0        7.586441    3.364834   -2.884932
     46          1           0        6.374907    3.997691    3.203227
     47          1           0        7.062518   -2.187601    4.044980
     48          1           0        7.990539   -1.355037   -4.290755
     49          1           0        7.498738    1.406139   -4.576217
     50          1           0        9.818611   -0.153776   -3.503495
     51          1           0        9.617581    1.484070   -2.808289
     52          1           0        9.828621    1.338357   -4.530152
     53          1           0        5.420592    0.231502   -4.462731
     54          1           0        5.297552   -1.550679   -4.177832
     55          1           0        7.022331   -1.108452   -6.395166
     56          1           0        5.860284    0.159297   -6.496716
     57          1           0        6.721943    5.286013   -2.817296
     58          1           0        6.933790    6.489649   -1.603874
     59          1           0        5.270903    6.071600   -2.091067
     60          1           0        5.862060    7.555272    0.049192
     61          1           0        4.597853    7.898049    1.357918
     62          1           0        4.251643    6.894313   -0.075813
     63          1           0        6.004342    2.398447    5.154013
     64          1           0        7.781617    0.021908    5.401680
     65          1           0        7.846485    3.296038    6.105973
     66          1           0        8.706318    3.013763    4.553638
     67          1           0        8.788871    1.853322    5.775741
     68          1           0        5.756092    0.427860    6.851082
     69          1           0        5.890240   -1.203786    6.204878
     70          1           0        4.135942    1.035106    5.529242
     71          1           0        3.678756   -0.686216    5.763169
     72          1           0        4.438186   -0.093984    4.218101
     73          1           0        6.882712   -5.430584    2.358906
     74          1           0        7.267912   -4.255908    3.666890
     75          1           0        8.556132   -4.700737    2.471825
     76          1           0        8.283356   -3.585382   -2.513258
     77          1           0        6.362464   -5.809851   -5.672595
     78          1           0        5.871160   -4.056314   -6.076899
     79          1           0        4.977765   -5.140258   -4.994013
     80         12           0       -6.659853   -0.782879    0.486058
     81          6           0       -6.726153    1.747511   -2.057914
     82          6           0       -6.064746    1.708393    2.738606
     83          6           0       -6.148727   -3.020880    2.676387
     84          6           0       -6.119964   -3.117058   -2.044929
     85          7           0       -6.445379    1.405776    0.249345
     86          6           0       -6.551358    2.261469   -0.756096
     87          6           0       -6.545561    3.754947   -0.332961
     88          6           0       -5.769651    3.605761    1.065106
     89          6           0       -6.140145    2.161819    1.397408
     90          6           0       -4.258717    3.691502    0.926978
     91          6           0       -7.993494    4.323874   -0.128447
     92          6           0       -8.075874    5.847888   -0.017363
     93          1           0       -9.237947    6.525398   -0.585742
     94          7           0       -6.664225   -0.665715    2.467174
     95          6           0       -6.424668    0.429750    3.218061
     96          6           0       -6.526081   -0.011793    4.617669
     97          6           0       -6.682218   -1.491703    4.632512
     98          6           0       -6.479133   -1.792279    3.229487
     99          6           0       -6.551431    0.945997    5.773268
    100          6           0       -6.954841   -2.475128    5.730130
    101          8           0       -6.813795   -3.736849    5.554104
    102          6           0       -7.301357   -1.912382    7.043420
    103          7           0       -5.991282   -2.747741    0.364907
    104          6           0       -5.909326   -3.519069    1.463210
    105          6           0       -5.671216   -4.964835    1.097893
    106          6           0       -5.852158   -5.042355   -0.489192
    107          6           0       -6.085911   -3.545740   -0.790642
    108          6           0       -4.304774   -5.531771    1.482360
    109          6           0       -6.878669   -6.074582   -1.030912
    110          6           0       -8.279465   -5.665111   -0.636593
    111          7           0       -6.638939   -0.757848   -1.674268
    112          6           0       -6.365725   -1.841670   -2.537262
    113          6           0       -6.355544   -1.309164   -3.915210
    114          6           0       -6.602697    0.062628   -3.755234
    115          6           0       -6.736042    0.367295   -2.373614
    116          6           0       -6.090777   -2.059878   -5.095229
    117          6           0       -6.770563    1.324070   -4.440293
    118          8           0       -6.846969    1.669154   -5.618773
    119          6           0       -6.732317    2.492790   -3.363723
    120          6           0       -7.888134    3.415362   -3.638425
    121          8           0       -9.059124    3.019696   -3.501120
    122          8           0       -7.422964    4.666786   -3.805571
    123          6           0       -8.533199    5.620430   -4.069689
    124          1           0       -5.651270    2.380523    3.491045
    125          1           0       -6.070564   -3.850367    3.383018
    126          1           0       -6.056171   -3.797865   -2.896454
    127          1           0       -5.995384    4.412584   -0.995220
    128          1           0       -6.170526    4.284206    1.813684
    129          1           0       -3.949712    3.720493   -0.107345
    130          1           0       -3.868182    2.807499    1.413884
    131          1           0       -3.875855    4.543242    1.496442
    132          1           0       -8.350731    4.043080    0.870691
    133          1           0       -8.650289    3.982110   -0.904615
    134          1           0       -7.149152    6.335635   -0.343315
    135          1           0       -8.162021    6.114690    1.038773
    136          1           0       -6.252677    1.955668    5.465516
    137          1           0       -5.765486    0.630024    6.467765
    138          1           0       -7.508561    0.946315    6.299180
    139          1           0       -6.494419   -1.268252    7.384596
    140          1           0       -7.547664   -2.769676    7.672922
    141          1           0       -8.185497   -1.275378    6.928840
    142          1           0       -6.405354   -5.608241    1.567125
    143          1           0       -4.915144   -5.321764   -0.992952
    144          1           0       -4.369973   -6.427395    2.128641
    145          1           0       -3.736433   -4.751202    1.970444
    146          1           0       -3.662022   -5.795990    0.644352
    147          1           0       -6.703548   -7.054832   -0.580804
    148          1           0       -6.835794   -6.202227   -2.107413
    149          1           0       -8.372212   -6.052612    0.382391
    150          1           0       -9.012492   -6.119675   -1.299972
    151          1           0       -8.370403   -4.573965   -0.583861
    152          1           0       -6.818460   -1.747886   -5.832549
    153          1           0       -6.148138   -3.129934   -4.906926
    154          1           0       -5.068902   -1.734734   -5.308068
    155          1           0       -5.771540    2.999184   -3.463921
    156          1           0       -8.300971    6.128387   -5.010819
    157          1           0       -8.608629    6.249637   -3.162961
    158          1           0       -9.509594    5.204558   -4.289152
 ---------------------------------------------------------------------

 SCF Done:  E(RCAM-B3LYP) =  -4069.81191055     A.U. after   19 cycles

 Excitation energies and oscillator strengths:

 Excited State   1:      Singlet-A      1.6741 eV  740.61 nm  f=0.3332  <S**2>=0.000
     310 -> 316        0.16603
     311 -> 313        0.19839
     312 -> 314        0.65678
     310 <- 316        0.10019
 This state for optimization and/or second-order correction.
 Total Energy, E(TD-HF/TD-DFT) =  -4069.75038936
 Copying the excited state density for this state as the 1-particle RhoCI density.

 Excited State   2:      Singlet-A      1.6795 eV  738.20 nm  f=0.3984  <S**2>=0.000
     309 -> 315        0.16776
     311 -> 313        0.65635
     312 -> 314       -0.19821
     309 <- 315        0.10044

 Excited State   3:      Singlet-A      2.1854 eV  567.33 nm  f=0.0978  <S**2>=0.000
     310 -> 314        0.63877
     312 -> 316       -0.27100

 Excited State   4:      Singlet-A      2.1922 eV  565.58 nm  f=0.1007  <S**2>=0.000
     309 -> 313        0.63684
     311 -> 315       -0.27621

 Excited State   5:      Singlet-A      2.6503 eV  467.80 nm  f=0.0000  <S**2>=0.000
     312 -> 313        0.70710

 The electronic state is 1-A.
 Alpha  occ. eigenvalues --  -46.87855 -46.87557 -19.26321 -19.26316 -19.19120
 Alpha  occ. eigenvalues --  -19.19059 -19.18901 -19.18622 -19.18220 -19.17982
 Alpha  occ. eigenvalues --  -14.42502 -14.42399 -14.41509 -14.41247 -14.39463
 Alpha  occ. eigenvalues --  -14.39251 -14.38643 -14.38500 -10.39119 -10.39047
 Alpha  occ. eigenvalues --  -10.35535 -10.35300 -10.34439 -10.34161 -10.31743
 Alpha  occ. eigenvalues --  -10.31703 -10.31451 -10.31217 -10.30960 -10.30933
 Alpha  occ. eigenvalues --  -10.30623 -10.30569 -10.30296 -10.30272 -10.30266
 Alpha  occ. eigenvalues --  -10.30020 -10.29983 -10.29778 -10.29691 -10.29332
 Alpha  occ. eigenvalues --  -10.29315 -10.29306 -10.28778 -10.28651 -10.28617
 Alpha  occ. eigenvalues --  -10.28533 -10.28421 -10.28311 -10.28147 -10.28063
 Alpha  occ. eigenvalues --  -10.27907 -10.27850 -10.27778 -10.27647 -10.27573
 Alpha  occ. eigenvalues --  -10.27570 -10.27535 -10.27525 -10.27457 -10.27390
 Alpha  occ. eigenvalues --  -10.27380 -10.27372 -10.27364 -10.27219 -10.27203
 Alpha  occ. eigenvalues --  -10.26988 -10.26720 -10.26638 -10.26508 -10.26335
 Alpha  occ. eigenvalues --  -10.26266 -10.26262 -10.26078 -10.25998 -10.25944
 Alpha  occ. eigenvalues --  -10.25892 -10.25821 -10.25758 -10.25508 -10.25187
 Alpha  occ. eigenvalues --  -10.24888 -10.24851 -10.24782 -10.24781 -10.24611
 Alpha  occ. eigenvalues --  -10.24581  -3.16597  -3.16307  -1.91479  -1.91189
 Alpha  occ. eigenvalues --   -1.91066  -1.90908  -1.90778  -1.90615  -1.16666
 Alpha  occ. eigenvalues --   -1.16611  -1.08676  -1.08594  -1.07305  -1.06905
 Alpha  occ. eigenvalues --   -1.06875  -1.06681  -1.04633  -1.04400  -1.03819
 Alpha  occ. eigenvalues --   -1.03561  -1.03293  -1.02931  -1.02469  -1.02007
 Alpha  occ. eigenvalues --   -0.92024  -0.91899  -0.89586  -0.89378  -0.89220
 Alpha  occ. eigenvalues --   -0.89073  -0.88355  -0.88089  -0.87923  -0.87722
 Alpha  occ. eigenvalues --   -0.87700  -0.87585  -0.87340  -0.87028  -0.85022
 Alpha  occ. eigenvalues --   -0.84918  -0.84006  -0.83748  -0.83045  -0.82833
 Alpha  occ. eigenvalues --   -0.82697  -0.82570  -0.81630  -0.81529  -0.80649
 Alpha  occ. eigenvalues --   -0.80362  -0.78857  -0.78542  -0.77272  -0.77054
 Alpha  occ. eigenvalues --   -0.76975  -0.76810  -0.75965  -0.75762  -0.74960
 Alpha  occ. eigenvalues --   -0.74672  -0.72830  -0.72599  -0.71725  -0.71475
 Alpha  occ. eigenvalues --   -0.69981  -0.69626  -0.68918  -0.68745  -0.67699
 Alpha  occ. eigenvalues --   -0.67508  -0.67260  -0.67126  -0.65326  -0.65194
 Alpha  occ. eigenvalues --   -0.64906  -0.64677  -0.64671  -0.64569  -0.64334
 Alpha  occ. eigenvalues --   -0.64084  -0.62343  -0.62209  -0.60509  -0.60237
 Alpha  occ. eigenvalues --   -0.59845  -0.59714  -0.59043  -0.58892  -0.58559
 Alpha  occ. eigenvalues --   -0.58332  -0.57632  -0.57488  -0.57370  -0.57132
 Alpha  occ. eigenvalues --   -0.56365  -0.56116  -0.56017  -0.55825  -0.55581
 Alpha  occ. eigenvalues --   -0.55400  -0.55375  -0.55141  -0.54579  -0.54389
 Alpha  occ. eigenvalues --   -0.53929  -0.53836  -0.53361  -0.53272  -0.53132
 Alpha  occ. eigenvalues --   -0.53062  -0.52967  -0.52824  -0.52815  -0.52585
 Alpha  occ. eigenvalues --   -0.52514  -0.52278  -0.51967  -0.51794  -0.51659
 Alpha  occ. eigenvalues --   -0.51585  -0.51248  -0.51115  -0.50645  -0.50383
 Alpha  occ. eigenvalues --   -0.50099  -0.49982  -0.49890  -0.49738  -0.49566
 Alpha  occ. eigenvalues --   -0.49404  -0.49268  -0.49135  -0.49123  -0.49025
 Alpha  occ. eigenvalues --   -0.48639  -0.48532  -0.48507  -0.48481  -0.48263
 Alpha  occ. eigenvalues --   -0.48240  -0.47749  -0.47504  -0.47354  -0.47015
 Alpha  occ. eigenvalues --   -0.46852  -0.46609  -0.46592  -0.46471  -0.46417
 Alpha  occ. eigenvalues --   -0.46218  -0.46170  -0.45978  -0.45866  -0.45743
 Alpha  occ. eigenvalues --   -0.45267  -0.45074  -0.44628  -0.44567  -0.44434
 Alpha  occ. eigenvalues --   -0.44390  -0.44208  -0.44129  -0.44073  -0.44045
 Alpha  occ. eigenvalues --   -0.43975  -0.43860  -0.43542  -0.43482  -0.43436
 Alpha  occ. eigenvalues --   -0.43293  -0.43080  -0.42872  -0.42807  -0.42756
 Alpha  occ. eigenvalues --   -0.42709  -0.42435  -0.42068  -0.41863  -0.41758
 Alpha  occ. eigenvalues --   -0.41580  -0.41572  -0.41372  -0.41192  -0.40920
 Alpha  occ. eigenvalues --   -0.40893  -0.40890  -0.40638  -0.40633  -0.40611
 Alpha  occ. eigenvalues --   -0.40371  -0.40260  -0.40162  -0.39518  -0.39295
 Alpha  occ. eigenvalues --   -0.38531  -0.38223  -0.37779  -0.37582  -0.37382
 Alpha  occ. eigenvalues --   -0.37303  -0.37154  -0.37112  -0.36759  -0.36712
 Alpha  occ. eigenvalues --   -0.36243  -0.36113  -0.34342  -0.34154  -0.33813
 Alpha  occ. eigenvalues --   -0.33809  -0.33243  -0.33075  -0.31430  -0.31180
 Alpha  occ. eigenvalues --   -0.31093  -0.30874  -0.30078  -0.29888  -0.29512
 Alpha  occ. eigenvalues --   -0.29378  -0.29232  -0.29118  -0.24137  -0.23934
 Alpha  occ. eigenvalues --   -0.21184  -0.21015
 Alpha virt. eigenvalues --   -0.08833  -0.08694  -0.01811  -0.01578  -0.00123
 Alpha virt. eigenvalues --    0.00061   0.02143   0.02296   0.03054   0.03320
 Alpha virt. eigenvalues --    0.04675   0.04823   0.05058   0.05212   0.06157

 Mulliken charges:
               1
     1  Mg   0.838584
     2  C   -0.002932
     3  C   -0.093843
     4  C   -0.046132
     5  C   -0.063986
     6  N   -0.256806
     7  C   -0.052330
     8  C   -0.014029
     9  C   -0.087031
    10  C    0.046322
    11  C    0.104765
    12  C    0.053380
    13  C   -0.072077
    14  H    0.036657
    15  N   -0.433114
    16  C    0.168292
    17  C   -0.177083
    18  C   -0.004246
    19  C    0.148620
    20  C    0.110114
    21  C    0.011882
    22  O   -0.250109
    23  C    0.062623
    24  N   -0.341113
    25  C    0.041267
    26  C   -0.028101
    27  C   -0.023982
    28  C    0.074796
    29  C    0.076174
    30  C    0.035182
    31  C   -0.004487
    32  N   -0.310478
    33  C    0.080437
    34  C   -0.169664
    35  C    0.008411
    36  C    0.082986
    37  C    0.127310
    38  C    0.046123
    39  O   -0.188295
    40  C   -0.005306
    41  C    0.212929
    42  O   -0.257230
    43  O   -0.304730
    44  C    0.157703
    45  H   -0.017383
    46  H   -0.017151
    47  H   -0.041435
    48  H    0.001056
    49  H   -0.003718
    50  H    0.025498
    51  H    0.016359
    52  H    0.016884
    53  H    0.011372
    54  H    0.044035
    55  H    0.017861
    56  H    0.018307
    57  H    0.006225
    58  H    0.026839
    59  H    0.039509
    60  H    0.037710
    61  H    0.035082
    62  H    0.031244
    63  H    0.016057
    64  H    0.009597
    65  H    0.022978
    66  H    0.012687
    67  H    0.004878
    68  H    0.006167
    69  H    0.005009
    70  H    0.008072
    71  H    0.018253
    72  H    0.029099
    73  H    0.047640
    74  H    0.009161
    75  H    0.046128
    76  H    0.035312
    77  H    0.043012
    78  H    0.046684
    79  H    0.053517
    80  Mg   0.838071
    81  C   -0.017008
    82  C   -0.087914
    83  C   -0.045349
    84  C   -0.064115
    85  N   -0.254574
    86  C   -0.049880
    87  C   -0.015091
    88  C   -0.090511
    89  C    0.045779
    90  C    0.114344
    91  C    0.062582
    92  C   -0.077710
    93  H    0.034517
    94  N   -0.423508
    95  C    0.162999
    96  C   -0.174610
    97  C   -0.007776
    98  C    0.152230
    99  C    0.099364
   100  C    0.015511
   101  O   -0.253016
   102  C    0.061233
   103  N   -0.350000
   104  C    0.037924
   105  C   -0.020151
   106  C   -0.034889
   107  C    0.088941
   108  C    0.073141
   109  C    0.034671
   110  C   -0.007626
   111  N   -0.324071
   112  C    0.078396
   113  C   -0.162995
   114  C    0.002006
   115  C    0.096285
   116  C    0.131527
   117  C    0.042202
   118  O   -0.188605
   119  C    0.000988
   120  C    0.211171
   121  O   -0.251008
   122  O   -0.305799
   123  C    0.152119
   124  H   -0.019623
   125  H   -0.015341
   126  H   -0.040176
   127  H   -0.001170
   128  H   -0.004471
   129  H    0.021967
   130  H    0.015058
   131  H    0.016291
   132  H    0.013976
   133  H    0.037571
   134  H    0.020478
   135  H    0.019627
   136  H    0.008754
   137  H    0.026133
   138  H    0.039578
   139  H    0.038173
   140  H    0.036270
   141  H    0.033754
   142  H    0.014145
   143  H    0.013664
   144  H    0.025066
   145  H    0.012157
   146  H    0.007541
   147  H    0.006556
   148  H    0.003623
   149  H    0.010861
   150  H    0.017626
   151  H    0.029816
   152  H    0.045546
   153  H    0.008712
   154  H    0.047082
   155  H    0.034497
   156  H    0.043461
   157  H    0.049445
   158  H    0.053559
 Sum of Mulliken charges =  -0.00000

 Dipole moment (field-independent basis, Debye):
    X=              3.4843    Y=              5.4393    Z=              1.4274  Tot=              6.6155
 Quadrupole moment (field-independent basis, Debye-Ang):
   XX=           -519.8468   YY=           -506.4747   ZZ=           -492.1745
   XY=             10.7610   XZ=            -44.1619   YZ=              5.9495

 Normal termination of Gaussian 16 at Sat Sep  4 09:25:09 2021.
