 Gaussian 16, Revision A.03,
 Gaussian 16:  ES64L-G16RevA.03 25-Dec-2016

 -----------------------------------
 #p cam-b3lyp/Def2SVP td=(nstates=5)
 -----------------------------------

 --------------------------------
 TDDFT excited states in gaussian
 --------------------------------
 Symbolic Z-matrix:
 Charge =  0 Multiplicity = 1

                         Standard orientation:
 ---------------------------------------------------------------------
 Center     Atomic      Atomic             Coordinates (Angstroms)
 Number     Number       Type             X           Y           Z
 ---------------------------------------------------------------------
      1         12           0      -15.581815   -0.886604    0.330486
      2          6           0      -15.834985    2.651670   -0.147781
      3          6           0      -16.490676   -1.243553   -2.939013
      4          6           0      -15.807439   -4.007342    0.846925
      5          6           0      -15.810706   -0.291118    3.756660
      6          7           0      -16.072210    0.592217   -1.242169
      7          6           0      -16.073619    1.919675   -1.313063
      8          6           0      -16.278089    2.460900   -2.759659
      9          6           0      -17.022485    1.202867   -3.396232
     10          6           0      -16.469541    0.112242   -2.495836
     11          6           0      -18.538915    1.248178   -3.238467
     12          6           0      -14.920205    2.749890   -3.483791
     13          6           0      -15.027293    3.580506   -4.765962
     14          1           0      -13.967165    4.527265   -5.077613
     15          7           0      -15.597251   -2.397926   -0.941724
     16          6           0      -15.982257   -2.359708   -2.240029
     17          6           0      -15.811125   -3.734703   -2.756541
     18          6           0      -15.475987   -4.615542   -1.603328
     19          6           0      -15.641363   -3.701874   -0.501857
     20          6           0      -15.918039   -4.087534   -4.208377
     21          6           0      -15.081146   -6.055394   -1.508153
     22          8           0      -15.060770   -6.682896   -0.394420
     23          6           0      -14.800565   -6.745112   -2.780398
     24          7           0      -16.000815   -2.017328    2.034463
     25          6           0      -15.978817   -3.354183    1.998124
     26          6           0      -16.026844   -3.938788    3.378656
     27          6           0      -15.840654   -2.712768    4.384619
     28          6           0      -15.797392   -1.562206    3.348952
     29          6           0      -17.308578   -4.703245    3.737505
     30          6           0      -14.690745   -2.819033    5.417496
     31          6           0      -13.356623   -2.771616    4.706885
     32          7           0      -15.608929    0.860206    1.618494
     33          6           0      -15.733500    0.876020    3.015242
     34          6           0      -15.810938    2.289987    3.426057
     35          6           0      -15.742264    3.002640    2.230542
     36          6           0      -15.655529    2.090857    1.139936
     37          6           0      -15.986807    2.762850    4.756435
     38          6           0      -15.746792    4.321666    1.618982
     39          8           0      -15.707133    5.476094    2.047019
     40          6           0      -15.929767    4.144520    0.047051
     41          6           0      -14.901478    5.008752   -0.630470
     42          8           0      -13.684420    4.750526   -0.533229
     43          8           0      -15.515952    5.853271   -1.472937
     44          6           0      -14.549911    6.719698   -2.199727
     45          1           0      -16.993377   -1.484214   -3.877797
     46          1           0      -15.779070   -5.073928    1.079362
     47          1           0      -15.798018   -0.026119    4.815465
     48          1           0      -16.913685    3.343872   -2.828966
     49          1           0      -16.720297    1.030959   -4.429117
     50          1           0      -18.848501    2.075514   -2.600037
     51          1           0      -18.813088    0.294950   -2.786054
     52          1           0      -19.029180    1.269779   -4.212095
     53          1           0      -14.528313    1.820512   -3.896994
     54          1           0      -14.213904    3.226708   -2.803270
     55          1           0      -16.003539    4.058702   -4.850704
     56          1           0      -14.983457    2.901414   -5.617497
     57          1           0      -16.336131   -3.267026   -4.790195
     58          1           0      -16.658805   -4.882811   -4.289061
     59          1           0      -14.967292   -4.427669   -4.619133
     60          1           0      -15.685074   -6.701268   -3.416220
     61          1           0      -14.447845   -7.740185   -2.511570
     62          1           0      -14.015487   -6.204233   -3.309596
     63          1           0      -15.216933   -4.651217    3.530033
     64          1           0      -16.729638   -2.544112    4.992844
     65          1           0      -17.131551   -5.732890    4.049271
     66          1           0      -17.976169   -4.664419    2.877211
     67          1           0      -17.920149   -4.234058    4.507740
     68          1           0      -14.740333   -3.771863    5.943426
     69          1           0      -14.709284   -2.026107    6.165277
     70          1           0      -13.210251   -3.805023    4.394671
     71          1           0      -12.570674   -2.456298    5.393957
     72          1           0      -13.407858   -2.162621    3.804119
     73          1           0      -15.297466    3.598492    4.876770
     74          1           0      -15.788255    1.977431    5.485335
     75          1           0      -17.037136    3.052668    4.730535
     76          1           0      -16.946591    4.457884   -0.187456
     77          1           0      -14.841111    7.753164   -2.011623
     78          1           0      -14.543143    6.376229   -3.234323
     79          1           0      -13.526567    6.722374   -1.822768
     80         12           0       16.165016   -0.478983   -0.049256
     81          6           0       14.314710    2.593816    0.066016
     82          6           0       13.959811   -1.544007   -2.423577
     83          6           0       17.494199   -3.353337    0.147677
     84          6           0       17.482086    0.358815    3.066687
     85          7           0       14.406816    0.490766   -0.976921
     86          6           0       13.835759    1.683304   -0.898876
     87          6           0       12.739072    1.942387   -1.966447
     88          6           0       12.341949    0.417908   -2.278106
     89          6           0       13.659395   -0.258945   -1.905425
     90          6           0       11.253532   -0.119434   -1.363800
     91          6           0       13.304207    2.660960   -3.241710
     92          6           0       12.240607    3.220838   -4.188828
     93          1           0       12.521872    4.470075   -4.890798
     94          7           0       16.108389   -2.009315   -1.311579
     95          6           0       15.150485   -2.276628   -2.223840
     96          6           0       15.562717   -3.523695   -2.886451
     97          6           0       16.757135   -4.058641   -2.177992
     98          6           0       16.821807   -3.152383   -1.049007
     99          6           0       14.890949   -4.049322   -4.121711
    100          6           0       17.679851   -5.205031   -2.461876
    101          8           0       18.509932   -5.634422   -1.584713
    102          6           0       17.518307   -5.869884   -3.763171
    103          7           0       17.155633   -1.472191    1.485204
    104          6           0       17.682158   -2.694071    1.291074
    105          6           0       18.579307   -3.090178    2.439384
    106          6           0       18.737600   -1.774438    3.334563
    107          6           0       17.791150   -0.828378    2.563467
    108          6           0       18.075817   -4.240688    3.310705
    109          6           0       20.184879   -1.293366    3.628872
    110          6           0       20.837909   -0.811339    2.353495
    111          7           0       16.103444    1.243773    1.253194
    112          6           0       16.703932    1.373733    2.524648
    113          6           0       16.286880    2.681187    3.071514
    114          6           0       15.447523    3.215397    2.082284
    115          6           0       15.332305    2.296366    1.004506
    116          6           0       16.643852    3.201281    4.347523
    117          6           0       14.624257    4.343201    1.709445
    118          8           0       14.406399    5.455548    2.187947
    119          6           0       13.753213    3.936480    0.443647
    120          6           0       13.853935    5.047081   -0.565774
    121          8           0       14.940015    5.307364   -1.112861
    122          8           0       12.616177    5.472332   -0.878011
    123          6           0       12.663317    6.566389   -1.884307
    124          1           0       13.195466   -2.060833   -3.004577
    125          1           0       18.060817   -4.284609    0.219517
    126          1           0       17.928175    0.735780    3.989494
    127          1           0       11.873813    2.485816   -1.606209
    128          1           0       12.124566    0.274182   -3.333302
    129          1           0       11.009012    0.577284   -0.575799
    130          1           0       11.645693   -1.038370   -0.948100
    131          1           0       10.375377   -0.404548   -1.950206
    132          1           0       13.766129    1.913053   -3.898988
    133          1           0       13.990071    3.439017   -2.968145
    134          1           0       11.249737    3.258102   -3.720061
    135          1           0       12.116906    2.524797   -5.022046
    136          1           0       13.941847   -3.533838   -4.313743
    137          1           0       14.600261   -5.084359   -3.911788
    138          1           0       15.546136   -4.036504   -4.995346
    139          1           0       16.502514   -6.247657   -3.852061
    140          1           0       18.324127   -6.604402   -3.818090
    141          1           0       17.647173   -5.124057   -4.555483
    142          1           0       19.556131   -3.391006    2.081007
    143          1           0       18.301601   -1.907776    4.335546
    144          1           0       18.787373   -5.085693    3.371804
    145          1           0       17.123261   -4.573187    2.920035
    146          1           0       17.823501   -3.968680    4.334208
    147          1           0       20.793259   -2.124375    3.994197
    148          1           0       20.235273   -0.505747    4.373258
    149          1           0       21.199420   -1.737215    1.896149
    150          1           0       21.659892   -0.134030    2.576295
    151          1           0       20.097691   -0.374695    1.673008
    152          1           0       16.897417    4.242571    4.199464
    153          1           0       17.472240    2.647877    4.784857
    154          1           0       15.709628    3.040219    4.892087
    155          1           0       12.728583    3.785889    0.785761
    156          1           0       12.119769    7.415571   -1.458710
    157          1           0       12.263802    6.129973   -2.819012
    158          1           0       13.627646    7.015150   -2.091963
 ---------------------------------------------------------------------

 SCF Done:  E(RCAM-B3LYP) =  -4069.81176588     A.U. after   19 cycles

 Excitation energies and oscillator strengths:

 Excited State   1:      Singlet-A      1.6753 eV  740.07 nm  f=0.2072  <S**2>=0.000
     310 -> 316       -0.16827
     311 -> 314        0.16742
     312 -> 313        0.66531
     310 <- 316       -0.10144
 This state for optimization and/or second-order correction.
 Total Energy, E(TD-HF/TD-DFT) =  -4069.75019961
 Copying the excited state density for this state as the 1-particle RhoCI density.

 Excited State   2:      Singlet-A      1.6801 eV  737.96 nm  f=0.5700  <S**2>=0.000
     309 -> 315        0.17029
     311 -> 314        0.66494
     312 -> 313       -0.16737
     309 <- 315        0.10196

 Excited State   3:      Singlet-A      2.1861 eV  567.15 nm  f=0.0985  <S**2>=0.000
     310 -> 313        0.64227
     312 -> 316        0.27300

 Excited State   4:      Singlet-A      2.1925 eV  565.49 nm  f=0.1022  <S**2>=0.000
     309 -> 314        0.64049
     311 -> 315       -0.27820

 Excited State   5:      Singlet-A      3.0625 eV  404.85 nm  f=0.0000  <S**2>=0.000
     312 -> 314        0.70710

 The electronic state is 1-A.
 Alpha  occ. eigenvalues --  -46.87809 -46.87659 -19.26342 -19.26295 -19.19155
 Alpha  occ. eigenvalues --  -19.19031 -19.18830 -19.18715 -19.18180 -19.18048
 Alpha  occ. eigenvalues --  -14.42496 -14.42463 -14.41462 -14.41359 -14.39416
 Alpha  occ. eigenvalues --  -14.39351 -14.38599 -14.38599 -10.39090 -10.39084
 Alpha  occ. eigenvalues --  -10.35464 -10.35392 -10.34400 -10.34225 -10.31746
 Alpha  occ. eigenvalues --  -10.31689 -10.31417 -10.31307 -10.31021 -10.30922
 Alpha  occ. eigenvalues --  -10.30582 -10.30520 -10.30397 -10.30359 -10.30220
 Alpha  occ. eigenvalues --  -10.30141 -10.29933 -10.29894 -10.29643 -10.29436
 Alpha  occ. eigenvalues --  -10.29400 -10.29267 -10.28762 -10.28715 -10.28648
 Alpha  occ. eigenvalues --  -10.28552 -10.28403 -10.28377 -10.28136 -10.28129
 Alpha  occ. eigenvalues --  -10.28000 -10.27805 -10.27740 -10.27668 -10.27597
 Alpha  occ. eigenvalues --  -10.27519 -10.27513 -10.27496 -10.27482 -10.27468
 Alpha  occ. eigenvalues --  -10.27465 -10.27461 -10.27416 -10.27377 -10.27169
 Alpha  occ. eigenvalues --  -10.27046 -10.26719 -10.26688 -10.26428 -10.26417
 Alpha  occ. eigenvalues --  -10.26246 -10.26195 -10.26139 -10.26032 -10.26018
 Alpha  occ. eigenvalues --  -10.25934 -10.25853 -10.25849 -10.25447 -10.25399
 Alpha  occ. eigenvalues --  -10.24871 -10.24845 -10.24800 -10.24733 -10.24700
 Alpha  occ. eigenvalues --  -10.24689  -3.16552  -3.16409  -1.91434  -1.91292
 Alpha  occ. eigenvalues --   -1.91020  -1.90880  -1.90862  -1.90717  -1.16643
 Alpha  occ. eigenvalues --   -1.16636  -1.08654  -1.08638  -1.07231  -1.06968
 Alpha  occ. eigenvalues --   -1.06939  -1.06653  -1.04594  -1.04494  -1.03773
 Alpha  occ. eigenvalues --   -1.03662  -1.03246  -1.03038  -1.02424  -1.02111
 Alpha  occ. eigenvalues --   -0.91985  -0.91984  -0.89532  -0.89494  -0.89200
 Alpha  occ. eigenvalues --   -0.89147  -0.88299  -0.88221  -0.87882  -0.87792
 Alpha  occ. eigenvalues --   -0.87686  -0.87682  -0.87288  -0.87120  -0.84997
 Alpha  occ. eigenvalues --   -0.84995  -0.83948  -0.83876  -0.82982  -0.82932
 Alpha  occ. eigenvalues --   -0.82661  -0.82650  -0.81597  -0.81592  -0.80609
 Alpha  occ. eigenvalues --   -0.80440  -0.78810  -0.78635  -0.77231  -0.77143
 Alpha  occ. eigenvalues --   -0.76946  -0.76895  -0.75935  -0.75835  -0.74910
 Alpha  occ. eigenvalues --   -0.74802  -0.72786  -0.72698  -0.71684  -0.71579
 Alpha  occ. eigenvalues --   -0.69919  -0.69758  -0.68886  -0.68825  -0.67654
 Alpha  occ. eigenvalues --   -0.67600  -0.67233  -0.67197  -0.65299  -0.65268
 Alpha  occ. eigenvalues --   -0.64866  -0.64768  -0.64651  -0.64633  -0.64282
 Alpha  occ. eigenvalues --   -0.64203  -0.62309  -0.62274  -0.60456  -0.60340
 Alpha  occ. eigenvalues --   -0.59817  -0.59794  -0.59000  -0.58991  -0.58516
 Alpha  occ. eigenvalues --   -0.58424  -0.57596  -0.57550  -0.57321  -0.57236
 Alpha  occ. eigenvalues --   -0.56322  -0.56203  -0.55990  -0.55882  -0.55533
 Alpha  occ. eigenvalues --   -0.55450  -0.55351  -0.55246  -0.54535  -0.54486
 Alpha  occ. eigenvalues --   -0.53909  -0.53907  -0.53312  -0.53235  -0.53227
 Alpha  occ. eigenvalues --   -0.53139  -0.52927  -0.52899  -0.52770  -0.52667
 Alpha  occ. eigenvalues --   -0.52450  -0.52402  -0.51925  -0.51883  -0.51656
 Alpha  occ. eigenvalues --   -0.51630  -0.51208  -0.51199  -0.50588  -0.50476
 Alpha  occ. eigenvalues --   -0.50044  -0.49978  -0.49932  -0.49868  -0.49528
 Alpha  occ. eigenvalues --   -0.49486  -0.49227  -0.49200  -0.49108  -0.49101
 Alpha  occ. eigenvalues --   -0.48604  -0.48555  -0.48474  -0.48458  -0.48375
 Alpha  occ. eigenvalues --   -0.48338  -0.47708  -0.47593  -0.47310  -0.47117
 Alpha  occ. eigenvalues --   -0.46809  -0.46708  -0.46568  -0.46551  -0.46371
 Alpha  occ. eigenvalues --   -0.46269  -0.46174  -0.46084  -0.45833  -0.45819
 Alpha  occ. eigenvalues --   -0.45213  -0.45209  -0.44589  -0.44520  -0.44511
 Alpha  occ. eigenvalues --   -0.44474  -0.44157  -0.44125  -0.44101  -0.44077
 Alpha  occ. eigenvalues --   -0.44032  -0.43937  -0.43549  -0.43506  -0.43398
 Alpha  occ. eigenvalues --   -0.43383  -0.43039  -0.42926  -0.42898  -0.42710
 Alpha  occ. eigenvalues --   -0.42666  -0.42554  -0.42022  -0.41963  -0.41716
 Alpha  occ. eigenvalues --   -0.41667  -0.41546  -0.41456  -0.41153  -0.40987
 Alpha  occ. eigenvalues --   -0.40882  -0.40838  -0.40721  -0.40697  -0.40583
 Alpha  occ. eigenvalues --   -0.40493  -0.40248  -0.40223  -0.39453  -0.39427
 Alpha  occ. eigenvalues --   -0.38481  -0.38350  -0.37761  -0.37651  -0.37333
 Alpha  occ. eigenvalues --   -0.37276  -0.37265  -0.37197  -0.36766  -0.36724
 Alpha  occ. eigenvalues --   -0.36215  -0.36204  -0.34298  -0.34252  -0.33857
 Alpha  occ. eigenvalues --   -0.33782  -0.33199  -0.33174  -0.31360  -0.31274
 Alpha  occ. eigenvalues --   -0.31048  -0.30972  -0.30040  -0.29952  -0.29462
 Alpha  occ. eigenvalues --   -0.29334  -0.29327  -0.29210  -0.24093  -0.24035
 Alpha  occ. eigenvalues --   -0.21140  -0.21116
 Alpha virt. eigenvalues --   -0.08791  -0.08787  -0.01762  -0.01683  -0.00072
 Alpha virt. eigenvalues --   -0.00028   0.02189   0.02209   0.03106   0.03227
 Alpha virt. eigenvalues --    0.04705   0.04732   0.05087   0.05171   0.06163

 Mulliken charges:
               1
     1  Mg   0.838667
     2  C   -0.002960
     3  C   -0.094146
     4  C   -0.045863
     5  C   -0.063937
     6  N   -0.256782
     7  C   -0.052447
     8  C   -0.014014
     9  C   -0.086994
    10  C    0.046320
    11  C    0.104810
    12  C    0.053465
    13  C   -0.071790
    14  H    0.036108
    15  N   -0.433132
    16  C    0.168411
    17  C   -0.177170
    18  C   -0.004018
    19  C    0.148683
    20  C    0.110181
    21  C    0.012262
    22  O   -0.249636
    23  C    0.062490
    24  N   -0.341111
    25  C    0.041237
    26  C   -0.028182
    27  C   -0.023959
    28  C    0.074823
    29  C    0.076163
    30  C    0.035122
    31  C   -0.004505
    32  N   -0.310486
    33  C    0.080411
    34  C   -0.169694
    35  C    0.008375
    36  C    0.082999
    37  C    0.127307
    38  C    0.046140
    39  O   -0.188379
    40  C   -0.005364
    41  C    0.212903
    42  O   -0.257126
    43  O   -0.304788
    44  C    0.157680
    45  H   -0.017605
    46  H   -0.016846
    47  H   -0.041459
    48  H    0.000962
    49  H   -0.004053
    50  H    0.025493
    51  H    0.016455
    52  H    0.016664
    53  H    0.011169
    54  H    0.044115
    55  H    0.017902
    56  H    0.017926
    57  H    0.005873
    58  H    0.026827
    59  H    0.039489
    60  H    0.037360
    61  H    0.035614
    62  H    0.031449
    63  H    0.016533
    64  H    0.009487
    65  H    0.023208
    66  H    0.012552
    67  H    0.004778
    68  H    0.006374
    69  H    0.004765
    70  H    0.008750
    71  H    0.018156
    72  H    0.028971
    73  H    0.047607
    74  H    0.009131
    75  H    0.046040
    76  H    0.035177
    77  H    0.042989
    78  H    0.046386
    79  H    0.053687
    80  Mg   0.837836
    81  C   -0.016806
    82  C   -0.087779
    83  C   -0.045515
    84  C   -0.064868
    85  N   -0.254575
    86  C   -0.049819
    87  C   -0.015091
    88  C   -0.090507
    89  C    0.045745
    90  C    0.114367
    91  C    0.062522
    92  C   -0.077910
    93  H    0.034910
    94  N   -0.423477
    95  C    0.162915
    96  C   -0.174629
    97  C   -0.007816
    98  C    0.152114
    99  C    0.099373
   100  C    0.015562
   101  O   -0.253198
   102  C    0.061198
   103  N   -0.350053
   104  C    0.037516
   105  C   -0.019845
   106  C   -0.034808
   107  C    0.088901
   108  C    0.073655
   109  C    0.034740
   110  C   -0.007678
   111  N   -0.324123
   112  C    0.078445
   113  C   -0.163131
   114  C    0.002275
   115  C    0.096194
   116  C    0.131495
   117  C    0.042399
   118  O   -0.187797
   119  C    0.000904
   120  C    0.211273
   121  O   -0.251049
   122  O   -0.305598
   123  C    0.152022
   124  H   -0.019641
   125  H   -0.015585
   126  H   -0.040458
   127  H   -0.000572
   128  H   -0.004330
   129  H    0.022526
   130  H    0.014413
   131  H    0.016334
   132  H    0.013888
   133  H    0.037673
   134  H    0.020861
   135  H    0.019569
   136  H    0.008768
   137  H    0.026137
   138  H    0.039774
   139  H    0.038251
   140  H    0.036382
   141  H    0.033891
   142  H    0.014390
   143  H    0.012427
   144  H    0.025127
   145  H    0.011649
   146  H    0.005682
   147  H    0.006255
   148  H    0.003659
   149  H    0.010925
   150  H    0.017931
   151  H    0.030111
   152  H    0.046024
   153  H    0.008498
   154  H    0.046989
   155  H    0.035113
   156  H    0.043992
   157  H    0.049497
   158  H    0.053559
 Sum of Mulliken charges =  -0.00000

 Dipole moment (field-independent basis, Debye):
    X=             -4.5987    Y=             -4.9696    Z=             -5.7950  Tot=              8.9122
 Quadrupole moment (field-independent basis, Debye-Ang):
   XX=           -519.1330   YY=           -566.4879   ZZ=           -447.5953
   XY=            -11.3541   XZ=             45.2361   YZ=            -18.9625

 Normal termination of Gaussian 16 at Sun Sep 12 18:34:12 2021.
