 Gaussian 16, Revision A.03,
 Gaussian 16:  ES64L-G16RevA.03 25-Dec-2016

 -----------------------------------
 #p cam-b3lyp/Def2SVP td=(nstates=5)
 -----------------------------------

 --------------------------------
 TDDFT excited states in gaussian
 --------------------------------
 Symbolic Z-matrix:
 Charge =  0 Multiplicity = 1

                         Standard orientation:
 ---------------------------------------------------------------------
 Center     Atomic      Atomic             Coordinates (Angstroms)
 Number     Number       Type             X           Y           Z
 ---------------------------------------------------------------------
      1         12           0       -4.909519    0.822374   -0.106693
      2          6           0       -5.349194   -2.264453    1.651262
      3          6           0       -5.713401    2.419886    2.799299
      4          6           0       -4.972196    3.537607   -1.743825
      5          6           0       -5.258628   -0.984040   -3.066533
      6          7           0       -5.442217    0.064253    1.903813
      7          6           0       -5.516536   -1.139796    2.462304
      8          6           0       -5.714288   -1.093202    4.007004
      9          6           0       -6.370264    0.354470    4.133253
     10          6           0       -5.779889    0.997838    2.890892
     11          6           0       -7.890361    0.347627    4.007716
     12          6           0       -4.356845   -1.176724    4.782958
     13          6           0       -4.477870   -1.465248    6.282111
     14          1           0       -3.465129   -2.292794    6.919975
     15          7           0       -4.807506    2.695187    0.513800
     16          6           0       -5.160907    3.164239    1.734613
     17          6           0       -4.899575    4.619374    1.703466
     18          6           0       -4.544828    4.988126    0.304799
     19          6           0       -4.789327    3.743637   -0.378462
     20          6           0       -4.949501    5.490567    2.920955
     21          6           0       -4.072119    6.263084   -0.319028
     22          8           0       -4.044788    6.431064   -1.586155
     23          6           0       -3.720896    7.356122    0.605609
     24          7           0       -5.307414    1.265342   -2.107466
     25          6           0       -5.209288    2.516535   -2.569928
     26          6           0       -5.259430    2.550189   -4.068692
     27          6           0       -5.168187    1.029860   -4.548304
     28          6           0       -5.163426    0.344238   -3.159718
     29          6           0       -6.504816    3.204963   -4.682120
     30          6           0       -4.040761    0.674961   -5.549990
     31          6           0       -2.693782    0.811807   -4.876180
     32          7           0       -5.067659   -1.271932   -0.654342
     33          6           0       -5.228405   -1.796073   -1.945122
     34          6           0       -5.395729   -3.253974   -1.801620
     35          6           0       -5.336892   -3.476092   -0.427194
     36          6           0       -5.171266   -2.232522    0.246893
     37          6           0       -5.631713   -4.174001   -2.861005
     38          6           0       -5.400099   -4.471943    0.630229
     39          8           0       -5.436379   -5.702888    0.661095
     40          6           0       -5.532775   -3.714428    2.024644
     41          6           0       -4.537862   -4.328049    2.971706
     42          8           0       -3.311067   -4.199808    2.782250
     43          8           0       -5.177271   -4.760959    4.069106
     44          6           0       -4.243356   -5.354530    5.062903
     45          1           0       -6.177721    3.021567    3.583090
     46          1           0       -4.889760    4.438384   -2.355579
     47          1           0       -5.287808   -1.622483   -3.951401
     48          1           0       -6.396605   -1.846724    4.400793
     49          1           0       -6.032707    0.877604    5.027741
     50          1           0       -8.262160   -0.636495    3.722778
     51          1           0       -8.121864    1.080554    3.234594
     52          1           0       -8.356143    0.718359    4.921161
     53          1           0       -3.902882   -0.186493    4.820660
     54          1           0       -3.696037   -1.914230    4.326072
     55          1           0       -5.477012   -1.816860    6.540941
     56          1           0       -4.374239   -0.523225    6.820677
     57          1           0       -5.398179    4.971285    3.766874
     58          1           0       -5.642038    6.303271    2.702750
     59          1           0       -3.970977    5.899253    3.173541
     60          1           0       -4.590013    7.605485    1.214708
     61          1           0       -3.319679    8.157127   -0.014283
     62          1           0       -2.954301    7.002297    1.295601
     63          1           0       -4.414816    3.104497   -4.475872
     64          1           0       -6.080435    0.703186   -5.048065
     65          1           0       -6.278103    4.032954   -5.354234
     66          1           0       -7.151438    3.528707   -3.867037
     67          1           0       -7.161217    2.522630   -5.221543
     68          1           0       -4.050001    1.366440   -6.391844
     69          1           0       -4.122912   -0.335716   -5.950034
     70          1           0       -2.481584    1.876215   -4.970193
     71          1           0       -1.944555    0.216651   -5.399305
     72          1           0       -2.756237    0.584769   -3.811737
     73          1           0       -4.993782   -5.035627   -2.664498
     74          1           0       -5.407870   -3.728155   -3.829880
     75          1           0       -6.695690   -4.368226   -2.726525
     76          1           0       -6.559331   -3.855305    2.361479
     77          1           0       -4.596953   -6.364104    5.272578
     78          1           0       -4.190956   -4.653519    5.896116
     79          1           0       -3.231703   -5.559730    4.711064
     80         12           0        5.639031    0.092902    0.034168
     81          6           0        3.156625   -1.839150   -1.693226
     82          6           0        3.892890    2.876921   -0.879506
     83          6           0        8.036561    1.843185    1.154783
     84          6           0        7.741979   -2.678233   -0.175973
     85          7           0        3.779603    0.355994   -1.134404
     86          6           0        2.889843   -0.454144   -1.687884
     87          6           0        1.605385    0.253070   -2.197382
     88          6           0        2.208669    1.726734   -2.405336
     89          6           0        3.345337    1.671504   -1.386709
     90          6           0        2.812267    1.940981   -3.783418
     91          6           0        0.456485    0.248261   -1.128727
     92          6           0       -0.921298    0.644492   -1.663961
     93          1           0       -2.099907   -0.014175   -1.107619
     94          7           0        5.698157    2.007338    0.553774
     95          6           0        4.900270    2.997926    0.102774
     96          6           0        5.361309    4.223041    0.774124
     97          6           0        6.601429    3.904069    1.532445
     98          6           0        6.843681    2.547784    1.083101
     99          6           0        4.597862    5.514594    0.724562
    100          6           0        7.438806    4.694005    2.492140
    101          8           0        8.605789    4.301562    2.848471
    102          6           0        6.891374    5.986384    2.929834
    103          7           0        7.674383   -0.274488    0.245609
    104          6           0        8.486184    0.636145    0.810972
    105          6           0        9.844750    0.046867    1.106677
    106          6           0        9.698565   -1.523633    0.842610
    107          6           0        8.241479   -1.559800    0.331752
    108          6           0       11.003630    0.596748    0.275395
    109          6           0       10.097946   -2.472963    2.005343
    110          6           0        9.127588   -2.318512    3.154218
    111          7           0        5.446659   -1.960313   -0.610324
    112          6           0        6.459401   -2.943997   -0.638294
    113          6           0        5.877906   -4.149895   -1.262888
    114          6           0        4.563614   -3.773614   -1.578367
    115          6           0        4.347853   -2.421771   -1.196976
    116          6           0        6.565478   -5.370798   -1.513399
    117          6           0        3.312970   -4.209277   -2.156978
    118          8           0        2.874421   -5.281435   -2.571570
    119          6           0        2.385268   -2.936700   -2.372208
    120          6           0        1.016980   -3.264046   -1.840105
    121          8           0        0.843187   -3.467754   -0.625649
    122          8           0        0.107808   -3.069431   -2.812678
    123          6           0       -1.266271   -3.370460   -2.329866
    124          1           0        3.549492    3.821259   -1.302821
    125          1           0        8.865531    2.367251    1.636081
    126          1           0        8.303083   -3.615076   -0.188803
    127          1           0        1.219626   -0.126630   -3.135889
    128          1           0        1.486930    2.491438   -2.130227
    129          1           0        2.841847    1.026455   -4.356916
    130          1           0        3.814079    2.312195   -3.611301
    131          1           0        2.280630    2.740250   -4.307699
    132          1           0        0.624867    1.067801   -0.418284
    133          1           0        0.394123   -0.704907   -0.640658
    134          1           0       -0.956433    0.633517   -2.760125
    135          1           0       -1.109032    1.688154   -1.400220
    136          1           0        3.814925    5.489846   -0.043425
    137          1           0        5.294856    6.284911    0.377154
    138          1           0        4.203610    5.808530    1.699665
    139          1           0        6.718502    6.617989    2.061698
    140          1           0        7.590150    6.360563    3.680544
    141          1           0        5.913488    5.813329    3.392864
    142          1           0       10.117711    0.205094    2.142807
    143          1           0       10.332562   -1.857219    0.007983
    144          1           0       11.820568    1.018621    0.890778
    145          1           0       10.613059    1.344282   -0.402238
    146          1           0       11.461784   -0.116980   -0.407165
    147          1           0       11.083390   -2.203225    2.393003
    148          1           0       10.140984   -3.517365    1.714853
    149          1           0        9.513051   -1.444037    3.686942
    150          1           0        9.139600   -3.203372    3.787395
    151          1           0        8.124292   -2.067369    2.790918
    152          1           0        5.895089   -6.170136   -1.226783
    153          1           0        7.502340   -5.419799   -0.962339
    154          1           0        6.727237   -5.285922   -2.591316
    155          1           0        2.367985   -2.720929   -3.441184
    156          1           0       -1.688117   -4.115891   -3.011086
    157          1           0       -1.782403   -2.393864   -2.269671
    158          1           0       -1.362859   -3.876565   -1.376466
 ---------------------------------------------------------------------

 SCF Done:  E(RCAM-B3LYP) =  -4069.81234118     A.U. after   19 cycles

 Excitation energies and oscillator strengths:

 Excited State   1:      Singlet-A      1.6506 eV  751.16 nm  f=0.0053  <S**2>=0.000
     309 -> 315        0.12122
     310 -> 316       -0.11464
     311 -> 313        0.49850
     312 -> 314       -0.47340
 This state for optimization and/or second-order correction.
 Total Energy, E(TD-HF/TD-DFT) =  -4069.75168414
 Copying the excited state density for this state as the 1-particle RhoCI density.

 Excited State   2:      Singlet-A      1.6974 eV  730.42 nm  f=0.7035  <S**2>=0.000
     309 -> 315        0.12325
     310 -> 316        0.12963
     311 -> 313        0.47109
     312 -> 314        0.49645

 Excited State   3:      Singlet-A      2.1818 eV  568.28 nm  f=0.0848  <S**2>=0.000
     309 -> 313        0.34296
     310 -> 314        0.54520
     311 -> 315       -0.14298
     312 -> 316       -0.22828

 Excited State   4:      Singlet-A      2.1883 eV  566.58 nm  f=0.1169  <S**2>=0.000
     309 -> 313        0.54324
     310 -> 314       -0.34078
     311 -> 315       -0.23306
     312 -> 316        0.14734

 Excited State   5:      Singlet-A      2.4284 eV  510.56 nm  f=0.0000  <S**2>=0.000
     312 -> 313        0.70639

 The electronic state is 1-A.
 Alpha  occ. eigenvalues --  -46.87970 -46.87480 -19.26157 -19.25708 -19.19118
 Alpha  occ. eigenvalues --  -19.18883 -19.18584 -19.18530 -19.18300 -19.17772
 Alpha  occ. eigenvalues --  -14.42642 -14.42328 -14.41640 -14.41179 -14.39609
 Alpha  occ. eigenvalues --  -14.39175 -14.38843 -14.38407 -10.38966 -10.38503
 Alpha  occ. eigenvalues --  -10.35751 -10.35266 -10.34514 -10.33938 -10.31591
 Alpha  occ. eigenvalues --  -10.31501 -10.31111 -10.31064 -10.30896 -10.30849
 Alpha  occ. eigenvalues --  -10.30791 -10.30757 -10.30444 -10.30215 -10.30162
 Alpha  occ. eigenvalues --  -10.30162 -10.29989 -10.29887 -10.29715 -10.29522
 Alpha  occ. eigenvalues --  -10.29273 -10.29220 -10.28836 -10.28821 -10.28583
 Alpha  occ. eigenvalues --  -10.28570 -10.28493 -10.28223 -10.28203 -10.28040
 Alpha  occ. eigenvalues --  -10.27963 -10.27930 -10.27836 -10.27807 -10.27752
 Alpha  occ. eigenvalues --  -10.27713 -10.27709 -10.27581 -10.27493 -10.27382
 Alpha  occ. eigenvalues --  -10.27342 -10.27292 -10.27282 -10.27237 -10.27224
 Alpha  occ. eigenvalues --  -10.26730 -10.26714 -10.26692 -10.26588 -10.26474
 Alpha  occ. eigenvalues --  -10.26337 -10.26335 -10.26270 -10.26103 -10.26014
 Alpha  occ. eigenvalues --  -10.25856 -10.25761 -10.25661 -10.25659 -10.25277
 Alpha  occ. eigenvalues --  -10.25083 -10.25044 -10.25029 -10.24668 -10.24608
 Alpha  occ. eigenvalues --  -10.24510  -3.16691  -3.16230  -1.91571  -1.91161
 Alpha  occ. eigenvalues --   -1.91112  -1.91006  -1.90701  -1.90537  -1.16508
 Alpha  occ. eigenvalues --   -1.16010  -1.08738  -1.08351  -1.07525  -1.06840
 Alpha  occ. eigenvalues --   -1.06514  -1.06330  -1.04768  -1.04316  -1.03966
 Alpha  occ. eigenvalues --   -1.03486  -1.03465  -1.02859  -1.02636  -1.01927
 Alpha  occ. eigenvalues --   -0.92139  -0.91751  -0.89762  -0.89321  -0.89291
 Alpha  occ. eigenvalues --   -0.89004  -0.88527  -0.88119  -0.88064  -0.87856
 Alpha  occ. eigenvalues --   -0.87608  -0.87528  -0.87521  -0.86973  -0.85111
 Alpha  occ. eigenvalues --   -0.84864  -0.84188  -0.83699  -0.83244  -0.82798
 Alpha  occ. eigenvalues --   -0.82790  -0.82474  -0.81665  -0.81229  -0.80737
 Alpha  occ. eigenvalues --   -0.80144  -0.79034  -0.78467  -0.77436  -0.77064
 Alpha  occ. eigenvalues --   -0.76998  -0.76672  -0.76029  -0.75559  -0.75102
 Alpha  occ. eigenvalues --   -0.74587  -0.73000  -0.72520  -0.71850  -0.71378
 Alpha  occ. eigenvalues --   -0.70238  -0.69609  -0.69034  -0.68677  -0.67847
 Alpha  occ. eigenvalues --   -0.67408  -0.67340  -0.67120  -0.65415  -0.65121
 Alpha  occ. eigenvalues --   -0.65003  -0.64755  -0.64578  -0.64486  -0.64341
 Alpha  occ. eigenvalues --   -0.64007  -0.62332  -0.61826  -0.60686  -0.60182
 Alpha  occ. eigenvalues --   -0.59947  -0.59631  -0.59179  -0.58788  -0.58684
 Alpha  occ. eigenvalues --   -0.58191  -0.57701  -0.57457  -0.57219  -0.56995
 Alpha  occ. eigenvalues --   -0.56520  -0.56008  -0.55988  -0.55722  -0.55534
 Alpha  occ. eigenvalues --   -0.55506  -0.55189  -0.54978  -0.54622  -0.54155
 Alpha  occ. eigenvalues --   -0.53997  -0.53757  -0.53521  -0.53383  -0.53061
 Alpha  occ. eigenvalues --   -0.53030  -0.53010  -0.52919  -0.52722  -0.52572
 Alpha  occ. eigenvalues --   -0.52497  -0.52247  -0.52130  -0.51740  -0.51667
 Alpha  occ. eigenvalues --   -0.51522  -0.51340  -0.50950  -0.50835  -0.50353
 Alpha  occ. eigenvalues --   -0.50292  -0.50142  -0.49841  -0.49722  -0.49667
 Alpha  occ. eigenvalues --   -0.49381  -0.49349  -0.49210  -0.48995  -0.48930
 Alpha  occ. eigenvalues --   -0.48748  -0.48688  -0.48602  -0.48284  -0.48206
 Alpha  occ. eigenvalues --   -0.48115  -0.47876  -0.47488  -0.47420  -0.46993
 Alpha  occ. eigenvalues --   -0.46909  -0.46665  -0.46599  -0.46538  -0.46408
 Alpha  occ. eigenvalues --   -0.46359  -0.46076  -0.45949  -0.45814  -0.45526
 Alpha  occ. eigenvalues --   -0.45428  -0.45031  -0.44856  -0.44726  -0.44493
 Alpha  occ. eigenvalues --   -0.44285  -0.44233  -0.44190  -0.44151  -0.43954
 Alpha  occ. eigenvalues --   -0.43891  -0.43713  -0.43599  -0.43538  -0.43283
 Alpha  occ. eigenvalues --   -0.43187  -0.43088  -0.42946  -0.42690  -0.42607
 Alpha  occ. eigenvalues --   -0.42415  -0.42320  -0.42217  -0.41878  -0.41813
 Alpha  occ. eigenvalues --   -0.41679  -0.41433  -0.41395  -0.41282  -0.41125
 Alpha  occ. eigenvalues --   -0.41084  -0.40809  -0.40795  -0.40599  -0.40500
 Alpha  occ. eigenvalues --   -0.40330  -0.40286  -0.39848  -0.39735  -0.39280
 Alpha  occ. eigenvalues --   -0.38678  -0.38249  -0.37874  -0.37694  -0.37480
 Alpha  occ. eigenvalues --   -0.37346  -0.37109  -0.37042  -0.36761  -0.36346
 Alpha  occ. eigenvalues --   -0.36228  -0.35853  -0.34477  -0.34063  -0.33721
 Alpha  occ. eigenvalues --   -0.33348  -0.33326  -0.32933  -0.31641  -0.31227
 Alpha  occ. eigenvalues --   -0.31140  -0.30773  -0.30149  -0.29690  -0.29666
 Alpha  occ. eigenvalues --   -0.29568  -0.29156  -0.29007  -0.24275  -0.23842
 Alpha  occ. eigenvalues --   -0.21359  -0.20941
 Alpha virt. eigenvalues --   -0.09004  -0.08607  -0.01985  -0.01514  -0.00297
 Alpha virt. eigenvalues --    0.00138   0.01968   0.02085   0.02492   0.03444
 Alpha virt. eigenvalues --    0.04564   0.05115   0.05191   0.05691   0.05968

 Mulliken charges:
               1
     1  Mg   0.804098
     2  C    0.000609
     3  C   -0.093050
     4  C   -0.048974
     5  C   -0.065057
     6  N   -0.255089
     7  C   -0.052862
     8  C   -0.014161
     9  C   -0.087083
    10  C    0.047630
    11  C    0.104757
    12  C    0.053202
    13  C   -0.072369
    14  H    0.038329
    15  N   -0.432403
    16  C    0.169238
    17  C   -0.177220
    18  C   -0.004535
    19  C    0.149070
    20  C    0.110040
    21  C    0.010484
    22  O   -0.250484
    23  C    0.062985
    24  N   -0.337775
    25  C    0.043204
    26  C   -0.028037
    27  C   -0.024602
    28  C    0.076205
    29  C    0.076294
    30  C    0.058039
    31  C   -0.045519
    32  N   -0.309614
    33  C    0.075896
    34  C   -0.178983
    35  C    0.007887
    36  C    0.081729
    37  C    0.126981
    38  C    0.046819
    39  O   -0.185422
    40  C   -0.006615
    41  C    0.212187
    42  O   -0.252120
    43  O   -0.305741
    44  C    0.156817
    45  H   -0.017236
    46  H   -0.018129
    47  H   -0.042923
    48  H    0.001539
    49  H   -0.003557
    50  H    0.025881
    51  H    0.016098
    52  H    0.017122
    53  H    0.011013
    54  H    0.046833
    55  H    0.017605
    56  H    0.017508
    57  H    0.006766
    58  H    0.027222
    59  H    0.039112
    60  H    0.038433
    61  H    0.035017
    62  H    0.030311
    63  H    0.014786
    64  H    0.010294
    65  H    0.023015
    66  H    0.013207
    67  H    0.005376
    68  H    0.004700
    69  H    0.004752
    70  H    0.007456
    71  H    0.021252
    72  H    0.048630
    73  H    0.046751
    74  H    0.009622
    75  H    0.047617
    76  H    0.035596
    77  H    0.043042
    78  H    0.045881
    79  H    0.056803
    80  Mg   0.837857
    81  C   -0.015078
    82  C   -0.088010
    83  C   -0.045926
    84  C   -0.065413
    85  N   -0.254310
    86  C   -0.048783
    87  C   -0.020233
    88  C   -0.091255
    89  C    0.045329
    90  C    0.114255
    91  C    0.083305
    92  C   -0.134459
    93  H    0.072212
    94  N   -0.423333
    95  C    0.162393
    96  C   -0.175003
    97  C   -0.008411
    98  C    0.151977
    99  C    0.099343
   100  C    0.015151
   101  O   -0.253716
   102  C    0.061464
   103  N   -0.350177
   104  C    0.037370
   105  C   -0.019672
   106  C   -0.034817
   107  C    0.089210
   108  C    0.073834
   109  C    0.034825
   110  C   -0.007625
   111  N   -0.324337
   112  C    0.078965
   113  C   -0.163064
   114  C    0.002749
   115  C    0.096488
   116  C    0.131319
   117  C    0.043466
   118  O   -0.186166
   119  C    0.000767
   120  C    0.210387
   121  O   -0.245608
   122  O   -0.309683
   123  C    0.144920
   124  H   -0.019337
   125  H   -0.016171
   126  H   -0.040685
   127  H    0.001033
   128  H   -0.002423
   129  H    0.021778
   130  H    0.014228
   131  H    0.016893
   132  H    0.010744
   133  H    0.041694
   134  H    0.033817
   135  H    0.033113
   136  H    0.009162
   137  H    0.025797
   138  H    0.038190
   139  H    0.038140
   140  H    0.035727
   141  H    0.033077
   142  H    0.014008
   143  H    0.012176
   144  H    0.024676
   145  H    0.011553
   146  H    0.005369
   147  H    0.005834
   148  H    0.003634
   149  H    0.010558
   150  H    0.017761
   151  H    0.030559
   152  H    0.046890
   153  H    0.008125
   154  H    0.046591
   155  H    0.033470
   156  H    0.038755
   157  H    0.053826
   158  H    0.066750
 Sum of Mulliken charges =  -0.00000

 Dipole moment (field-independent basis, Debye):
    X=             -2.6253    Y=              7.0527    Z=              1.5850  Tot=              7.6906
 Quadrupole moment (field-independent basis, Debye-Ang):
   XX=           -486.3059   YY=           -542.9229   ZZ=           -473.7131
   XY=            -27.5943   XZ=            -21.1541   YZ=              2.4960

 Normal termination of Gaussian 16 at Fri Sep 10 17:21:08 2021.
