 Gaussian 16, Revision A.03,
 Gaussian 16:  ES64L-G16RevA.03 25-Dec-2016

 -----------------------------------
 #p cam-b3lyp/Def2SVP td=(nstates=5)
 -----------------------------------

 --------------------------------
 TDDFT excited states in gaussian
 --------------------------------
 Symbolic Z-matrix:
 Charge =  0 Multiplicity = 1

                         Standard orientation:
 ---------------------------------------------------------------------
 Center     Atomic      Atomic             Coordinates (Angstroms)
 Number     Number       Type             X           Y           Z
 ---------------------------------------------------------------------
      1         12           0        6.489146    0.732167    0.505621
      2          6           0        7.056030   -2.204938   -1.460155
      3          6           0        7.167920    2.557652   -2.296153
      4          6           0        6.440691    3.332577    2.320046
      5          6           0        6.973056   -1.246322    3.333530
      6          7           0        7.028564    0.137095   -1.557281
      7          6           0        7.154564   -1.021936   -2.195984
      8          6           0        7.326289   -0.863046   -3.736321
      9          6           0        7.907011    0.621342   -3.773074
     10          6           0        7.304088    1.150038   -2.483543
     11          6           0        9.427275    0.683638   -3.666215
     12          6           0        5.963116   -0.963994   -4.500062
     13          6           0        6.075680   -1.145977   -6.016494
     14          1           0        5.096063   -1.979938   -6.696352
     15          7           0        6.284145    2.634356    0.013177
     16          6           0        6.595078    3.200686   -1.177570
     17          6           0        6.261759    4.635350   -1.045972
     18          6           0        5.910255    4.892035    0.378335
     19          6           0        6.227056    3.619069    0.973796
     20          6           0        6.249559    5.586734   -2.202895
     21          6           0        5.383852    6.097102    1.091669
     22          8           0        5.367368    6.179114    2.367434
     23          6           0        4.964391    7.229708    0.246508
     24          7           0        6.894670    1.061239    2.526733
     25          6           0        6.741081    2.272402    3.073066
     26          6           0        6.812198    2.209152    4.570023
     27          6           0        6.804432    0.657707    4.947795
     28          6           0        6.812930    0.066280    3.516568
     29          6           0        8.032417    2.884416    5.211189
     30          6           0        5.711498    0.180225    5.936696
     31          6           0        4.349296    0.292637    5.289496
     32          7           0        6.760176   -1.383052    0.909896
     33          6           0        6.966505   -1.982724    2.160694
     34          6           0        7.204378   -3.417487    1.917925
     35          6           0        7.135895   -3.550726    0.532500
     36          6           0        6.898044   -2.275266   -0.054800
     37          6           0        7.502144   -4.392490    2.910467
     38          6           0        7.232814   -4.469784   -0.589906
     39          8           0        7.330174   -5.692526   -0.703558
     40          6           0        7.306256   -3.615737   -1.931934
     41          6           0        6.329048   -4.215120   -2.906159
     42          8           0        5.100387   -4.162379   -2.694085
     43          8           0        6.972604   -4.541205   -4.037551
     44          6           0        6.054600   -5.114402   -5.057780
     45          1           0        7.589610    3.232830   -3.043316
     46          1           0        6.322568    4.185454    2.991675
     47          1           0        7.047563   -1.939695    4.173254
     48          1           0        8.039409   -1.553073   -4.187705
     49          1           0        7.530173    1.184738   -4.626480
     50          1           0        9.852132   -0.296987   -3.452222
     51          1           0        9.633509    1.374548   -2.848533
     52          1           0        9.860016    1.137343   -4.558214
     53          1           0        5.459650    0.002145   -4.466013
     54          1           0        5.347047   -1.762863   -4.085825
     55          1           0        7.087126   -1.428305   -6.310054
     56          1           0        5.916883   -0.176833   -6.489510
     57          1           0        6.710781    5.148194   -3.086921
     58          1           0        6.903789    6.417409   -1.938942
     59          1           0        5.248093    5.960885   -2.415988
     60          1           0        5.810605    7.562844   -0.354734
     61          1           0        4.533040    7.966384    0.923335
     62          1           0        4.206088    6.883805   -0.456539
     63          1           0        5.947176    2.691506    5.023342
     64          1           0        7.739358    0.345523    5.413765
     65          1           0        7.774773    3.653412    5.939866
     66          1           0        8.649594    3.293992    4.412044
     67          1           0        8.730244    2.202155    5.695930
     68          1           0        5.698888    0.813955    6.822796
     69          1           0        5.850178   -0.849244    6.267167
     70          1           0        4.085549    1.336279    5.457070
     71          1           0        3.638809   -0.373276    5.780393
     72          1           0        4.406884    0.140129    4.211577
     73          1           0        6.905223   -5.270572    2.664242
     74          1           0        7.270989   -4.023825    3.909595
     75          1           0        8.572345   -4.522922    2.750743
     76          1           0        8.333349   -3.681503   -2.289531
     77          1           0        6.455053   -6.088533   -5.338745
     78          1           0        5.954557   -4.363289   -5.841505
     79          1           0        5.059935   -5.393739   -4.708565
     80         12           0       -6.654199   -0.835190    0.434846
     81          6           0       -6.757222    1.870567   -1.920432
     82          6           0       -6.063373    1.492875    2.856758
     83          6           0       -6.111008   -3.220281    2.455669
     84          6           0       -6.113160   -2.977239   -2.260451
     85          7           0       -6.458337    1.366506    0.354569
     86          6           0       -6.577710    2.291222   -0.586169
     87          6           0       -6.580689    3.750492   -0.056949
     88          6           0       -5.794280    3.507792    1.322008
     89          6           0       -6.151292    2.040720    1.552056
     90          6           0       -4.285017    3.615661    1.181135
     91          6           0       -8.031591    4.291337    0.196757
     92          6           0       -8.125073    5.802727    0.417475
     93          1           0       -9.296164    6.509671   -0.093664
     94          7           0       -6.646193   -0.860500    2.419255
     95          6           0       -6.410130    0.180209    3.245369
     96          6           0       -6.498715   -0.361434    4.610260
     97          6           0       -6.643237   -1.839826    4.519772
     98          6           0       -6.447238   -2.037286    3.097559
     99          6           0       -6.523752    0.510741    5.831783
    100          6           0       -6.900836   -2.901674    5.545601
    101          8           0       -6.751169   -4.146310    5.278585
    102          6           0       -7.242899   -2.437479    6.898005
    103          7           0       -5.971188   -2.780725    0.168839
    104          6           0       -5.875882   -3.628158    1.208403
    105          6           0       -5.628991   -5.041981    0.738780
    106          6           0       -5.819969   -5.006923   -0.848631
    107          6           0       -6.067368   -3.494506   -1.040410
    108          6           0       -4.255635   -5.623757    1.073169
    109          6           0       -6.842028   -6.006036   -1.456752
    110          6           0       -8.243290   -5.637470   -1.025471
    111          7           0       -6.647972   -0.655057   -1.718192
    112          6           0       -6.372128   -1.671888   -2.658429
    113          6           0       -6.375324   -1.041820   -3.994632
    114          6           0       -6.632069    0.312875   -3.735073
    115          6           0       -6.758500    0.516524   -2.334348
    116          6           0       -6.112663   -1.703739   -5.227107
    117          6           0       -6.814322    1.618788   -4.326751
    118          8           0       -6.901320    2.046887   -5.476921
    119          6           0       -6.777945    2.707537   -3.169306
    120          6           0       -7.942722    3.637887   -3.369972
    121          8           0       -9.109642    3.223762   -3.254246
    122          8           0       -7.488426    4.901862   -3.449687
    123          6           0       -8.607787    5.862823   -3.637843
    124          1           0       -5.650106    2.112679    3.652952
    125          1           0       -6.021660   -4.097653    3.100431
    126          1           0       -6.049785   -3.594657   -3.159035
    127          1           0       -6.040090    4.458465   -0.673645
    128          1           0       -6.195383    4.127453    2.119811
    129          1           0       -3.983190    3.721320    0.149695
    130          1           0       -3.884362    2.702249    1.600911
    131          1           0       -3.904978    4.427465    1.807921
    132          1           0       -8.379921    3.936658    1.175332
    133          1           0       -8.690906    4.000746   -0.597911
    134          1           0       -7.204379    6.320209    0.121700
    135          1           0       -8.206204    5.992353    1.490548
    136          1           0       -6.234940    1.542320    5.595472
    137          1           0       -5.730734    0.152249    6.496956
    138          1           0       -7.477302    0.465448    6.362206
    139          1           0       -6.438722   -1.812858    7.279595
    140          1           0       -7.478303   -3.339718    7.465834
    141          1           0       -8.132710   -1.801187    6.834877
    142          1           0       -6.354937   -5.723411    1.165108
    143          1           0       -4.884209   -5.241740   -1.376883
    144          1           0       -4.309529   -6.563949    1.653871
    145          1           0       -3.690108   -4.875566    1.612543
    146          1           0       -3.616486   -5.821875    0.214427
    147          1           0       -6.656280   -7.014582   -1.079263
    148          1           0       -6.805386   -6.055764   -2.539891
    149          1           0       -8.326189   -6.097820   -0.036394
    150          1           0       -8.977195   -6.049282   -1.715274
    151          1           0       -8.342354   -4.553700   -0.893985
    152          1           0       -6.847679   -1.345659   -5.935643
    153          1           0       -6.160427   -2.784993   -5.115764
    154          1           0       -5.094788   -1.355763   -5.422310
    155          1           0       -5.821819    3.227705   -3.238776
    156          1           0       -8.385828    6.438891   -4.541483
    157          1           0       -8.682026    6.424715   -2.687833
    158          1           0       -9.582360    5.455738   -3.880603
 ---------------------------------------------------------------------

 SCF Done:  E(RCAM-B3LYP) =  -4069.81190829     A.U. after   19 cycles

 Excitation energies and oscillator strengths:

 Excited State   1:      Singlet-A      1.6731 eV  741.05 nm  f=0.2820  <S**2>=0.000
     310 -> 316        0.15575
     311 -> 313        0.30041
     312 -> 314        0.61690
 This state for optimization and/or second-order correction.
 Total Energy, E(TD-HF/TD-DFT) =  -4069.75042380
 Copying the excited state density for this state as the 1-particle RhoCI density.

 Excited State   2:      Singlet-A      1.6806 eV  737.72 nm  f=0.4506  <S**2>=0.000
     309 -> 315        0.15783
     311 -> 313        0.61636
     312 -> 314       -0.30015

 Excited State   3:      Singlet-A      2.1853 eV  567.35 nm  f=0.0928  <S**2>=0.000
     310 -> 314        0.63541
     312 -> 316       -0.26943

 Excited State   4:      Singlet-A      2.1924 eV  565.52 nm  f=0.1051  <S**2>=0.000
     309 -> 313        0.63337
     311 -> 315       -0.27490

 Excited State   5:      Singlet-A      2.6504 eV  467.80 nm  f=0.0000  <S**2>=0.000
     312 -> 313        0.70710

 The electronic state is 1-A.
 Alpha  occ. eigenvalues --  -46.87855 -46.87557 -19.26321 -19.26319 -19.19119
 Alpha  occ. eigenvalues --  -19.19063 -19.18897 -19.18620 -19.18220 -19.17983
 Alpha  occ. eigenvalues --  -14.42503 -14.42397 -14.41510 -14.41246 -14.39463
 Alpha  occ. eigenvalues --  -14.39251 -14.38643 -14.38501 -10.39122 -10.39046
 Alpha  occ. eigenvalues --  -10.35531 -10.35298 -10.34439 -10.34162 -10.31741
 Alpha  occ. eigenvalues --  -10.31710 -10.31452 -10.31217 -10.30960 -10.30931
 Alpha  occ. eigenvalues --  -10.30623 -10.30569 -10.30297 -10.30272 -10.30267
 Alpha  occ. eigenvalues --  -10.30019 -10.29985 -10.29777 -10.29690 -10.29331
 Alpha  occ. eigenvalues --  -10.29314 -10.29307 -10.28780 -10.28647 -10.28611
 Alpha  occ. eigenvalues --  -10.28540 -10.28421 -10.28311 -10.28148 -10.28058
 Alpha  occ. eigenvalues --  -10.27908 -10.27849 -10.27778 -10.27645 -10.27578
 Alpha  occ. eigenvalues --  -10.27569 -10.27529 -10.27529 -10.27458 -10.27389
 Alpha  occ. eigenvalues --  -10.27380 -10.27372 -10.27363 -10.27215 -10.27205
 Alpha  occ. eigenvalues --  -10.26988 -10.26724 -10.26633 -10.26499 -10.26332
 Alpha  occ. eigenvalues --  -10.26274 -10.26263 -10.26079 -10.25999 -10.25937
 Alpha  occ. eigenvalues --  -10.25892 -10.25822 -10.25766 -10.25511 -10.25176
 Alpha  occ. eigenvalues --  -10.24888 -10.24851 -10.24794 -10.24782 -10.24611
 Alpha  occ. eigenvalues --  -10.24579  -3.16598  -3.16307  -1.91480  -1.91189
 Alpha  occ. eigenvalues --   -1.91066  -1.90908  -1.90777  -1.90614  -1.16671
 Alpha  occ. eigenvalues --   -1.16610  -1.08677  -1.08595  -1.07301  -1.06904
 Alpha  occ. eigenvalues --   -1.06872  -1.06684  -1.04633  -1.04399  -1.03820
 Alpha  occ. eigenvalues --   -1.03560  -1.03293  -1.02930  -1.02470  -1.02007
 Alpha  occ. eigenvalues --   -0.92025  -0.91899  -0.89590  -0.89378  -0.89222
 Alpha  occ. eigenvalues --   -0.89069  -0.88358  -0.88087  -0.87923  -0.87723
 Alpha  occ. eigenvalues --   -0.87703  -0.87584  -0.87337  -0.87028  -0.85023
 Alpha  occ. eigenvalues --   -0.84915  -0.84011  -0.83746  -0.83042  -0.82831
 Alpha  occ. eigenvalues --   -0.82698  -0.82567  -0.81632  -0.81528  -0.80650
 Alpha  occ. eigenvalues --   -0.80361  -0.78855  -0.78542  -0.77274  -0.77053
 Alpha  occ. eigenvalues --   -0.76978  -0.76808  -0.75966  -0.75760  -0.74963
 Alpha  occ. eigenvalues --   -0.74669  -0.72830  -0.72599  -0.71726  -0.71472
 Alpha  occ. eigenvalues --   -0.69987  -0.69625  -0.68919  -0.68743  -0.67699
 Alpha  occ. eigenvalues --   -0.67507  -0.67261  -0.67123  -0.65328  -0.65192
 Alpha  occ. eigenvalues --   -0.64908  -0.64676  -0.64674  -0.64568  -0.64337
 Alpha  occ. eigenvalues --   -0.64083  -0.62346  -0.62208  -0.60507  -0.60236
 Alpha  occ. eigenvalues --   -0.59846  -0.59712  -0.59044  -0.58892  -0.58560
 Alpha  occ. eigenvalues --   -0.58331  -0.57633  -0.57488  -0.57371  -0.57131
 Alpha  occ. eigenvalues --   -0.56364  -0.56116  -0.56020  -0.55824  -0.55580
 Alpha  occ. eigenvalues --   -0.55404  -0.55374  -0.55140  -0.54583  -0.54388
 Alpha  occ. eigenvalues --   -0.53931  -0.53833  -0.53360  -0.53272  -0.53132
 Alpha  occ. eigenvalues --   -0.53060  -0.52969  -0.52823  -0.52813  -0.52583
 Alpha  occ. eigenvalues --   -0.52520  -0.52279  -0.51967  -0.51799  -0.51660
 Alpha  occ. eigenvalues --   -0.51583  -0.51250  -0.51115  -0.50640  -0.50381
 Alpha  occ. eigenvalues --   -0.50102  -0.49979  -0.49887  -0.49736  -0.49566
 Alpha  occ. eigenvalues --   -0.49402  -0.49268  -0.49136  -0.49122  -0.49023
 Alpha  occ. eigenvalues --   -0.48641  -0.48531  -0.48507  -0.48480  -0.48262
 Alpha  occ. eigenvalues --   -0.48237  -0.47749  -0.47503  -0.47354  -0.47014
 Alpha  occ. eigenvalues --   -0.46854  -0.46608  -0.46594  -0.46468  -0.46418
 Alpha  occ. eigenvalues --   -0.46220  -0.46170  -0.45978  -0.45868  -0.45743
 Alpha  occ. eigenvalues --   -0.45270  -0.45070  -0.44629  -0.44567  -0.44433
 Alpha  occ. eigenvalues --   -0.44388  -0.44210  -0.44131  -0.44073  -0.44043
 Alpha  occ. eigenvalues --   -0.43974  -0.43859  -0.43544  -0.43482  -0.43437
 Alpha  occ. eigenvalues --   -0.43291  -0.43082  -0.42871  -0.42806  -0.42760
 Alpha  occ. eigenvalues --   -0.42714  -0.42434  -0.42072  -0.41862  -0.41759
 Alpha  occ. eigenvalues --   -0.41579  -0.41574  -0.41369  -0.41193  -0.40921
 Alpha  occ. eigenvalues --   -0.40892  -0.40887  -0.40636  -0.40635  -0.40608
 Alpha  occ. eigenvalues --   -0.40369  -0.40263  -0.40158  -0.39525  -0.39295
 Alpha  occ. eigenvalues --   -0.38535  -0.38220  -0.37782  -0.37579  -0.37385
 Alpha  occ. eigenvalues --   -0.37304  -0.37153  -0.37111  -0.36763  -0.36710
 Alpha  occ. eigenvalues --   -0.36247  -0.36111  -0.34342  -0.34154  -0.33816
 Alpha  occ. eigenvalues --   -0.33808  -0.33243  -0.33075  -0.31427  -0.31177
 Alpha  occ. eigenvalues --   -0.31093  -0.30873  -0.30079  -0.29890  -0.29511
 Alpha  occ. eigenvalues --   -0.29378  -0.29233  -0.29120  -0.24137  -0.23934
 Alpha  occ. eigenvalues --   -0.21185  -0.21015
 Alpha virt. eigenvalues --   -0.08832  -0.08694  -0.01811  -0.01577  -0.00121
 Alpha virt. eigenvalues --    0.00062   0.02143   0.02295   0.03054   0.03321
 Alpha virt. eigenvalues --    0.04673   0.04825   0.05055   0.05213   0.06152

 Mulliken charges:
               1
     1  Mg   0.838598
     2  C   -0.002931
     3  C   -0.093807
     4  C   -0.046154
     5  C   -0.064013
     6  N   -0.256794
     7  C   -0.052338
     8  C   -0.014030
     9  C   -0.087044
    10  C    0.046306
    11  C    0.104766
    12  C    0.053373
    13  C   -0.072027
    14  H    0.036497
    15  N   -0.433119
    16  C    0.168313
    17  C   -0.177029
    18  C   -0.004217
    19  C    0.148642
    20  C    0.110091
    21  C    0.011912
    22  O   -0.250133
    23  C    0.062594
    24  N   -0.341111
    25  C    0.041261
    26  C   -0.028108
    27  C   -0.023969
    28  C    0.074780
    29  C    0.076182
    30  C    0.035191
    31  C   -0.004466
    32  N   -0.310491
    33  C    0.080410
    34  C   -0.169655
    35  C    0.008409
    36  C    0.082983
    37  C    0.127310
    38  C    0.046131
    39  O   -0.188299
    40  C   -0.005335
    41  C    0.212957
    42  O   -0.257252
    43  O   -0.304723
    44  C    0.157717
    45  H   -0.017357
    46  H   -0.017157
    47  H   -0.041467
    48  H    0.001045
    49  H   -0.003705
    50  H    0.025493
    51  H    0.016372
    52  H    0.016892
    53  H    0.011406
    54  H    0.044003
    55  H    0.017876
    56  H    0.018331
    57  H    0.006228
    58  H    0.026855
    59  H    0.039653
    60  H    0.037707
    61  H    0.035127
    62  H    0.031376
    63  H    0.016021
    64  H    0.009596
    65  H    0.022964
    66  H    0.012715
    67  H    0.004869
    68  H    0.006117
    69  H    0.004999
    70  H    0.008037
    71  H    0.018093
    72  H    0.029169
    73  H    0.047668
    74  H    0.009130
    75  H    0.046117
    76  H    0.035310
    77  H    0.043013
    78  H    0.046651
    79  H    0.053475
    80  Mg   0.838107
    81  C   -0.017026
    82  C   -0.087906
    83  C   -0.045312
    84  C   -0.064201
    85  N   -0.254595
    86  C   -0.049882
    87  C   -0.015089
    88  C   -0.090480
    89  C    0.045800
    90  C    0.114333
    91  C    0.062566
    92  C   -0.077731
    93  H    0.034507
    94  N   -0.423552
    95  C    0.163054
    96  C   -0.174606
    97  C   -0.007732
    98  C    0.152226
    99  C    0.099376
   100  C    0.015545
   101  O   -0.252949
   102  C    0.061223
   103  N   -0.349989
   104  C    0.037938
   105  C   -0.020165
   106  C   -0.034832
   107  C    0.088928
   108  C    0.073090
   109  C    0.034669
   110  C   -0.007623
   111  N   -0.324066
   112  C    0.078391
   113  C   -0.163081
   114  C    0.001985
   115  C    0.096274
   116  C    0.131535
   117  C    0.042142
   118  O   -0.188648
   119  C    0.000982
   120  C    0.211180
   121  O   -0.251001
   122  O   -0.305784
   123  C    0.152116
   124  H   -0.019623
   125  H   -0.015267
   126  H   -0.040276
   127  H   -0.001124
   128  H   -0.004458
   129  H    0.021972
   130  H    0.015014
   131  H    0.016438
   132  H    0.013959
   133  H    0.037555
   134  H    0.020548
   135  H    0.019638
   136  H    0.008748
   137  H    0.026122
   138  H    0.039588
   139  H    0.038169
   140  H    0.036303
   141  H    0.033740
   142  H    0.014149
   143  H    0.013551
   144  H    0.025165
   145  H    0.012311
   146  H    0.007552
   147  H    0.006573
   148  H    0.003534
   149  H    0.010892
   150  H    0.017599
   151  H    0.029820
   152  H    0.045552
   153  H    0.008667
   154  H    0.046907
   155  H    0.034484
   156  H    0.043460
   157  H    0.049483
   158  H    0.053544
 Sum of Mulliken charges =  -0.00000

 Dipole moment (field-independent basis, Debye):
    X=              3.4898    Y=              5.0873    Z=              1.3672  Tot=              6.3189
 Quadrupole moment (field-independent basis, Debye-Ang):
   XX=           -520.1591   YY=           -512.7632   ZZ=           -485.7303
   XY=             12.4399   XZ=            -46.8393   YZ=             11.6997

 Normal termination of Gaussian 16 at Sat Sep 11 10:26:39 2021.
