 Gaussian 16, Revision A.03,
 Gaussian 16:  ES64L-G16RevA.03 25-Dec-2016

 -----------------------------------
 #p cam-b3lyp/Def2SVP td=(nstates=5)
 -----------------------------------

 --------------------------------
 TDDFT excited states in gaussian
 --------------------------------
 Symbolic Z-matrix:
 Charge =  0 Multiplicity = 1

                         Standard orientation:
 ---------------------------------------------------------------------
 Center     Atomic      Atomic             Coordinates (Angstroms)
 Number     Number       Type             X           Y           Z
 ---------------------------------------------------------------------
      1         12           0        5.065908   -1.244201    0.164250
      2          6           0        5.971678    1.855102   -1.380457
      3          6           0        6.345110    0.002282    3.071652
      4          6           0        4.692161   -4.124831    1.436611
      5          6           0        4.915614   -2.623784   -3.032596
      6          7           0        6.009580    0.696711    0.657189
      7          6           0        6.243059    1.822066   -0.010820
      8          6           0        6.733190    2.989275    0.897347
      9          6           0        7.337113    2.135374    2.100729
     10          6           0        6.490291    0.882908    1.958794
     11          6           0        8.803155    1.761622    1.906999
     12          6           0        5.556160    3.903400    1.377667
     13          6           0        5.976973    5.241555    1.992169
     14          1           0        5.143753    6.411667    1.759942
     15          7           0        5.003680   -1.811102    2.055705
     16          6           0        5.565309   -1.173825    3.111042
     17          6           0        5.239367   -1.989788    4.300431
     18          6           0        4.605352   -3.251467    3.826843
     19          6           0        4.767585   -3.122823    2.401182
     20          6           0        5.485265   -1.531553    5.705175
     21          6           0        3.965649   -4.396950    4.545718
     22          8           0        3.686769   -5.497940    3.958674
     23          6           0        3.752061   -4.226549    5.994299
     24          7           0        5.050086   -3.165691   -0.651386
     25          6           0        4.809754   -4.237397    0.111943
     26          6           0        4.567961   -5.459576   -0.723373
     27          6           0        4.452523   -4.948382   -2.231719
     28          6           0        4.746090   -3.446372   -1.994964
     29          6           0        5.641510   -6.553127   -0.635891
     30          6           0        3.169520   -5.335545   -3.009167
     31          6           0        1.973361   -4.631724   -2.408385
     32          7           0        5.206926   -0.501849   -1.870467
     33          6           0        5.138162   -1.257022   -3.050153
     34          6           0        5.393779   -0.332808   -4.170223
     35          6           0        5.611294    0.900589   -3.559270
     36          6           0        5.524640    0.750759   -2.145646
     37          6           0        5.460803   -0.689211   -5.546057
     38          6           0        5.921118    2.305294   -3.770621
     39          8           0        6.016586    3.032903   -4.760048
     40          6           0        6.287281    2.954852   -2.363558
     41          6           0        5.521878    4.244622   -2.245404
     42          8           0        4.277171    4.243940   -2.155567
     43          8           0        6.379541    5.251353   -2.018579
     44          6           0        5.682076    6.555639   -1.861945
     45          1           0        6.925243    0.194788    3.976267
     46          1           0        4.453729   -5.116281    1.827272
     47          1           0        4.801295   -2.965755   -4.062858
     48          1           0        7.511070    3.612647    0.456060
     49          1           0        7.156074    2.607824    3.065995
     50          1           0        9.155686    2.034130    0.912322
     51          1           0        8.848635    0.681071    2.044230
     52          1           0        9.419884    2.190263    2.697372
     53          1           0        5.075073    3.445484    2.241918
     54          1           0        4.852520    4.085445    0.564600
     55          1           0        7.021724    5.467854    1.777242
     56          1           0        5.938127    5.146314    3.077352
     57          1           0        6.111192   -0.640462    5.731984
     58          1           0        6.086325   -2.300391    6.190277
     59          1           0        4.556997   -1.387231    6.258186
     60          1           0        4.710675   -4.044009    6.480394
     61          1           0        3.203964   -5.108719    6.323260
     62          1           0        3.149420   -3.332999    6.159644
     63          1           0        3.637143   -5.949112   -0.439896
     64          1           0        5.264497   -5.324728   -2.854404
     65          1           0        5.253191   -7.524326   -0.328181
     66          1           0        6.418558   -6.208772    0.045949
     67          1           0        6.210629   -6.709273   -1.551936
     68          1           0        2.985680   -6.406332   -2.928153
     69          1           0        3.217073   -5.086482   -4.069335
     70          1           0        1.700561   -5.281472   -1.577578
     71          1           0        1.164022   -4.568344   -3.136509
     72          1           0        2.250111   -3.664521   -1.988369
     73          1           0        4.911221    0.080573   -6.087684
     74          1           0        5.034730   -1.676965   -5.720436
     75          1           0        6.538190   -0.664525   -5.708791
     76          1           0        7.364733    3.116776   -2.363936
     77          1           0        6.113409    7.240055   -2.592534
     78          1           0        5.760917    6.824643   -0.808462
     79          1           0        4.631502    6.578561   -2.153674
     80         12           0       -5.231204    1.216640    0.443996
     81          6           0       -5.845758   -2.098982   -0.784023
     82          6           0       -4.221240    2.036242   -2.709227
     83          6           0       -4.256840    4.010604    1.589330
     84          6           0       -5.188683   -0.131241    3.657584
     85          7           0       -5.096867    0.034731   -1.420757
     86          6           0       -5.416045   -1.199092   -1.781501
     87          6           0       -5.342950   -1.461659   -3.309668
     88          6           0       -4.296850   -0.308171   -3.702078
     89          6           0       -4.573793    0.670809   -2.562963
     90          6           0       -2.846880   -0.753131   -3.607545
     91          6           0       -6.725945   -1.248616   -4.019578
     92          6           0       -6.803084   -1.783574   -5.451222
     93          1           0       -8.064930   -2.354768   -5.913779
     94          7           0       -4.833616    2.920437   -0.492775
     95          6           0       -4.459962    3.073026   -1.780550
     96          6           0       -4.268756    4.518587   -1.975412
     97          6           0       -4.400024    5.191373   -0.654490
     98          6           0       -4.483088    4.039483    0.220927
     99          6           0       -4.070305    5.138060   -3.328291
    100          6           0       -4.431128    6.632866   -0.245434
    101          8           0       -4.313070    6.987595    0.980559
    102          6           0       -4.510040    7.620909   -1.331270
    103          7           0       -4.576721    1.819328    2.323034
    104          6           0       -4.263217    3.103951    2.566699
    105          6           0       -4.086354    3.351152    4.045891
    106          6           0       -4.585637    2.014213    4.767625
    107          6           0       -4.894616    1.154599    3.522234
    108          6           0       -2.663266    3.673818    4.500954
    109          6           0       -5.687914    2.168860    5.851015
    110          6           0       -6.984112    2.608803    5.209378
    111          7           0       -5.650868   -0.709399    1.328489
    112          6           0       -5.545510   -1.063283    2.691474
    113          6           0       -5.822756   -2.511125    2.788064
    114          6           0       -6.049344   -2.906803    1.461194
    115          6           0       -5.902420   -1.788805    0.596318
    116          6           0       -5.794389   -3.285723    3.981925
    117          6           0       -6.368968   -4.018178    0.594379
    118          8           0       -6.688024   -5.193324    0.770368
    119          6           0       -6.127000   -3.570485   -0.911414
    120          6           0       -7.326010   -3.987352   -1.718324
    121          8           0       -8.439459   -3.475563   -1.506421
    122          8           0       -6.920335   -4.756162   -2.745331
    123          6           0       -8.072952   -5.185522   -3.581344
    124          1           0       -3.671700    2.337488   -3.601492
    125          1           0       -4.026053    4.974164    2.049518
    126          1           0       -5.291062   -0.606888    4.635312
    127          1           0       -4.947422   -2.431842   -3.585478
    128          1           0       -4.545401    0.141260   -4.659993
    129          1           0       -2.755315   -1.739165   -3.176858
    130          1           0       -2.354340   -0.019956   -2.982325
    131          1           0       -2.366808   -0.684449   -4.587920
    132          1           0       -6.868722   -0.177371   -4.211346
    133          1           0       -7.522663   -1.665426   -3.434655
    134          1           0       -5.968326   -2.455209   -5.685830
    135          1           0       -6.675737   -0.946405   -6.141832
    136          1           0       -3.853150    4.379287   -4.090210
    137          1           0       -3.155534    5.738158   -3.274126
    138          1           0       -4.900246    5.784561   -3.621372
    139          1           0       -3.658682    7.495657   -1.996066
    140          1           0       -4.612254    8.589537   -0.838128
    141          1           0       -5.406902    7.415822   -1.926402
    142          1           0       -4.701465    4.179340    4.375828
    143          1           0       -3.767381    1.509934    5.302404
    144          1           0       -2.584275    4.639307    5.035437
    145          1           0       -2.017277    3.665661    3.633098
    146          1           0       -2.201323    2.923085    5.139862
    147          1           0       -5.412552    2.951280    6.562455
    148          1           0       -5.863511    1.262614    6.420985
    149          1           0       -6.862601    3.692939    5.125815
    150          1           0       -7.831096    2.354262    5.843305
    151          1           0       -7.076082    2.208120    4.193178
    152          1           0       -6.660788   -3.933061    3.953712
    153          1           0       -5.798779   -2.652667    4.866796
    154          1           0       -4.841391   -3.806073    3.854213
    155          1           0       -5.213156   -4.056757   -1.254946
    156          1           0       -8.043587   -6.278490   -3.628876
    157          1           0       -7.970086   -4.636861   -4.536413
    158          1           0       -9.068283   -5.017663   -3.186895
 ---------------------------------------------------------------------

 SCF Done:  E(RCAM-B3LYP) =  -4069.81200332     A.U. after   19 cycles

 Excitation energies and oscillator strengths:

 Excited State   1:      Singlet-A      1.6624 eV  745.81 nm  f=0.1133  <S**2>=0.000
     309 -> 315        0.11295
     310 -> 316        0.12761
     311 -> 313        0.45281
     312 -> 314        0.51625
 This state for optimization and/or second-order correction.
 Total Energy, E(TD-HF/TD-DFT) =  -4069.75091103
 Copying the excited state density for this state as the 1-particle RhoCI density.

 Excited State   2:      Singlet-A      1.6912 eV  733.13 nm  f=0.5947  <S**2>=0.000
     309 -> 315        0.13408
     310 -> 316       -0.11710
     311 -> 313        0.51491
     312 -> 314       -0.45177

 Excited State   3:      Singlet-A      2.1858 eV  567.24 nm  f=0.0534  <S**2>=0.000
     309 -> 313        0.23966
     310 -> 314        0.59675
     311 -> 315       -0.10060
     312 -> 316       -0.25255

 Excited State   4:      Singlet-A      2.1936 eV  565.20 nm  f=0.1370  <S**2>=0.000
     309 -> 313        0.59438
     310 -> 314       -0.23758
     311 -> 315       -0.25900
     312 -> 316        0.10408

 Excited State   5:      Singlet-A      2.4809 eV  499.76 nm  f=0.0000  <S**2>=0.000
     312 -> 313        0.70709

 The electronic state is 1-A.
 Alpha  occ. eigenvalues --  -46.87886 -46.87490 -19.26397 -19.26235 -19.19144
 Alpha  occ. eigenvalues --  -19.19037 -19.18875 -19.18545 -19.18287 -19.17891
 Alpha  occ. eigenvalues --  -14.42536 -14.42321 -14.41536 -14.41200 -14.39489
 Alpha  occ. eigenvalues --  -14.39175 -14.38685 -14.38433 -10.39199 -10.38964
 Alpha  occ. eigenvalues --  -10.35507 -10.35221 -10.34507 -10.34071 -10.31785
 Alpha  occ. eigenvalues --  -10.31658 -10.31500 -10.31129 -10.30987 -10.30838
 Alpha  occ. eigenvalues --  -10.30670 -10.30601 -10.30287 -10.30238 -10.30186
 Alpha  occ. eigenvalues --  -10.30012 -10.29981 -10.29755 -10.29726 -10.29341
 Alpha  occ. eigenvalues --  -10.29254 -10.29230 -10.28817 -10.28574 -10.28544
 Alpha  occ. eigenvalues --  -10.28519 -10.28456 -10.28225 -10.28189 -10.27939
 Alpha  occ. eigenvalues --  -10.27892 -10.27822 -10.27814 -10.27674 -10.27582
 Alpha  occ. eigenvalues --  -10.27558 -10.27517 -10.27493 -10.27470 -10.27427
 Alpha  occ. eigenvalues --  -10.27316 -10.27287 -10.27285 -10.27264 -10.27198
 Alpha  occ. eigenvalues --  -10.26901 -10.26760 -10.26538 -10.26459 -10.26302
 Alpha  occ. eigenvalues --  -10.26279 -10.26230 -10.26114 -10.26073 -10.25989
 Alpha  occ. eigenvalues --  -10.25780 -10.25780 -10.25708 -10.25487 -10.25344
 Alpha  occ. eigenvalues --  -10.24936 -10.24871 -10.24800 -10.24699 -10.24661
 Alpha  occ. eigenvalues --  -10.24531  -3.16629  -3.16240  -1.91510  -1.91122
 Alpha  occ. eigenvalues --   -1.91097  -1.90939  -1.90711  -1.90548  -1.16747
 Alpha  occ. eigenvalues --   -1.16526  -1.08749  -1.08504  -1.07273  -1.06821
 Alpha  occ. eigenvalues --   -1.06798  -1.06765  -1.04667  -1.04318  -1.03847
 Alpha  occ. eigenvalues --   -1.03495  -1.03326  -1.02876  -1.02502  -1.01945
 Alpha  occ. eigenvalues --   -0.92069  -0.91822  -0.89610  -0.89362  -0.89261
 Alpha  occ. eigenvalues --   -0.88968  -0.88369  -0.88104  -0.87983  -0.87756
 Alpha  occ. eigenvalues --   -0.87631  -0.87511  -0.87354  -0.86921  -0.85056
 Alpha  occ. eigenvalues --   -0.84828  -0.84024  -0.83772  -0.83038  -0.82763
 Alpha  occ. eigenvalues --   -0.82725  -0.82481  -0.81684  -0.81455  -0.80686
 Alpha  occ. eigenvalues --   -0.80286  -0.78887  -0.78448  -0.77305  -0.77016
 Alpha  occ. eigenvalues --   -0.76980  -0.76756  -0.76011  -0.75666  -0.74979
 Alpha  occ. eigenvalues --   -0.74683  -0.72870  -0.72533  -0.71755  -0.71424
 Alpha  occ. eigenvalues --   -0.69997  -0.69657  -0.68951  -0.68658  -0.67729
 Alpha  occ. eigenvalues --   -0.67442  -0.67286  -0.67034  -0.65367  -0.65106
 Alpha  occ. eigenvalues --   -0.64947  -0.64707  -0.64615  -0.64502  -0.64356
 Alpha  occ. eigenvalues --   -0.64077  -0.62399  -0.62144  -0.60522  -0.60168
 Alpha  occ. eigenvalues --   -0.59885  -0.59617  -0.59077  -0.58836  -0.58596
 Alpha  occ. eigenvalues --   -0.58270  -0.57692  -0.57407  -0.57398  -0.57091
 Alpha  occ. eigenvalues --   -0.56406  -0.56074  -0.56034  -0.55743  -0.55603
 Alpha  occ. eigenvalues --   -0.55433  -0.55286  -0.55130  -0.54622  -0.54374
 Alpha  occ. eigenvalues --   -0.53968  -0.53735  -0.53387  -0.53301  -0.53073
 Alpha  occ. eigenvalues --   -0.53010  -0.52976  -0.52828  -0.52747  -0.52534
 Alpha  occ. eigenvalues --   -0.52471  -0.52305  -0.52041  -0.51733  -0.51693
 Alpha  occ. eigenvalues --   -0.51484  -0.51293  -0.51052  -0.50643  -0.50281
 Alpha  occ. eigenvalues --   -0.50114  -0.49992  -0.49810  -0.49723  -0.49592
 Alpha  occ. eigenvalues --   -0.49313  -0.49310  -0.49178  -0.49025  -0.48936
 Alpha  occ. eigenvalues --   -0.48688  -0.48546  -0.48522  -0.48397  -0.48258
 Alpha  occ. eigenvalues --   -0.48164  -0.47776  -0.47427  -0.47379  -0.46947
 Alpha  occ. eigenvalues --   -0.46887  -0.46629  -0.46557  -0.46452  -0.46383
 Alpha  occ. eigenvalues --   -0.46259  -0.46108  -0.45951  -0.45929  -0.45681
 Alpha  occ. eigenvalues --   -0.45281  -0.45088  -0.44682  -0.44581  -0.44366
 Alpha  occ. eigenvalues --   -0.44306  -0.44234  -0.44167  -0.44105  -0.43965
 Alpha  occ. eigenvalues --   -0.43931  -0.43765  -0.43598  -0.43463  -0.43421
 Alpha  occ. eigenvalues --   -0.43228  -0.43118  -0.42801  -0.42797  -0.42755
 Alpha  occ. eigenvalues --   -0.42750  -0.42421  -0.42101  -0.41835  -0.41797
 Alpha  occ. eigenvalues --   -0.41606  -0.41514  -0.41303  -0.41221  -0.40945
 Alpha  occ. eigenvalues --   -0.40884  -0.40825  -0.40654  -0.40563  -0.40535
 Alpha  occ. eigenvalues --   -0.40366  -0.40291  -0.40067  -0.39531  -0.39328
 Alpha  occ. eigenvalues --   -0.38545  -0.38232  -0.37815  -0.37497  -0.37404
 Alpha  occ. eigenvalues --   -0.37342  -0.37128  -0.37026  -0.36819  -0.36652
 Alpha  occ. eigenvalues --   -0.36286  -0.36084  -0.34378  -0.34090  -0.33889
 Alpha  occ. eigenvalues --   -0.33729  -0.33280  -0.33008  -0.31405  -0.31122
 Alpha  occ. eigenvalues --   -0.31106  -0.30807  -0.30148  -0.29800  -0.29540
 Alpha  occ. eigenvalues --   -0.29424  -0.29144  -0.29038  -0.24171  -0.23867
 Alpha  occ. eigenvalues --   -0.21219  -0.20945
 Alpha virt. eigenvalues --   -0.08865  -0.08615  -0.01834  -0.01519  -0.00138
 Alpha virt. eigenvalues --    0.00155   0.02096   0.02364   0.03015   0.03384
 Alpha virt. eigenvalues --    0.04642   0.04900   0.04982   0.05296   0.06121

 Mulliken charges:
               1
     1  Mg   0.838686
     2  C   -0.003015
     3  C   -0.094048
     4  C   -0.045648
     5  C   -0.064251
     6  N   -0.256856
     7  C   -0.052385
     8  C   -0.014078
     9  C   -0.087051
    10  C    0.046520
    11  C    0.104766
    12  C    0.053450
    13  C   -0.072199
    14  H    0.037006
    15  N   -0.433217
    16  C    0.168624
    17  C   -0.177023
    18  C   -0.003730
    19  C    0.148917
    20  C    0.110148
    21  C    0.012562
    22  O   -0.248783
    23  C    0.062402
    24  N   -0.341121
    25  C    0.041304
    26  C   -0.028434
    27  C   -0.023916
    28  C    0.074725
    29  C    0.076020
    30  C    0.035164
    31  C   -0.004598
    32  N   -0.310227
    33  C    0.079966
    34  C   -0.170742
    35  C    0.008041
    36  C    0.082561
    37  C    0.127577
    38  C    0.045409
    39  O   -0.189225
    40  C   -0.005030
    41  C    0.212741
    42  O   -0.257780
    43  O   -0.304591
    44  C    0.157889
    45  H   -0.017329
    46  H   -0.016246
    47  H   -0.041949
    48  H    0.000929
    49  H   -0.003792
    50  H    0.025492
    51  H    0.016479
    52  H    0.016910
    53  H    0.011327
    54  H    0.044042
    55  H    0.017769
    56  H    0.018152
    57  H    0.006040
    58  H    0.027198
    59  H    0.039525
    60  H    0.037408
    61  H    0.036306
    62  H    0.031156
    63  H    0.017251
    64  H    0.009535
    65  H    0.023855
    66  H    0.012599
    67  H    0.004802
    68  H    0.007162
    69  H    0.003997
    70  H    0.010344
    71  H    0.016437
    72  H    0.028558
    73  H    0.046267
    74  H    0.008684
    75  H    0.046304
    76  H    0.035338
    77  H    0.042819
    78  H    0.047049
    79  H    0.053054
    80  Mg   0.837973
    81  C   -0.016701
    82  C   -0.086704
    83  C   -0.045100
    84  C   -0.065231
    85  N   -0.254518
    86  C   -0.049958
    87  C   -0.015082
    88  C   -0.090429
    89  C    0.045296
    90  C    0.113740
    91  C    0.062555
    92  C   -0.077645
    93  H    0.034263
    94  N   -0.423823
    95  C    0.162727
    96  C   -0.172395
    97  C   -0.007681
    98  C    0.152734
    99  C    0.098543
   100  C    0.015950
   101  O   -0.253910
   102  C    0.061031
   103  N   -0.349956
   104  C    0.037634
   105  C   -0.019781
   106  C   -0.034487
   107  C    0.088676
   108  C    0.073866
   109  C    0.034917
   110  C   -0.007544
   111  N   -0.323981
   112  C    0.078133
   113  C   -0.163443
   114  C    0.002238
   115  C    0.095917
   116  C    0.131429
   117  C    0.042254
   118  O   -0.188477
   119  C    0.000925
   120  C    0.211236
   121  O   -0.251160
   122  O   -0.305712
   123  C    0.152127
   124  H   -0.017153
   125  H   -0.016032
   126  H   -0.041341
   127  H   -0.001260
   128  H   -0.004162
   129  H    0.021488
   130  H    0.016970
   131  H    0.016964
   132  H    0.013967
   133  H    0.037375
   134  H    0.020453
   135  H    0.019830
   136  H    0.009855
   137  H    0.028957
   138  H    0.039141
   139  H    0.039531
   140  H    0.035647
   141  H    0.033621
   142  H    0.014044
   143  H    0.011280
   144  H    0.024235
   145  H    0.012750
   146  H    0.004077
   147  H    0.005394
   148  H    0.003221
   149  H    0.010740
   150  H    0.017555
   151  H    0.030611
   152  H    0.045563
   153  H    0.007741
   154  H    0.047237
   155  H    0.034851
   156  H    0.043505
   157  H    0.049464
   158  H    0.053436
 Sum of Mulliken charges =  -0.00000

 Dipole moment (field-independent basis, Debye):
    X=              4.7304    Y=              1.9216    Z=              0.9344  Tot=              5.1906
 Quadrupole moment (field-independent basis, Debye-Ang):
   XX=           -522.7869   YY=           -533.2262   ZZ=           -463.5829
   XY=            -16.5576   XZ=             47.0864   YZ=             27.8177

 Normal termination of Gaussian 16 at Fri Sep 10 11:02:24 2021.
