 Gaussian 16, Revision A.03,
 Gaussian 16:  ES64L-G16RevA.03 25-Dec-2016

 -----------------------------------
 #p cam-b3lyp/Def2SVP td=(nstates=5)
 -----------------------------------

 --------------------------------
 TDDFT excited states in gaussian
 --------------------------------
 Symbolic Z-matrix:
 Charge =  0 Multiplicity = 1

                         Standard orientation:
 ---------------------------------------------------------------------
 Center     Atomic      Atomic             Coordinates (Angstroms)
 Number     Number       Type             X           Y           Z
 ---------------------------------------------------------------------
      1         12           0      -15.709360   -0.860971   -0.011630
      2          6           0      -15.935520    2.690587    0.372435
      3          6           0      -16.571433   -0.412692   -3.282554
      4          6           0      -15.960158   -4.012131   -0.264434
      5          6           0      -15.985888   -1.105145    3.453852
      6          7           0      -16.167980    0.957113   -1.188442
      7          6           0      -16.160883    2.262599   -0.937787
      8          6           0      -16.340753    3.137753   -2.214160
      9          6           0      -17.082638    2.076575   -3.144486
     10          6           0      -16.549289    0.796428   -2.525870
     11          6           0      -18.600970    2.096294   -3.000332
     12          6           0      -14.970638    3.580183   -2.829604
     13          6           0      -15.053962    4.695783   -3.875476
     14          1           0      -13.984015    5.680097   -3.936197
     15          7           0      -15.714335   -2.021659   -1.610264
     16          6           0      -16.079748   -1.668763   -2.866140
     17          6           0      -15.908666   -2.880612   -3.696099
     18          6           0      -15.595682   -4.015995   -2.784484
     19          6           0      -15.772308   -3.392677   -1.497761
     20          6           0      -15.995931   -2.872842   -5.191450
     21          6           0      -15.210389   -5.439964   -3.033469
     22          8           0      -15.210118   -6.317119   -2.103323
     23          6           0      -14.914773   -5.805875   -4.430524
     24          7           0      -16.160021   -2.364574    1.364493
     25          6           0      -16.144987   -3.653570    1.007776
     26          6           0      -16.216842   -4.552655    2.206284
     27          6           0      -16.038773   -3.606370    3.480093
     28          6           0      -15.973640   -2.240892    2.752428
     29          6           0      -17.508048   -5.369383    2.353782
     30          6           0      -14.904983   -3.968367    4.472009
     31          6           0      -13.560184   -3.763444    3.811236
     32          7           0      -15.745843    0.524865    1.658452
     33          6           0      -15.891104    0.205331    3.016197
     34          6           0      -15.966713    1.479587    3.754183
     35          6           0      -15.876249    2.458259    2.766325
     36          6           0      -15.778406    1.834868    1.489570
     37          6           0      -16.159713    1.620091    5.156839
     38          6           0      -15.864269    3.885655    2.490182
     39          8           0      -15.824509    4.902804    3.183954
     40          6           0      -16.024812    4.093520    0.919562
     41          6           0      -14.981717    5.086039    0.483480
     42          8           0      -13.767710    4.801025    0.531650
     43          8           0      -15.578831    6.113937   -0.138952
     44          6           0      -14.597229    7.121000   -0.623139
     45          1           0      -17.061444   -0.415898   -4.258166
     46          1           0      -15.941239   -5.103522   -0.295171
     47          1           0      -15.987478   -1.102764    4.545386
     48          1           0      -16.970281    4.017169   -2.077246
     49          1           0      -16.766075    2.155469   -4.184334
     50          1           0      -18.915379    2.748511   -2.185666
     51          1           0      -18.887194    1.064740   -2.794259
     52          1           0      -19.076556    2.355907   -3.946480
     53          1           0      -14.577860    2.773999   -3.449164
     54          1           0      -14.271882    3.872891   -2.045138
     55          1           0      -16.026139    5.189116   -3.855422
     56          1           0      -15.001266    4.241114   -4.864768
     57          1           0      -16.400703   -1.932725   -5.564122
     58          1           0      -16.739865   -3.618632   -5.470857
     59          1           0      -15.041098   -3.112746   -5.659501
     60          1           0      -15.789458   -5.602377   -5.048637
     61          1           0      -14.571684   -6.839539   -4.404483
     62          1           0      -14.118880   -5.160685   -4.803664
     63          1           0      -15.413286   -5.287862    2.192348
     64          1           0      -16.935753   -3.580965    4.099331
     65          1           0      -17.341463   -6.445345    2.410874
     66          1           0      -18.162528   -5.118715    1.519449
     67          1           0      -18.128375   -5.093762    3.206216
     68          1           0      -14.967742   -5.019248    4.752469
     69          1           0      -14.930202   -3.378482    5.388333
     70          1           0      -13.414982   -4.692674    3.261436
     71          1           0      -12.782794   -3.629781    4.564236
     72          1           0      -13.594554   -2.954723    3.080979
     73          1           0      -15.467561    2.395985    5.483769
     74          1           0      -15.976445    0.680629    5.677826
     75          1           0      -17.207897    1.917100    5.187693
     76          1           0      -17.036258    4.463265    0.754066
     77          1           0      -14.885392    8.081452   -0.195672
     78          1           0      -14.576987    7.036458   -1.709807
     79          1           0      -13.579611    7.023674   -0.243244
     80         12           0       16.048306   -0.661219    0.138059
     81          6           0       14.915111    2.739266    0.315788
     82          6           0       16.108251   -0.306914   -3.253907
     83          6           0       16.610941   -3.776389   -0.077898
     84          6           0       14.822424   -1.092725    3.371748
     85          7           0       15.554136    1.044554   -1.180414
     86          6           0       15.193531    2.305802   -0.997234
     87          6           0       15.205262    3.171707   -2.285495
     88          6           0       15.028387    1.997201   -3.366295
     89          6           0       15.631640    0.840844   -2.571571
     90          6           0       13.575200    1.666115   -3.662887
     91          6           0       16.563154    3.933061   -2.481605
     92          6           0       16.536239    5.032278   -3.545915
     93          1           0       17.330304    6.237232   -3.322284
     94          7           0       16.784401   -1.732374   -1.361725
     95          6           0       16.741277   -1.429300   -2.676099
     96          6           0       17.401716   -2.546689   -3.368503
     97          6           0       17.691622   -3.611556   -2.370140
     98          6           0       17.006546   -3.078492   -1.209702
     99          6           0       17.767736   -2.499983   -4.823591
    100          6           0       18.448046   -4.902906   -2.450442
    101          8           0       18.371631   -5.786674   -1.525275
    102          6           0       19.206845   -5.142415   -3.686712
    103          7           0       15.572738   -2.268498    1.368043
    104          6           0       15.982340   -3.513539    1.068008
    105          6           0       15.762873   -4.454502    2.228520
    106          6           0       15.341710   -3.526086    3.460689
    107          6           0       15.302213   -2.158077    2.744872
    108          6           0       14.700866   -5.533571    2.018379
    109          6           0       16.182958   -3.656466    4.759913
    110          6           0       17.583716   -3.140209    4.521752
    111          7           0       15.216248    0.615870    1.669334
    112          6           0       14.743384    0.225585    2.941405
    113          6           0       14.166570    1.426981    3.578882
    114          6           0       14.324371    2.435782    2.616637
    115          6           0       14.936720    1.896344    1.453230
    116          6           0       13.550978    1.473803    4.861450
    117          6           0       14.102527    3.831980    2.316463
    118          8           0       13.698169    4.803861    2.953397
    119          6           0       14.360250    4.062488    0.765070
    120          6           0       15.235482    5.276550    0.614967
    121          8           0       16.404286    5.269541    1.039757
    122          8           0       14.625141    6.162581   -0.193011
    123          6           0       15.459366    7.379296   -0.381401
    124          1           0       15.945497   -0.375740   -4.329854
    125          1           0       16.882620   -4.834330   -0.057345
    126          1           0       14.508748   -1.122715    4.417394
    127          1           0       14.387119    3.877368   -2.365979
    128          1           0       15.614499    2.191909   -4.260677
    129          1           0       12.899506    2.196066   -3.008107
    130          1           0       13.481587    0.597707   -3.518736
    131          1           0       13.354994    1.848219   -4.718665
    132          1           0       17.294006    3.250836   -2.934560
    133          1           0       16.910045    4.339201   -1.551359
    134          1           0       15.513161    5.295492   -3.840853
    135          1           0       16.986550    4.640282   -4.461102
    136          1           0       17.281040   -1.659748   -5.334025
    137          1           0       17.333501   -3.390248   -5.291273
    138          1           0       18.847557   -2.506145   -4.986707
    139          1           0       18.529647   -5.115300   -4.537076
    140          1           0       19.751428   -6.073742   -3.519542
    141          1           0       19.918706   -4.320987   -3.824970
    142          1           0       16.676876   -4.978536    2.479686
    143          1           0       14.315209   -3.735007    3.796086
    144          1           0       15.088379   -6.560421    2.158023
    145          1           0       14.285844   -5.415403    1.026250
    146          1           0       13.818879   -5.442715    2.650082
    147          1           0       16.283312   -4.707362    5.042244
    148          1           0       15.751696   -3.134965    5.607883
    149          1           0       18.088251   -3.997081    4.065353
    150          1           0       18.053912   -2.860350    5.462310
    151          1           0       17.583855   -2.327443    3.786186
    152          1           0       13.915795    2.367825    5.349437
    153          1           0       13.776007    0.582374    5.443239
    154          1           0       12.498008    1.519344    4.570850
    155          1           0       13.388684    4.196699    0.287965
    156          1           0       14.843993    8.236617   -0.091564
    157          1           0       15.809379    7.342087   -1.430147
    158          1           0       16.316815    7.504785    0.269342
 ---------------------------------------------------------------------

 SCF Done:  E(RCAM-B3LYP) =  -4069.81175183     A.U. after   19 cycles

 Excitation energies and oscillator strengths:

 Excited State   1:      Singlet-A      1.6753 eV  740.06 nm  f=0.2272  <S**2>=0.000
     310 -> 316        0.16871
     311 -> 313        0.66698
     312 -> 314       -0.16063
     310 <- 316        0.10171
 This state for optimization and/or second-order correction.
 Total Energy, E(TD-HF/TD-DFT) =  -4069.75018484
 Copying the excited state density for this state as the 1-particle RhoCI density.

 Excited State   2:      Singlet-A      1.6801 eV  737.96 nm  f=0.5506  <S**2>=0.000
     309 -> 315        0.17072
     311 -> 313        0.16059
     312 -> 314        0.66662
     309 <- 315        0.10221

 Excited State   3:      Singlet-A      2.1861 eV  567.15 nm  f=0.0949  <S**2>=0.000
     310 -> 313        0.64207
     311 -> 316       -0.27294

 Excited State   4:      Singlet-A      2.1925 eV  565.49 nm  f=0.1052  <S**2>=0.000
     309 -> 314        0.64030
     312 -> 315       -0.27812

 Excited State   5:      Singlet-A      3.0613 eV  405.00 nm  f=0.0000  <S**2>=0.000
     312 -> 313        0.70710

 The electronic state is 1-A.
 Alpha  occ. eigenvalues --  -46.87781 -46.87660 -19.26345 -19.26265 -19.19158
 Alpha  occ. eigenvalues --  -19.19001 -19.18801 -19.18715 -19.18152 -19.18048
 Alpha  occ. eigenvalues --  -14.42497 -14.42434 -14.41434 -14.41359 -14.39387
 Alpha  occ. eigenvalues --  -14.39352 -14.38599 -14.38570 -10.39087 -10.39060
 Alpha  occ. eigenvalues --  -10.35435 -10.35392 -10.34372 -10.34225 -10.31752
 Alpha  occ. eigenvalues --  -10.31659 -10.31389 -10.31308 -10.31023 -10.30893
 Alpha  occ. eigenvalues --  -10.30554 -10.30491 -10.30397 -10.30360 -10.30192
 Alpha  occ. eigenvalues --  -10.30141 -10.29904 -10.29893 -10.29615 -10.29436
 Alpha  occ. eigenvalues --  -10.29400 -10.29239 -10.28733 -10.28718 -10.28654
 Alpha  occ. eigenvalues --  -10.28522 -10.28404 -10.28349 -10.28140 -10.28101
 Alpha  occ. eigenvalues --  -10.28000 -10.27777 -10.27711 -10.27669 -10.27569
 Alpha  occ. eigenvalues --  -10.27517 -10.27485 -10.27483 -10.27468 -10.27468
 Alpha  occ. eigenvalues --  -10.27465 -10.27434 -10.27387 -10.27375 -10.27141
 Alpha  occ. eigenvalues --  -10.27047 -10.26692 -10.26688 -10.26417 -10.26398
 Alpha  occ. eigenvalues --  -10.26219 -10.26167 -10.26137 -10.26025 -10.26003
 Alpha  occ. eigenvalues --  -10.25933 -10.25846 -10.25825 -10.25421 -10.25397
 Alpha  occ. eigenvalues --  -10.24871 -10.24816 -10.24772 -10.24730 -10.24689
 Alpha  occ. eigenvalues --  -10.24670  -3.16523  -3.16410  -1.91405  -1.91292
 Alpha  occ. eigenvalues --   -1.90992  -1.90880  -1.90834  -1.90717  -1.16639
 Alpha  occ. eigenvalues --   -1.16613  -1.08655  -1.08609  -1.07202  -1.06968
 Alpha  occ. eigenvalues --   -1.06942  -1.06623  -1.04565  -1.04495  -1.03745
 Alpha  occ. eigenvalues --   -1.03663  -1.03218  -1.03038  -1.02395  -1.02111
 Alpha  occ. eigenvalues --   -0.91986  -0.91956  -0.89504  -0.89494  -0.89172
 Alpha  occ. eigenvalues --   -0.89151  -0.88271  -0.88220  -0.87854  -0.87791
 Alpha  occ. eigenvalues --   -0.87683  -0.87657  -0.87259  -0.87120  -0.84999
 Alpha  occ. eigenvalues --   -0.84966  -0.83920  -0.83875  -0.82953  -0.82932
 Alpha  occ. eigenvalues --   -0.82652  -0.82633  -0.81594  -0.81568  -0.80580
 Alpha  occ. eigenvalues --   -0.80441  -0.78782  -0.78635  -0.77202  -0.77144
 Alpha  occ. eigenvalues --   -0.76918  -0.76897  -0.75907  -0.75837  -0.74882
 Alpha  occ. eigenvalues --   -0.74802  -0.72758  -0.72698  -0.71656  -0.71580
 Alpha  occ. eigenvalues --   -0.69891  -0.69757  -0.68857  -0.68827  -0.67625
 Alpha  occ. eigenvalues --   -0.67601  -0.67204  -0.67200  -0.65271  -0.65270
 Alpha  occ. eigenvalues --   -0.64837  -0.64769  -0.64653  -0.64604  -0.64253
 Alpha  occ. eigenvalues --   -0.64203  -0.62280  -0.62276  -0.60427  -0.60340
 Alpha  occ. eigenvalues --   -0.59796  -0.59788  -0.58992  -0.58971  -0.58487
 Alpha  occ. eigenvalues --   -0.58424  -0.57567  -0.57552  -0.57293  -0.57236
 Alpha  occ. eigenvalues --   -0.56294  -0.56203  -0.55961  -0.55884  -0.55505
 Alpha  occ. eigenvalues --   -0.55451  -0.55323  -0.55246  -0.54506  -0.54486
 Alpha  occ. eigenvalues --   -0.53912  -0.53879  -0.53283  -0.53227  -0.53206
 Alpha  occ. eigenvalues --   -0.53141  -0.52901  -0.52898  -0.52741  -0.52669
 Alpha  occ. eigenvalues --   -0.52422  -0.52400  -0.51897  -0.51882  -0.51658
 Alpha  occ. eigenvalues --   -0.51601  -0.51199  -0.51179  -0.50559  -0.50476
 Alpha  occ. eigenvalues --   -0.50016  -0.49980  -0.49904  -0.49867  -0.49499
 Alpha  occ. eigenvalues --   -0.49488  -0.49201  -0.49198  -0.49103  -0.49080
 Alpha  occ. eigenvalues --   -0.48576  -0.48557  -0.48446  -0.48430  -0.48375
 Alpha  occ. eigenvalues --   -0.48339  -0.47679  -0.47594  -0.47281  -0.47118
 Alpha  occ. eigenvalues --   -0.46781  -0.46708  -0.46553  -0.46539  -0.46343
 Alpha  occ. eigenvalues --   -0.46270  -0.46146  -0.46084  -0.45820  -0.45804
 Alpha  occ. eigenvalues --   -0.45208  -0.45186  -0.44561  -0.44512  -0.44492
 Alpha  occ. eigenvalues --   -0.44475  -0.44129  -0.44126  -0.44077  -0.44072
 Alpha  occ. eigenvalues --   -0.44003  -0.43938  -0.43551  -0.43477  -0.43385
 Alpha  occ. eigenvalues --   -0.43370  -0.43011  -0.42928  -0.42899  -0.42681
 Alpha  occ. eigenvalues --   -0.42638  -0.42553  -0.41993  -0.41963  -0.41688
 Alpha  occ. eigenvalues --   -0.41668  -0.41518  -0.41458  -0.41125  -0.40989
 Alpha  occ. eigenvalues --   -0.40853  -0.40809  -0.40723  -0.40698  -0.40555
 Alpha  occ. eigenvalues --   -0.40493  -0.40227  -0.40218  -0.39425  -0.39425
 Alpha  occ. eigenvalues --   -0.38453  -0.38350  -0.37732  -0.37653  -0.37304
 Alpha  occ. eigenvalues --   -0.37265  -0.37247  -0.37199  -0.36768  -0.36695
 Alpha  occ. eigenvalues --   -0.36216  -0.36175  -0.34270  -0.34252  -0.33859
 Alpha  occ. eigenvalues --   -0.33752  -0.33175  -0.33170  -0.31331  -0.31274
 Alpha  occ. eigenvalues --   -0.31019  -0.30972  -0.30011  -0.29952  -0.29434
 Alpha  occ. eigenvalues --   -0.29327  -0.29305  -0.29210  -0.24064  -0.24035
 Alpha  occ. eigenvalues --   -0.21116  -0.21112
 Alpha virt. eigenvalues --   -0.08791  -0.08758  -0.01734  -0.01683  -0.00043
 Alpha virt. eigenvalues --   -0.00029   0.02209   0.02217   0.03140   0.03225
 Alpha virt. eigenvalues --    0.04730   0.04734   0.05117   0.05168   0.06183

 Mulliken charges:
               1
     1  Mg   0.838815
     2  C   -0.002941
     3  C   -0.094124
     4  C   -0.045890
     5  C   -0.063955
     6  N   -0.256799
     7  C   -0.052462
     8  C   -0.014010
     9  C   -0.087003
    10  C    0.046327
    11  C    0.104816
    12  C    0.053468
    13  C   -0.071802
    14  H    0.036159
    15  N   -0.433144
    16  C    0.168415
    17  C   -0.177175
    18  C   -0.004023
    19  C    0.148720
    20  C    0.110188
    21  C    0.012280
    22  O   -0.249643
    23  C    0.062479
    24  N   -0.341160
    25  C    0.041250
    26  C   -0.028186
    27  C   -0.023952
    28  C    0.074836
    29  C    0.076179
    30  C    0.035126
    31  C   -0.004502
    32  N   -0.310481
    33  C    0.080426
    34  C   -0.169684
    35  C    0.008366
    36  C    0.082995
    37  C    0.127305
    38  C    0.046147
    39  O   -0.188394
    40  C   -0.005358
    41  C    0.212887
    42  O   -0.257077
    43  O   -0.304810
    44  C    0.157681
    45  H   -0.017628
    46  H   -0.016854
    47  H   -0.041476
    48  H    0.000941
    49  H   -0.004048
    50  H    0.025476
    51  H    0.016436
    52  H    0.016636
    53  H    0.011197
    54  H    0.044153
    55  H    0.017861
    56  H    0.017924
    57  H    0.005861
    58  H    0.026795
    59  H    0.039526
    60  H    0.037330
    61  H    0.035621
    62  H    0.031496
    63  H    0.016548
    64  H    0.009454
    65  H    0.023194
    66  H    0.012533
    67  H    0.004746
    68  H    0.006351
    69  H    0.004748
    70  H    0.008764
    71  H    0.018178
    72  H    0.028988
    73  H    0.047618
    74  H    0.009123
    75  H    0.046003
    76  H    0.035143
    77  H    0.042962
    78  H    0.046381
    79  H    0.053731
    80  Mg   0.837796
    81  C   -0.016824
    82  C   -0.087795
    83  C   -0.045515
    84  C   -0.064862
    85  N   -0.254560
    86  C   -0.049825
    87  C   -0.015099
    88  C   -0.090494
    89  C    0.045753
    90  C    0.114374
    91  C    0.062517
    92  C   -0.077895
    93  H    0.034913
    94  N   -0.423482
    95  C    0.162903
    96  C   -0.174634
    97  C   -0.007820
    98  C    0.152129
    99  C    0.099373
   100  C    0.015560
   101  O   -0.253182
   102  C    0.061198
   103  N   -0.350044
   104  C    0.037530
   105  C   -0.019834
   106  C   -0.034831
   107  C    0.088933
   108  C    0.073644
   109  C    0.034725
   110  C   -0.007677
   111  N   -0.324124
   112  C    0.078451
   113  C   -0.163106
   114  C    0.002278
   115  C    0.096196
   116  C    0.131491
   117  C    0.042416
   118  O   -0.187785
   119  C    0.000902
   120  C    0.211268
   121  O   -0.251018
   122  O   -0.305627
   123  C    0.152026
   124  H   -0.019679
   125  H   -0.015578
   126  H   -0.040413
   127  H   -0.000619
   128  H   -0.004341
   129  H    0.022500
   130  H    0.014422
   131  H    0.016261
   132  H    0.013909
   133  H    0.037689
   134  H    0.020796
   135  H    0.019572
   136  H    0.008750
   137  H    0.026124
   138  H    0.039784
   139  H    0.038240
   140  H    0.036391
   141  H    0.033896
   142  H    0.014395
   143  H    0.012460
   144  H    0.025137
   145  H    0.011634
   146  H    0.005712
   147  H    0.006273
   148  H    0.003686
   149  H    0.010921
   150  H    0.017948
   151  H    0.030099
   152  H    0.046042
   153  H    0.008529
   154  H    0.047030
   155  H    0.035077
   156  H    0.043957
   157  H    0.049471
   158  H    0.053580
 Sum of Mulliken charges =  -0.00000

 Dipole moment (field-independent basis, Debye):
    X=             -2.4405    Y=             -2.3657    Z=             -8.2486  Tot=              8.9214
 Quadrupole moment (field-independent basis, Debye-Ang):
   XX=           -468.8417   YY=           -545.5366   ZZ=           -453.3561
   XY=              3.9684   XZ=             -8.0872   YZ=            -53.0564

 Normal termination of Gaussian 16 at Sun Sep 12 19:14:33 2021.
