 Gaussian 16, Revision A.03,
 Gaussian 16:  ES64L-G16RevA.03 25-Dec-2016

 -----------------------------------
 #p cam-b3lyp/Def2SVP td=(nstates=5)
 -----------------------------------

 --------------------------------
 TDDFT excited states in gaussian
 --------------------------------
 Symbolic Z-matrix:
 Charge =  0 Multiplicity = 1

                         Standard orientation:
 ---------------------------------------------------------------------
 Center     Atomic      Atomic             Coordinates (Angstroms)
 Number     Number       Type             X           Y           Z
 ---------------------------------------------------------------------
      1         12           0        4.456945   -0.580632    0.915620
      2          6           0        5.089944    2.172028   -1.283104
      3          6           0        4.769787    1.612952    3.510496
      4          6           0        4.353049   -3.063995    2.885071
      5          6           0        5.313504   -2.692484   -1.721054
      6          7           0        4.875378    1.592304    0.978132
      7          6           0        5.038913    2.542196    0.062636
      8          6           0        5.075455    3.979335    0.663193
      9          6           0        5.535912    3.620529    2.146849
     10          6           0        4.998220    2.202934    2.231914
     11          6           0        7.050598    3.582691    2.322341
     12          6           0        3.667860    4.665075    0.650242
     13          6           0        3.673631    6.173830    0.912878
     14          1           0        2.710101    7.010134    0.213198
     15          7           0        4.068352   -0.665781    2.850716
     16          6           0        4.239692    0.327736    3.755622
     17          6           0        3.808818   -0.227294    5.056764
     18          6           0        3.552540   -1.682260    4.868377
     19          6           0        4.012162   -1.869916    3.516005
     20          6           0        3.632147    0.606049    6.288867
     21          6           0        2.993422   -2.738388    5.768439
     22          8           0        3.071756   -3.983093    5.487106
     23          6           0        2.422759   -2.277216    7.046995
     24          7           0        4.994784   -2.586260    0.701556
     25          6           0        4.792518   -3.464228    1.690113
     26          6           0        4.986570   -4.874145    1.216387
     27          6           0        5.127720   -4.791329   -0.371999
     28          6           0        5.068200   -3.252371   -0.534285
     29          6           0        6.198342   -5.614948    1.798479
     30          6           0        4.156350   -5.659531   -1.210500
     31          6           0        2.742587   -5.146355   -1.052313
     32          7           0        4.920518   -0.346530   -1.191829
     33          6           0        5.270600   -1.359955   -2.095757
     34          6           0        5.597816   -0.703720   -3.374957
     35          6           0        5.430277    0.655961   -3.119926
     36          6           0        5.049579    0.839367   -1.759880
     37          6           0        6.047109   -1.357613   -4.556055
     38          6           0        5.508211    1.998191   -3.673281
     39          8           0        5.689735    2.462562   -4.799737
     40          6           0        5.409468    3.041118   -2.473957
     41          6           0        4.407040    4.091903   -2.866765
     42          8           0        3.198611    3.807477   -2.993912
     43          8           0        4.982103    5.302369   -2.798823
     44          6           0        4.032867    6.392857   -3.148028
     45          1           0        5.077983    2.156965    4.405486
     46          1           0        4.223426   -3.957224    3.499708
     47          1           0        5.507206   -3.292982   -2.611748
     48          1           0        5.801402    4.647408    0.199398
     49          1           0        5.050605    4.255008    2.888223
     50          1           0        7.565000    3.681992    1.366595
     51          1           0        7.267337    2.613717    2.772458
     52          1           0        7.375292    4.329309    3.047539
     53          1           0        3.096077    4.328413    1.514987
     54          1           0        3.149594    4.464449   -0.288095
     55          1           0        4.677321    6.590243    0.822782
     56          1           0        3.404042    6.339975    1.955911
     57          1           0        4.054194    1.602265    6.162479
     58          1           0        4.239596    0.150914    7.070894
     59          1           0        2.591222    0.648494    6.609813
     60          1           0        3.190671   -1.751802    7.615150
     61          1           0        1.991136   -3.159060    7.519123
     62          1           0        1.639935   -1.546620    6.841165
     63          1           0        4.125724   -5.492773    1.466726
     64          1           0        6.117779   -5.097015   -0.711134
     65          1           0        5.940995   -6.546254    2.303600
     66          1           0        6.717083   -4.934527    2.473184
     67          1           0        6.982609   -5.845363    1.077889
     68          1           0        4.165381   -6.689401   -0.855210
     69          1           0        4.399285   -5.673127   -2.273067
     70          1           0        2.413692   -5.619981   -0.128008
     71          1           0        2.126354   -5.463517   -1.894260
     72          1           0        2.726176   -4.068471   -0.889885
     73          1           0        5.501658   -0.902751   -5.382828
     74          1           0        5.868198   -2.431461   -4.506609
     75          1           0        7.108146   -1.109570   -4.533014
     76          1           0        6.407035    3.457571   -2.337761
     77          1           0        4.483328    6.962420   -3.960996
     78          1           0        3.813792    6.921862   -2.220362
     79          1           0        3.093329    6.085068   -3.608324
     80         12           0       -4.334753   -0.701587   -0.949258
     81          6           0       -5.626462    1.704102    1.379516
     82          6           0       -4.235620    1.807909   -3.257329
     83          6           0       -3.625474   -2.881605   -3.142852
     84          6           0       -5.592271   -3.192090    1.139221
     85          7           0       -4.885450    1.437494   -0.833818
     86          6           0       -5.306841    2.253672    0.120450
     87          6           0       -5.313972    3.754975   -0.274013
     88          6           0       -5.418693    3.584452   -1.867379
     89          6           0       -4.775825    2.206241   -2.008482
     90          6           0       -6.849996    3.497633   -2.370559
     91          6           0       -3.989625    4.487913    0.139424
     92          6           0       -4.049795    6.015207    0.065259
     93          1           0       -3.315968    6.789911    1.062145
     94          7           0       -3.525508   -0.495881   -2.749642
     95          6           0       -3.561024    0.599281   -3.537453
     96          6           0       -2.838450    0.234767   -4.765944
     97          6           0       -2.516107   -1.216909   -4.707318
     98          6           0       -3.243992   -1.600600   -3.514403
     99          6           0       -2.451168    1.240431   -5.810963
    100          6           0       -1.699679   -2.114252   -5.587337
    101          8           0       -1.750377   -3.390455   -5.479795
    102          6           0       -0.910468   -1.458546   -6.640274
    103          7           0       -4.755739   -2.731380   -1.107600
    104          6           0       -4.284242   -3.456980   -2.136731
    105          6           0       -4.479042   -4.935067   -1.896520
    106          6           0       -4.962759   -5.063393   -0.377598
    107          6           0       -5.053603   -3.565201   -0.013513
    108          6           0       -5.486518   -5.630655   -2.811687
    109          6           0       -4.137805   -6.000040    0.546967
    110          6           0       -2.758646   -5.422091    0.768964
    111          7           0       -5.249872   -0.775946    1.006522
    112          6           0       -5.725002   -1.920823    1.682966
    113          6           0       -6.367035   -1.455011    2.929266
    114          6           0       -6.240206   -0.058591    2.879912
    115          6           0       -5.584616    0.320541    1.677430
    116          6           0       -7.005072   -2.282426    3.895908
    117          6           0       -6.521310    1.181631    3.566588
    118          8           0       -6.980483    1.479797    4.668400
    119          6           0       -6.249093    2.386221    2.565970
    120          6           0       -5.428486    3.416761    3.292006
    121          8           0       -4.267719    3.158510    3.656051
    122          8           0       -6.065739    4.600832    3.244458
    123          6           0       -5.285590    5.657699    3.941757
    124          1           0       -4.377365    2.463714   -4.116816
    125          1           0       -3.305626   -3.682110   -3.813943
    126          1           0       -5.921330   -3.913308    1.890384
    127          1           0       -6.162375    4.317911    0.096243
    128          1           0       -4.827610    4.335678   -2.384719
    129          1           0       -7.560069    3.446121   -1.558602
    130          1           0       -6.896548    2.598869   -2.971478
    131          1           0       -7.061032    4.326919   -3.051799
    132          1           0       -3.220740    4.293115   -0.619275
    133          1           0       -3.677155    4.185778    1.120089
    134          1           0       -5.078960    6.383224   -0.026096
    135          1           0       -3.566923    6.336967   -0.860665
    136          1           0       -2.967702    2.196410   -5.660233
    137          1           0       -2.836121    0.871632   -6.767858
    138          1           0       -1.369682    1.369350   -5.891156
    139          1           0       -1.574156   -0.892165   -7.289262
    140          1           0       -0.326288   -2.254521   -7.106140
    141          1           0       -0.235097   -0.734173   -6.171453
    142          1           0       -3.546071   -5.472347   -2.014794
    143          1           0       -5.983882   -5.466228   -0.307819
    144          1           0       -5.054368   -6.483815   -3.367962
    145          1           0       -5.890236   -4.896034   -3.495711
    146          1           0       -6.382003   -6.001121   -2.315634
    147          1           0       -3.993688   -6.972398    0.069568
    148          1           0       -4.606514   -6.179789    1.508743
    149          1           0       -2.207679   -5.750970   -0.117250
    150          1           0       -2.317356   -5.822802    1.679308
    151          1           0       -2.783964   -4.326291    0.753529
    152          1           0       -6.689959   -1.925875    4.867545
    153          1           0       -6.748710   -3.330192    3.753718
    154          1           0       -8.054119   -2.081229    3.662901
    155          1           0       -7.217863    2.779150    2.255050
    156          1           0       -5.944545    6.094379    4.698574
    157          1           0       -4.917089    6.331427    3.145488
    158          1           0       -4.445628    5.342021    4.549426
 ---------------------------------------------------------------------

 SCF Done:  E(RCAM-B3LYP) =  -4069.81278014     A.U. after   18 cycles

 Excitation energies and oscillator strengths:

 Excited State   1:      Singlet-A      1.6480 eV  752.32 nm  f=0.0149  <S**2>=0.000
     309 -> 315        0.11451
     310 -> 316        0.12184
     311 -> 313       -0.46979
     312 -> 314        0.50223
 This state for optimization and/or second-order correction.
 Total Energy, E(TD-HF/TD-DFT) =  -4069.75221598
 Copying the excited state density for this state as the 1-particle RhoCI density.

 Excited State   2:      Singlet-A      1.7043 eV  727.46 nm  f=0.6895  <S**2>=0.000
     309 -> 315       -0.13291
     310 -> 316        0.12367
     311 -> 313        0.49964
     312 -> 314        0.46750

 Excited State   3:      Singlet-A      2.1849 eV  567.46 nm  f=0.0105  <S**2>=0.000
     309 -> 313        0.34893
     310 -> 314        0.54141
     311 -> 315        0.14611
     312 -> 316       -0.22773

 Excited State   4:      Singlet-A      2.1970 eV  564.34 nm  f=0.1659  <S**2>=0.000
     309 -> 313        0.53754
     310 -> 314       -0.34533
     311 -> 315        0.23689
     312 -> 316        0.15257

 Excited State   5:      Singlet-A      2.4593 eV  504.14 nm  f=0.0000  <S**2>=0.000
     312 -> 313        0.70707

 The electronic state is 1-A.
 Alpha  occ. eigenvalues --  -46.87672 -46.87451 -19.26378 -19.26318 -19.19117
 Alpha  occ. eigenvalues --  -19.19113 -19.18642 -19.18448 -19.18141 -19.17900
 Alpha  occ. eigenvalues --  -14.42332 -14.42289 -14.41322 -14.41158 -14.39271
 Alpha  occ. eigenvalues --  -14.39129 -14.38478 -14.38400 -10.39157 -10.39036
 Alpha  occ. eigenvalues --  -10.35269 -10.35116 -10.34365 -10.34083 -10.31818
 Alpha  occ. eigenvalues --  -10.31773 -10.31309 -10.31120 -10.30802 -10.30791
 Alpha  occ. eigenvalues --  -10.30463 -10.30393 -10.30201 -10.30157 -10.30051
 Alpha  occ. eigenvalues --  -10.29913 -10.29811 -10.29723 -10.29510 -10.29196
 Alpha  occ. eigenvalues --  -10.29178 -10.29112 -10.28670 -10.28551 -10.28545
 Alpha  occ. eigenvalues --  -10.28515 -10.28253 -10.28189 -10.28025 -10.27956
 Alpha  occ. eigenvalues --  -10.27784 -10.27682 -10.27602 -10.27447 -10.27447
 Alpha  occ. eigenvalues --  -10.27340 -10.27340 -10.27313 -10.27304 -10.27288
 Alpha  occ. eigenvalues --  -10.27256 -10.27222 -10.27218 -10.27141 -10.27038
 Alpha  occ. eigenvalues --  -10.26921 -10.26638 -10.26525 -10.26158 -10.26153
 Alpha  occ. eigenvalues --  -10.26017 -10.25979 -10.25963 -10.25882 -10.25865
 Alpha  occ. eigenvalues --  -10.25782 -10.25727 -10.25701 -10.25318 -10.25264
 Alpha  occ. eigenvalues --  -10.24738 -10.24670 -10.24668 -10.24535 -10.24496
 Alpha  occ. eigenvalues --  -10.24427  -3.16415  -3.16201  -1.91296  -1.91084
 Alpha  occ. eigenvalues --   -1.90883  -1.90725  -1.90672  -1.90509  -1.16724
 Alpha  occ. eigenvalues --   -1.16607  -1.08615  -1.08523  -1.07042  -1.06898
 Alpha  occ. eigenvalues --   -1.06731  -1.06703  -1.04467  -1.04288  -1.03636
 Alpha  occ. eigenvalues --   -1.03455  -1.03112  -1.02833  -1.02292  -1.01906
 Alpha  occ. eigenvalues --   -0.91890  -0.91806  -0.89377  -0.89304  -0.89100
 Alpha  occ. eigenvalues --   -0.88972  -0.88147  -0.88040  -0.87778  -0.87607
 Alpha  occ. eigenvalues --   -0.87557  -0.87480  -0.87104  -0.86818  -0.84889
 Alpha  occ. eigenvalues --   -0.84816  -0.83799  -0.83706  -0.82785  -0.82665
 Alpha  occ. eigenvalues --   -0.82543  -0.82425  -0.81561  -0.81471  -0.80509
 Alpha  occ. eigenvalues --   -0.80266  -0.78653  -0.78379  -0.77099  -0.76942
 Alpha  occ. eigenvalues --   -0.76866  -0.76750  -0.75855  -0.75669  -0.74782
 Alpha  occ. eigenvalues --   -0.74633  -0.72660  -0.72497  -0.71572  -0.71402
 Alpha  occ. eigenvalues --   -0.69736  -0.69575  -0.68773  -0.68638  -0.67537
 Alpha  occ. eigenvalues --   -0.67408  -0.67113  -0.66989  -0.65204  -0.65098
 Alpha  occ. eigenvalues --   -0.64775  -0.64596  -0.64527  -0.64485  -0.64135
 Alpha  occ. eigenvalues --   -0.64023  -0.62286  -0.62164  -0.60287  -0.60086
 Alpha  occ. eigenvalues --   -0.59708  -0.59606  -0.58886  -0.58808  -0.58408
 Alpha  occ. eigenvalues --   -0.58246  -0.57569  -0.57429  -0.57194  -0.57036
 Alpha  occ. eigenvalues --   -0.56217  -0.56009  -0.55976  -0.55759  -0.55396
 Alpha  occ. eigenvalues --   -0.55255  -0.55245  -0.55092  -0.54462  -0.54354
 Alpha  occ. eigenvalues --   -0.53810  -0.53735  -0.53182  -0.53112  -0.53032
 Alpha  occ. eigenvalues --   -0.52944  -0.52853  -0.52734  -0.52594  -0.52364
 Alpha  occ. eigenvalues --   -0.52261  -0.52219  -0.51845  -0.51724  -0.51515
 Alpha  occ. eigenvalues --   -0.51448  -0.51112  -0.51034  -0.50360  -0.50146
 Alpha  occ. eigenvalues --   -0.49873  -0.49774  -0.49740  -0.49659  -0.49406
 Alpha  occ. eigenvalues --   -0.49262  -0.49123  -0.49021  -0.48993  -0.48939
 Alpha  occ. eigenvalues --   -0.48541  -0.48401  -0.48373  -0.48297  -0.48221
 Alpha  occ. eigenvalues --   -0.48082  -0.47580  -0.47386  -0.47173  -0.46890
 Alpha  occ. eigenvalues --   -0.46681  -0.46525  -0.46473  -0.46368  -0.46251
 Alpha  occ. eigenvalues --   -0.46073  -0.46067  -0.45920  -0.45785  -0.45689
 Alpha  occ. eigenvalues --   -0.45071  -0.45033  -0.44524  -0.44367  -0.44358
 Alpha  occ. eigenvalues --   -0.44286  -0.44048  -0.43976  -0.43955  -0.43902
 Alpha  occ. eigenvalues --   -0.43886  -0.43686  -0.43462  -0.43438  -0.43277
 Alpha  occ. eigenvalues --   -0.43212  -0.42932  -0.42829  -0.42734  -0.42727
 Alpha  occ. eigenvalues --   -0.42504  -0.42349  -0.41887  -0.41788  -0.41614
 Alpha  occ. eigenvalues --   -0.41497  -0.41439  -0.41281  -0.41041  -0.40809
 Alpha  occ. eigenvalues --   -0.40760  -0.40661  -0.40535  -0.40458  -0.40437
 Alpha  occ. eigenvalues --   -0.40321  -0.40144  -0.40029  -0.39265  -0.39234
 Alpha  occ. eigenvalues --   -0.38337  -0.38178  -0.37676  -0.37496  -0.37189
 Alpha  occ. eigenvalues --   -0.37173  -0.37081  -0.37007  -0.36738  -0.36697
 Alpha  occ. eigenvalues --   -0.36119  -0.36060  -0.34177  -0.34062  -0.33829
 Alpha  occ. eigenvalues --   -0.33788  -0.33078  -0.32973  -0.31178  -0.31017
 Alpha  occ. eigenvalues --   -0.30924  -0.30772  -0.30007  -0.29813  -0.29323
 Alpha  occ. eigenvalues --   -0.29213  -0.29095  -0.28998  -0.23966  -0.23835
 Alpha  occ. eigenvalues --   -0.21005  -0.20903
 Alpha virt. eigenvalues --   -0.08651  -0.08571  -0.01621  -0.01474   0.00079
 Alpha virt. eigenvalues --    0.00216   0.02278   0.02383   0.02905   0.03815
 Alpha virt. eigenvalues --    0.04816   0.04910   0.05040   0.05235   0.06215

 Mulliken charges:
               1
     1  Mg   0.839392
     2  C   -0.003460
     3  C   -0.093021
     4  C   -0.045778
     5  C   -0.063314
     6  N   -0.256897
     7  C   -0.052649
     8  C   -0.014219
     9  C   -0.087244
    10  C    0.046733
    11  C    0.104811
    12  C    0.053136
    13  C   -0.071210
    14  H    0.033831
    15  N   -0.433369
    16  C    0.169364
    17  C   -0.175726
    18  C   -0.003233
    19  C    0.149045
    20  C    0.109904
    21  C    0.013018
    22  O   -0.250067
    23  C    0.061692
    24  N   -0.341251
    25  C    0.041646
    26  C   -0.028118
    27  C   -0.023897
    28  C    0.074696
    29  C    0.076297
    30  C    0.035060
    31  C   -0.005314
    32  N   -0.310107
    33  C    0.079958
    34  C   -0.170770
    35  C    0.007178
    36  C    0.082442
    37  C    0.127739
    38  C    0.044521
    39  O   -0.190615
    40  C   -0.004869
    41  C    0.212714
    42  O   -0.259119
    43  O   -0.304182
    44  C    0.158450
    45  H   -0.017439
    46  H   -0.016823
    47  H   -0.041378
    48  H    0.000263
    49  H   -0.003507
    50  H    0.025152
    51  H    0.016598
    52  H    0.016605
    53  H    0.013392
    54  H    0.042895
    55  H    0.017599
    56  H    0.018894
    57  H    0.005899
    58  H    0.026477
    59  H    0.043004
    60  H    0.036978
    61  H    0.035563
    62  H    0.034699
    63  H    0.016585
    64  H    0.009040
    65  H    0.022983
    66  H    0.012363
    67  H    0.004614
    68  H    0.005667
    69  H    0.005258
    70  H    0.007727
    71  H    0.022003
    72  H    0.028812
    73  H    0.045457
    74  H    0.009866
    75  H    0.045710
    76  H    0.035058
    77  H    0.042590
    78  H    0.046859
    79  H    0.051362
    80  Mg   0.837957
    81  C   -0.017153
    82  C   -0.085458
    83  C   -0.045815
    84  C   -0.064855
    85  N   -0.254582
    86  C   -0.050318
    87  C   -0.015240
    88  C   -0.090838
    89  C    0.046060
    90  C    0.114411
    91  C    0.061815
    92  C   -0.077101
    93  H    0.032175
    94  N   -0.423870
    95  C    0.164342
    96  C   -0.172050
    97  C   -0.006920
    98  C    0.152268
    99  C    0.098726
   100  C    0.016138
   101  O   -0.254970
   102  C    0.059747
   103  N   -0.350063
   104  C    0.037894
   105  C   -0.019709
   106  C   -0.034486
   107  C    0.088448
   108  C    0.073899
   109  C    0.034849
   110  C   -0.007825
   111  N   -0.323772
   112  C    0.077654
   113  C   -0.163973
   114  C    0.001551
   115  C    0.095567
   116  C    0.131732
   117  C    0.041381
   118  O   -0.189700
   119  C    0.001149
   120  C    0.211215
   121  O   -0.252237
   122  O   -0.305302
   123  C    0.152607
   124  H   -0.019357
   125  H   -0.016137
   126  H   -0.041051
   127  H   -0.001470
   128  H   -0.003504
   129  H    0.022017
   130  H    0.014473
   131  H    0.016054
   132  H    0.016971
   133  H    0.036565
   134  H    0.020311
   135  H    0.020386
   136  H    0.008711
   137  H    0.025008
   138  H    0.047587
   139  H    0.038001
   140  H    0.035012
   141  H    0.040189
   142  H    0.013767
   143  H    0.011854
   144  H    0.024514
   145  H    0.011650
   146  H    0.005386
   147  H    0.005393
   148  H    0.003519
   149  H    0.010163
   150  H    0.019310
   151  H    0.030277
   152  H    0.044791
   153  H    0.008321
   154  H    0.046320
   155  H    0.034640
   156  H    0.043374
   157  H    0.049566
   158  H    0.052024
 Sum of Mulliken charges =  -0.00000

 Dipole moment (field-independent basis, Debye):
    X=              1.0288    Y=              3.0864    Z=              0.1681  Tot=              3.2577
 Quadrupole moment (field-independent basis, Debye-Ang):
   XX=           -508.1614   YY=           -461.9143   ZZ=           -528.1457
   XY=              1.7022   XZ=             45.3189   YZ=              6.9440

 Normal termination of Gaussian 16 at Thu Sep  9 16:50:01 2021.
