 Gaussian 16, Revision A.03,
 Gaussian 16:  ES64L-G16RevA.03 25-Dec-2016

 -----------------------------------
 #p cam-b3lyp/Def2SVP td=(nstates=5)
 -----------------------------------

 --------------------------------
 TDDFT excited states in gaussian
 --------------------------------
 Symbolic Z-matrix:
 Charge =  0 Multiplicity = 1

                         Standard orientation:
 ---------------------------------------------------------------------
 Center     Atomic      Atomic             Coordinates (Angstroms)
 Number     Number       Type             X           Y           Z
 ---------------------------------------------------------------------
      1         12           0        3.239482   -2.044402    0.473950
      2          6           0        4.756593    1.138365   -0.142966
      3          6           0        3.903838   -1.552615    3.784515
      4          6           0        2.320911   -5.035310    0.990979
      5          6           0        3.723927   -2.764197   -2.901382
      6          7           0        4.209874   -0.377140    1.559870
      7          6           0        4.693642    0.811619    1.213470
      8          6           0        5.058236    1.709597    2.433339
      9          6           0        5.282985    0.570597    3.526117
     10          6           0        4.385097   -0.506201    2.942827
     11          6           0        6.714019    0.044785    3.572668
     12          6           0        3.887626    2.667918    2.837100
     13          6           0        4.269575    3.796854    3.798855
     14          1           0        3.622387    5.091708    3.651042
     15          7           0        2.683101   -2.943458    2.142778
     16          6           0        3.034913   -2.598353    3.404688
     17          6           0        2.366466   -3.571773    4.294810
     18          6           0        1.751825   -4.623946    3.438515
     19          6           0        2.256139   -4.252431    2.141202
     20          6           0        2.314441   -3.423802    5.784490
     21          6           0        0.861153   -5.786795    3.742850
     22          8           0        0.631265   -6.709444    2.888190
     23          6           0        0.328438   -5.864776    5.115138
     24          7           0        3.244768   -3.757797   -0.718478
     25          6           0        2.736702   -4.911384   -0.271164
     26          6           0        2.590369   -5.910210   -1.380612
     27          6           0        2.879595   -5.113375   -2.733814
     28          6           0        3.242012   -3.736695   -2.124161
     29          6           0        3.511066   -7.135919   -1.303388
     30          6           0        1.786540   -5.169716   -3.830389
     31          6           0        0.550268   -4.436046   -3.360861
     32          7           0        3.921522   -0.958392   -1.277178
     33          6           0        4.065448   -1.461578   -2.578240
     34          6           0        4.659171   -0.386377   -3.394024
     35          6           0        4.835863    0.668885   -2.501250
     36          6           0        4.405634    0.268782   -1.203902
     37          6           0        5.016309   -0.483152   -4.767895
     38          6           0        5.310882    2.033063   -2.336227
     39          8           0        5.701296    2.914137   -3.103546
     40          6           0        5.391775    2.350399   -0.777836
     41          6           0        4.738363    3.686498   -0.551556
     42          8           0        3.512574    3.837644   -0.730336
     43          8           0        5.604809    4.506813    0.062363
     44          6           0        5.009376    5.840579    0.342865
     45          1           0        4.269356   -1.614285    4.811420
     46          1           0        1.909636   -6.040936    1.100558
     47          1           0        3.825456   -2.887404   -3.981181
     48          1           0        5.970630    2.293592    2.311226
     49          1           0        4.922583    0.872994    4.509168
     50          1           0        7.313815    0.449315    2.757486
     51          1           0        6.629243   -1.038290    3.481819
     52          1           0        7.162943    0.229353    4.548977
     53          1           0        3.177592    2.125014    3.460934
     54          1           0        3.414456    3.093430    1.951450
     55          1           0        5.351464    3.915822    3.864215
     56          1           0        3.967854    3.505199    4.804887
     57          1           0        2.993416   -2.646909    6.133739
     58          1           0        2.713211   -4.344460    6.210026
     59          1           0        1.298725   -3.261690    6.145561
     60          1           0        1.157928   -5.908659    5.821233
     61          1           0       -0.358227   -6.710513    5.123535
     62          1           0       -0.213949   -4.945035    5.336140
     63          1           0        1.579091   -6.313581   -1.412781
     64          1           0        3.778466   -5.472303   -3.235687
     65          1           0        2.976085   -8.085915   -1.300388
     66          1           0        4.133182   -7.034639   -0.414565
     67          1           0        4.263676   -7.192512   -2.089385
     68          1           0        1.493955   -6.201626   -4.021439
     69          1           0        2.104528   -4.734323   -4.777789
     70          1           0        0.032556   -5.187487   -2.765761
     71          1           0       -0.055796   -4.127624   -4.213371
     72          1           0        0.805497   -3.611804   -2.694552
     73          1           0        4.680757    0.442089   -5.236192
     74          1           0        4.556875   -1.353383   -5.236107
     75          1           0        6.099489   -0.574547   -4.689008
     76          1           0        6.449024    2.361928   -0.514752
     77          1           0        5.659995    6.585387   -0.115598
     78          1           0        4.861529    5.893248    1.421648
     79          1           0        4.063447    6.060198   -0.153446
     80         12           0       -4.121026    0.763531   -0.562058
     81          6           0       -1.628788    3.342922   -0.682614
     82          6           0       -4.640292    1.624622    2.697310
     83          6           0       -5.993021   -1.783911   -0.290823
     84          6           0       -2.631821   -0.615259   -3.395241
     85          7           0       -3.193057    2.302221    0.727726
     86          6           0       -2.300149    3.265223    0.555396
     87          6           0       -2.174238    4.247093    1.751074
     88          6           0       -2.717861    3.281519    2.913409
     89          6           0       -3.602399    2.362189    2.073706
     90          6           0       -1.627692    2.439688    3.555433
     91          6           0       -3.085509    5.513358    1.583184
     92          6           0       -2.784629    6.655725    2.555914
     93          1           0       -2.930356    8.029489    2.082625
     94          7           0       -5.504686    0.324831    0.791314
     95          6           0       -5.576144    0.781078    2.059383
     96          6           0       -6.765544    0.146882    2.648698
     97          6           0       -7.296465   -0.847942    1.677535
     98          6           0       -6.250347   -0.821895    0.675022
     99          6           0       -7.334570    0.559207    3.975212
    100          6           0       -8.533818   -1.693448    1.660894
    101          8           0       -8.676288   -2.662229    0.833850
    102          6           0       -9.533229   -1.413443    2.702178
    103          7           0       -4.164696   -1.065652   -1.549249
    104          6           0       -5.115309   -1.976362   -1.275650
    105          6           0       -5.112802   -3.090558   -2.294950
    106          6           0       -4.117781   -2.612143   -3.451941
    107          6           0       -3.627115   -1.285714   -2.831279
    108          6           0       -4.673552   -4.461414   -1.780945
    109          6           0       -4.681426   -2.587135   -4.899127
    110          6           0       -5.743302   -1.518038   -5.021015
    111          7           0       -2.558475    1.344210   -1.936575
    112          6           0       -2.075430    0.606813   -3.039756
    113          6           0       -0.934054    1.358970   -3.600048
    114          6           0       -0.816792    2.479093   -2.763347
    115          6           0       -1.801825    2.418288   -1.740848
    116          6           0       -0.135512    0.956208   -4.707406
    117          6           0       -0.076940    3.693675   -2.506282
    118          8           0        0.813383    4.308874   -3.091607
    119          6           0       -0.488939    4.242517   -1.072608
    120          6           0       -0.770679    5.714375   -1.202071
    121          8           0       -1.730682    6.116667   -1.882626
    122          8           0        0.001876    6.389152   -0.331320
    123          6           0       -0.249417    7.852637   -0.414330
    124          1           0       -4.721777    1.660782    3.784020
    125          1           0       -6.683008   -2.630730   -0.308410
    126          1           0       -2.176541   -0.928859   -4.337080
    127          1           0       -1.162517    4.564137    1.973919
    128          1           0       -3.316111    3.830869    3.635681
    129          1           0       -0.683344    2.543872    3.042116
    130          1           0       -1.976349    1.416630    3.502300
    131          1           0       -1.547143    2.675713    4.620390
    132          1           0       -4.107143    5.263441    1.897107
    133          1           0       -3.049001    5.878082    0.575086
    134          1           0       -1.820173    6.523616    3.061205
    135          1           0       -3.517860    6.624345    3.365485
    136          1           0       -6.636852    1.197386    4.531356
    137          1           0       -7.416941   -0.347899    4.583688
    138          1           0       -8.322579    1.015898    3.886085
    139          1           0       -9.077228   -1.533571    3.682029
    140          1           0      -10.383761   -2.057935    2.471762
    141          1           0       -9.836468   -0.363506    2.622760
    142          1           0       -6.100464   -3.231073   -2.716717
    143          1           0       -3.237731   -3.267413   -3.529248
    144          1           0       -5.431019   -5.251436   -1.942719
    145          1           0       -4.436400   -4.371637   -0.729165
    146          1           0       -3.738971   -4.833104   -2.197595
    147          1           0       -5.169069   -3.536912   -5.132094
    148          1           0       -3.921815   -2.421028   -5.655703
    149          1           0       -6.640108   -2.016527   -4.641091
    150          1           0       -5.868136   -1.218775   -6.059720
    151          1           0       -5.529201   -0.673086   -4.356290
    152          1           0        0.013588    1.835479   -5.319897
    153          1           0       -0.610605    0.154982   -5.269641
    154          1           0        0.762931    0.615099   -4.186142
    155          1           0        0.341479    4.042765   -0.394304
    156          1           0        0.715323    8.332037   -0.607043
    157          1           0       -0.766198    8.120845    0.526289
    158          1           0       -0.835924    8.213803   -1.250999
 ---------------------------------------------------------------------

 SCF Done:  E(RCAM-B3LYP) =  -4069.81085012     A.U. after   19 cycles

 Excitation energies and oscillator strengths:

 Excited State   1:      Singlet-A      1.6336 eV  758.97 nm  f=0.0643  <S**2>=0.000
     309 -> 315       -0.11520
     310 -> 316        0.11566
     311 -> 313       -0.48361
     312 -> 314        0.48928
 This state for optimization and/or second-order correction.
 Total Energy, E(TD-HF/TD-DFT) =  -4069.75081701
 Copying the excited state density for this state as the 1-particle RhoCI density.

 Excited State   2:      Singlet-A      1.7168 eV  722.18 nm  f=0.6296  <S**2>=0.000
     309 -> 315        0.13178
     310 -> 316        0.12875
     311 -> 313        0.48592
     312 -> 314        0.48048

 Excited State   3:      Singlet-A      2.1776 eV  569.37 nm  f=0.0044  <S**2>=0.000
     309 -> 313       -0.38461
     310 -> 314        0.51871
     311 -> 315        0.15740
     312 -> 316       -0.21528

 Excited State   4:      Singlet-A      2.1998 eV  563.60 nm  f=0.1586  <S**2>=0.000
     309 -> 313        0.51131
     310 -> 314        0.37528
     311 -> 315       -0.22913
     312 -> 316       -0.16944

 Excited State   5:      Singlet-A      2.2085 eV  561.38 nm  f=0.0013  <S**2>=0.000
     312 -> 313        0.70403

 The electronic state is 1-A.
 Alpha  occ. eigenvalues --  -46.87810 -46.87257 -19.26058 -19.25829 -19.18821
 Alpha  occ. eigenvalues --  -19.18806 -19.18594 -19.18350 -19.17977 -19.17158
 Alpha  occ. eigenvalues --  -14.42481 -14.42128 -14.41474 -14.40948 -14.39415
 Alpha  occ. eigenvalues --  -14.38940 -14.38585 -14.38151 -10.38853 -10.38495
 Alpha  occ. eigenvalues --  -10.35456 -10.35037 -10.34207 -10.33320 -10.31434
 Alpha  occ. eigenvalues --  -10.31425 -10.31420 -10.30931 -10.30878 -10.30634
 Alpha  occ. eigenvalues --  -10.30573 -10.30511 -10.30258 -10.29946 -10.29939
 Alpha  occ. eigenvalues --  -10.29886 -10.29814 -10.29634 -10.29456 -10.29290
 Alpha  occ. eigenvalues --  -10.29071 -10.28946 -10.28819 -10.28700 -10.28467
 Alpha  occ. eigenvalues --  -10.28400 -10.28348 -10.28174 -10.27925 -10.27857
 Alpha  occ. eigenvalues --  -10.27776 -10.27758 -10.27597 -10.27590 -10.27533
 Alpha  occ. eigenvalues --  -10.27518 -10.27504 -10.27401 -10.27302 -10.27219
 Alpha  occ. eigenvalues --  -10.27164 -10.27035 -10.27028 -10.27027 -10.27027
 Alpha  occ. eigenvalues --  -10.26869 -10.26428 -10.26419 -10.26363 -10.26273
 Alpha  occ. eigenvalues --  -10.26155 -10.26136 -10.26064 -10.25907 -10.25844
 Alpha  occ. eigenvalues --  -10.25773 -10.25560 -10.25486 -10.25333 -10.25049
 Alpha  occ. eigenvalues --  -10.24960 -10.24802 -10.24799 -10.24494 -10.24347
 Alpha  occ. eigenvalues --  -10.24257  -3.16552  -3.16008  -1.91434  -1.91021
 Alpha  occ. eigenvalues --   -1.90891  -1.90863  -1.90480  -1.90315  -1.16400
 Alpha  occ. eigenvalues --   -1.16101  -1.08409  -1.07710  -1.07222  -1.06610
 Alpha  occ. eigenvalues --   -1.06389  -1.06358  -1.04603  -1.04097  -1.03786
 Alpha  occ. eigenvalues --   -1.03253  -1.03243  -1.02619  -1.02423  -1.01678
 Alpha  occ. eigenvalues --   -0.91935  -0.91437  -0.89583  -0.89251  -0.89106
 Alpha  occ. eigenvalues --   -0.88845  -0.88347  -0.87856  -0.87845  -0.87714
 Alpha  occ. eigenvalues --   -0.87327  -0.87291  -0.87285  -0.86742  -0.85038
 Alpha  occ. eigenvalues --   -0.84663  -0.84010  -0.83515  -0.82999  -0.82670
 Alpha  occ. eigenvalues --   -0.82592  -0.82296  -0.81505  -0.81137  -0.80569
 Alpha  occ. eigenvalues --   -0.80023  -0.78804  -0.78222  -0.77267  -0.76959
 Alpha  occ. eigenvalues --   -0.76803  -0.76530  -0.75899  -0.75433  -0.74927
 Alpha  occ. eigenvalues --   -0.74411  -0.72786  -0.72275  -0.71683  -0.71180
 Alpha  occ. eigenvalues --   -0.70024  -0.69449  -0.68912  -0.68475  -0.67631
 Alpha  occ. eigenvalues --   -0.67290  -0.67154  -0.66870  -0.65323  -0.64896
 Alpha  occ. eigenvalues --   -0.64854  -0.64618  -0.64371  -0.64315  -0.64250
 Alpha  occ. eigenvalues --   -0.63824  -0.62183  -0.61808  -0.60465  -0.59950
 Alpha  occ. eigenvalues --   -0.59840  -0.59439  -0.58992  -0.58560  -0.58488
 Alpha  occ. eigenvalues --   -0.57957  -0.57488  -0.57275  -0.56932  -0.56740
 Alpha  occ. eigenvalues --   -0.56301  -0.55877  -0.55781  -0.55523  -0.55447
 Alpha  occ. eigenvalues --   -0.55337  -0.55061  -0.54826  -0.54471  -0.54059
 Alpha  occ. eigenvalues --   -0.53949  -0.53589  -0.53308  -0.53241  -0.52882
 Alpha  occ. eigenvalues --   -0.52840  -0.52791  -0.52759  -0.52525  -0.52494
 Alpha  occ. eigenvalues --   -0.52348  -0.52075  -0.51872  -0.51654  -0.51367
 Alpha  occ. eigenvalues --   -0.51319  -0.51166  -0.50696  -0.50612  -0.50158
 Alpha  occ. eigenvalues --   -0.50117  -0.49946  -0.49657  -0.49538  -0.49516
 Alpha  occ. eigenvalues --   -0.49186  -0.49134  -0.49104  -0.48802  -0.48648
 Alpha  occ. eigenvalues --   -0.48554  -0.48458  -0.48376  -0.48129  -0.47998
 Alpha  occ. eigenvalues --   -0.47814  -0.47704  -0.47299  -0.47202  -0.46835
 Alpha  occ. eigenvalues --   -0.46749  -0.46599  -0.46373  -0.46341  -0.46231
 Alpha  occ. eigenvalues --   -0.46129  -0.45880  -0.45746  -0.45639  -0.45340
 Alpha  occ. eigenvalues --   -0.45246  -0.44817  -0.44568  -0.44507  -0.44198
 Alpha  occ. eigenvalues --   -0.44191  -0.44126  -0.44012  -0.43945  -0.43744
 Alpha  occ. eigenvalues --   -0.43696  -0.43456  -0.43414  -0.43384  -0.43153
 Alpha  occ. eigenvalues --   -0.43017  -0.42973  -0.42779  -0.42502  -0.42473
 Alpha  occ. eigenvalues --   -0.42371  -0.42206  -0.42063  -0.41665  -0.41616
 Alpha  occ. eigenvalues --   -0.41578  -0.41146  -0.41127  -0.41068  -0.40942
 Alpha  occ. eigenvalues --   -0.40862  -0.40622  -0.40571  -0.40396  -0.40389
 Alpha  occ. eigenvalues --   -0.40341  -0.40109  -0.39940  -0.39589  -0.39123
 Alpha  occ. eigenvalues --   -0.38545  -0.38020  -0.37833  -0.37377  -0.37357
 Alpha  occ. eigenvalues --   -0.37301  -0.36901  -0.36824  -0.36607  -0.36296
 Alpha  occ. eigenvalues --   -0.36097  -0.35807  -0.34292  -0.33829  -0.33564
 Alpha  occ. eigenvalues --   -0.33310  -0.33163  -0.32745  -0.31351  -0.31041
 Alpha  occ. eigenvalues --   -0.30911  -0.30542  -0.29839  -0.29447  -0.29285
 Alpha  occ. eigenvalues --   -0.29050  -0.28900  -0.28654  -0.24092  -0.23601
 Alpha  occ. eigenvalues --   -0.21149  -0.20705
 Alpha virt. eigenvalues --   -0.08776  -0.08338  -0.01774  -0.01298  -0.00054
 Alpha virt. eigenvalues --    0.00394   0.02260   0.02489   0.02971   0.03726
 Alpha virt. eigenvalues --    0.04659   0.05035   0.05244   0.05770   0.06032

 Mulliken charges:
               1
     1  Mg   0.838472
     2  C   -0.003734
     3  C   -0.094807
     4  C   -0.045671
     5  C   -0.065608
     6  N   -0.256316
     7  C   -0.053657
     8  C   -0.013201
     9  C   -0.086841
    10  C    0.045535
    11  C    0.104826
    12  C    0.051875
    13  C   -0.071126
    14  H    0.035003
    15  N   -0.433196
    16  C    0.168081
    17  C   -0.177617
    18  C   -0.004049
    19  C    0.148936
    20  C    0.110309
    21  C    0.012620
    22  O   -0.249566
    23  C    0.062502
    24  N   -0.340972
    25  C    0.041104
    26  C   -0.028423
    27  C   -0.023839
    28  C    0.075232
    29  C    0.076100
    30  C    0.036087
    31  C   -0.009559
    32  N   -0.310558
    33  C    0.078777
    34  C   -0.171473
    35  C    0.010560
    36  C    0.083630
    37  C    0.126338
    38  C    0.052118
    39  O   -0.183333
    40  C   -0.008021
    41  C    0.216031
    42  O   -0.248065
    43  O   -0.306092
    44  C    0.154998
    45  H   -0.017941
    46  H   -0.017005
    47  H   -0.041864
    48  H    0.001824
    49  H   -0.004937
    50  H    0.025888
    51  H    0.016642
    52  H    0.016438
    53  H    0.009784
    54  H    0.044044
    55  H    0.019100
    56  H    0.016811
    57  H    0.005285
    58  H    0.026887
    59  H    0.038507
    60  H    0.037081
    61  H    0.036007
    62  H    0.031071
    63  H    0.016112
    64  H    0.009944
    65  H    0.023231
    66  H    0.012902
    67  H    0.004816
    68  H    0.006410
    69  H    0.004282
    70  H    0.009643
    71  H    0.016518
    72  H    0.031960
    73  H    0.050986
    74  H    0.007800
    75  H    0.046115
    76  H    0.034767
    77  H    0.042560
    78  H    0.043524
    79  H    0.060115
    80  Mg   0.834848
    81  C   -0.016581
    82  C   -0.088258
    83  C   -0.046152
    84  C   -0.067389
    85  N   -0.253747
    86  C   -0.050656
    87  C   -0.014075
    88  C   -0.090767
    89  C    0.044524
    90  C    0.113481
    91  C    0.062852
    92  C   -0.076726
    93  H    0.033926
    94  N   -0.423206
    95  C    0.161679
    96  C   -0.176098
    97  C   -0.008792
    98  C    0.151350
    99  C    0.099983
   100  C    0.014732
   101  O   -0.254275
   102  C    0.061567
   103  N   -0.350641
   104  C    0.037578
   105  C   -0.020211
   106  C   -0.035575
   107  C    0.090311
   108  C    0.073456
   109  C    0.034623
   110  C   -0.007135
   111  N   -0.324731
   112  C    0.078422
   113  C   -0.164278
   114  C    0.005136
   115  C    0.093418
   116  C    0.130456
   117  C    0.053342
   118  O   -0.175505
   119  C    0.000031
   120  C    0.209322
   121  O   -0.253450
   122  O   -0.303489
   123  C    0.152657
   124  H   -0.022115
   125  H   -0.016556
   126  H   -0.041795
   127  H   -0.000318
   128  H   -0.005778
   129  H    0.024000
   130  H    0.013521
   131  H    0.012695
   132  H    0.013530
   133  H    0.038234
   134  H    0.019022
   135  H    0.018620
   136  H    0.007192
   137  H    0.024264
   138  H    0.038546
   139  H    0.037390
   140  H    0.035310
   141  H    0.033352
   142  H    0.013482
   143  H    0.013158
   144  H    0.024085
   145  H    0.013110
   146  H    0.005220
   147  H    0.005302
   148  H    0.002005
   149  H    0.010785
   150  H    0.017099
   151  H    0.030882
   152  H    0.046360
   153  H    0.004278
   154  H    0.051693
   155  H    0.048005
   156  H    0.040360
   157  H    0.047227
   158  H    0.053165
 Sum of Mulliken charges =  -0.00000

 Dipole moment (field-independent basis, Debye):
    X=              1.3802    Y=             -1.2311    Z=              7.8638  Tot=              8.0784
 Quadrupole moment (field-independent basis, Debye-Ang):
   XX=           -519.5363   YY=           -520.1919   ZZ=           -466.5433
   XY=            -22.6080   XZ=              9.4137   YZ=             53.9591

 Normal termination of Gaussian 16 at Thu Sep  9 05:58:44 2021.
