 Gaussian 16, Revision A.03,
 Gaussian 16:  ES64L-G16RevA.03 25-Dec-2016

 -----------------------------------
 #p cam-b3lyp/Def2SVP td=(nstates=5)
 -----------------------------------

 --------------------------------
 TDDFT excited states in gaussian
 --------------------------------
 Symbolic Z-matrix:
 Charge =  0 Multiplicity = 1

                         Standard orientation:
 ---------------------------------------------------------------------
 Center     Atomic      Atomic             Coordinates (Angstroms)
 Number     Number       Type             X           Y           Z
 ---------------------------------------------------------------------
      1         12           0       15.772249   -0.819180   -0.038999
      2          6           0       16.156204    2.718815   -0.422906
      3          6           0       16.686392   -0.414350    3.223442
      4          6           0       15.881675   -3.978780    0.209153
      5          6           0       16.002833   -1.071782   -3.507239
      6          7           0       16.324952    0.974785    1.134396
      7          6           0       16.374865    2.279520    0.884707
      8          6           0       16.607138    3.144125    2.159808
      9          6           0       17.309116    2.049192    3.081950
     10          6           0       16.711843    0.795378    2.467834
     11          6           0       18.825258    1.999868    2.922633
     12          6           0       15.264808    3.647831    2.789223
     13          6           0       15.409302    4.757291    3.834963
     14          1           0       14.385987    5.789269    3.907047
     15          7           0       15.740242   -1.980697    1.558719
     16          6           0       16.133848   -1.646239    2.811116
     17          6           0       15.915987   -2.849972    3.641926
     18          6           0       15.542518   -3.968882    2.732719
     19          6           0       15.734545   -3.352805    1.444716
     20          6           0       16.018404   -2.847878    5.136334
     21          6           0       15.095225   -5.374096    2.984582
     22          8           0       15.045714   -6.249275    2.053892
     23          6           0       14.797169   -5.727736    4.384275
     24          7           0       16.140186   -2.340200   -1.420577
     25          6           0       16.069974   -3.627574   -1.064599
     26          6           0       16.088837   -4.527643   -2.264373
     27          6           0       15.941403   -3.572787   -3.535698
     28          6           0       15.945821   -2.206583   -2.806495
     29          6           0       17.339944   -5.402192   -2.425329
     30          6           0       14.782470   -3.881623   -4.516470
     31          6           0       13.455056   -3.616381   -3.842142
     32          7           0       15.855220    0.565441   -1.708426
     33          6           0       15.972237    0.241156   -3.067771
     34          6           0       16.098490    1.511478   -3.805615
     35          6           0       16.062567    2.492137   -2.816240
     36          6           0       15.949135    1.872408   -1.538993
     37          6           0       16.283713    1.644627   -5.210035
     38          6           0       16.118406    3.918283   -2.539026
     39          8           0       16.118137    4.936971   -3.231678
     40          6           0       16.303890    4.116840   -0.969951
     41          6           0       15.311509    5.155364   -0.522787
     42          8           0       14.085354    4.926020   -0.559006
     43          8           0       15.961020    6.154282    0.094337
     44          6           0       15.031207    7.204479    0.588997
     45          1           0       17.185440   -0.440984    4.194102
     46          1           0       15.813341   -5.068209    0.239340
     47          1           0       15.993659   -1.068241   -4.598731
     48          1           0       17.274697    3.994097    2.017200
     49          1           0       17.006850    2.141252    4.124966
     50          1           0       19.160936    2.638002    2.105304
     51          1           0       19.062103    0.956577    2.713011
     52          1           0       19.321582    2.236469    3.864153
     53          1           0       14.841885    2.859682    3.412135
     54          1           0       14.572340    3.972963    2.011982
     55          1           0       16.402706    5.205836    3.805522
     56          1           0       15.345794    4.304378    4.824426
     57          1           0       16.469294   -1.927603    5.505575
     58          1           0       16.730320   -3.627108    5.407783
     59          1           0       15.058338   -3.044553    5.613748
     60          1           0       15.686332   -5.565006    4.993748
     61          1           0       14.407084   -6.744663    4.360968
     62          1           0       14.035264   -5.047373    4.765793
     63          1           0       15.252787   -5.225486   -2.242899
     64          1           0       16.832397   -3.587580   -4.163858
     65          1           0       17.123935   -6.469381   -2.481480
     66          1           0       18.013447   -5.182551   -1.597414
     67          1           0       17.963668   -5.154160   -3.283738
     68          1           0       14.794473   -4.933953   -4.798254
     69          1           0       14.825420   -3.292463   -5.432602
     70          1           0       13.273137   -4.538651   -3.291546
     71          1           0       12.677104   -3.446582   -4.587240
     72          1           0       13.533520   -2.810893   -3.111719
     73          1           0       15.624421    2.451624   -5.529502
     74          1           0       16.052639    0.715082   -5.729799
     75          1           0       17.343985    1.893600   -5.251170
     76          1           0       17.332734    4.439925   -0.814327
     77          1           0       15.358572    8.151285    0.159319
     78          1           0       15.017956    7.119718    1.675756
     79          1           0       14.006478    7.154054    0.219232
     80         12           0      -15.942853    0.820101    0.117032
     81          6           0      -15.921974   -2.768343    0.157903
     82          6           0      -15.090921    0.638671   -3.180833
     83          6           0      -15.512428    3.963435    0.157611
     84          6           0      -15.662366    0.722905    3.589436
     85          7           0      -15.582385   -0.900278   -1.225586
     86          6           0      -15.663908   -2.217624   -1.114704
     87          6           0      -15.536772   -2.985232   -2.457910
     88          6           0      -14.723047   -1.879323   -3.290788
     89          6           0      -15.182714   -0.626597   -2.547773
     90          6           0      -13.215870   -1.999274   -3.137916
     91          6           0      -16.932290   -3.283727   -3.110172
     92          6           0      -16.902246   -4.294069   -4.259103
     93          1           0      -18.033229   -5.204580   -4.415056
     94          7           0      -15.866808    2.125320   -1.376025
     95          6           0      -15.522975    1.877007   -2.657196
     96          6           0      -15.604464    3.170311   -3.353517
     97          6           0      -15.864560    4.231500   -2.343102
     98          6           0      -15.734491    3.467256   -1.118732
     99          6           0      -15.519732    3.297185   -4.846889
    100          6           0      -16.166154    5.694987   -2.459132
    101          8           0      -16.121478    6.474348   -1.442559
    102          6           0      -16.423848    6.205881   -3.813416
    103          7           0      -15.420216    2.152306    1.625152
    104          6           0      -15.353277    3.474026    1.387435
    105          6           0      -15.231793    4.254290    2.674608
    106          6           0      -15.475401    3.192390    3.845342
    107          6           0      -15.613204    1.908575    2.997874
    108          6           0      -13.895934    4.962210    2.899841
    109          6           0      -16.591595    3.522483    4.873853
    110          6           0      -17.944527    3.471876    4.201266
    111          7           0      -15.998826   -0.711668    1.639721
    112          6           0      -15.834785   -0.537362    3.031407
    113          6           0      -15.836986   -1.882612    3.641923
    114          6           0      -15.980214   -2.754327    2.551934
    115          6           0      -16.041250   -2.006250    1.345226
    116          6           0      -15.669262   -2.168155    5.026284
    117          6           0      -16.082975   -4.137806    2.146795
    118          8           0      -16.177531   -5.211815    2.739492
    119          6           0      -15.922761   -4.215065    0.567318
    120          6           0      -17.019440   -5.094205    0.031652
    121          8           0      -18.209770   -4.745397    0.121384
    122          8           0      -16.473046   -6.091550   -0.687462
    123          6           0      -17.521698   -6.984267   -1.248895
    124          1           0      -14.603702    0.697522   -4.154507
    125          1           0      -15.467657    5.051930    0.239152
    126          1           0      -15.678060    0.612766    4.675854
    127          1           0      -14.965793   -3.904360   -2.403575
    128          1           0      -15.047277   -1.848140   -4.327738
    129          1           0      -12.943423   -2.737266   -2.398118
    130          1           0      -12.871578   -1.018116   -2.838212
    131          1           0      -12.753075   -2.197469   -4.108936
    132          1           0      -17.271951   -2.392154   -3.652822
    133          1           0      -17.639490   -3.600788   -2.368569
    134          1           0      -15.955737   -4.846886   -4.297226
    135          1           0      -16.930760   -3.745997   -5.204000
    136          1           0      -15.161495    2.369363   -5.309728
    137          1           0      -14.733435    4.028997   -5.061524
    138          1           0      -16.454657    3.641579   -5.294085
    139          1           0      -15.561368    6.006279   -4.444873
    140          1           0      -16.707288    7.251965   -3.682089
    141          1           0      -17.264154    5.649342   -4.243261
    142          1           0      -15.992170    5.023331    2.733894
    143          1           0      -14.579525    3.061931    4.470013
    144          1           0      -14.000952    6.051932    3.059673
    145          1           0      -13.256256    4.762355    2.050491
    146          1           0      -13.304472    4.579202    3.729704
    147          1           0      -16.470205    4.541034    5.250640
    148          1           0      -16.597084    2.859865    5.732868
    149          1           0      -18.027399    4.460053    3.738953
    150          1           0      -18.731612    3.312358    4.935490
    151          1           0      -17.955849    2.728910    3.395329
    152          1           0      -16.399326   -2.925689    5.278602
    153          1           0      -15.795507   -1.274978    5.634612
    154          1           0      -14.635316   -2.523404    5.028276
    155          1           0      -14.932750   -4.622054    0.357973
    156          1           0      -17.288411   -8.000209   -0.915545
    157          1           0      -17.519261   -6.798944   -2.339494
    158          1           0      -18.532474   -6.866263   -0.876241
 ---------------------------------------------------------------------

 SCF Done:  E(RCAM-B3LYP) =  -4069.81178155     A.U. after   19 cycles

 Excitation energies and oscillator strengths:

 Excited State   1:      Singlet-A      1.6753 eV  740.05 nm  f=0.2139  <S**2>=0.000
     310 -> 316        0.16862
     311 -> 314        0.16235
     312 -> 313        0.66657
     310 <- 316        0.10166
 This state for optimization and/or second-order correction.
 Total Energy, E(TD-HF/TD-DFT) =  -4069.75021402
 Copying the excited state density for this state as the 1-particle RhoCI density.

 Excited State   2:      Singlet-A      1.6802 eV  737.93 nm  f=0.5634  <S**2>=0.000
     309 -> 315        0.17063
     311 -> 314        0.66620
     312 -> 313       -0.16230
     309 <- 315        0.10216

 Excited State   3:      Singlet-A      2.1861 eV  567.14 nm  f=0.0952  <S**2>=0.000
     310 -> 313        0.64210
     312 -> 316       -0.27295

 Excited State   4:      Singlet-A      2.1926 eV  565.47 nm  f=0.1049  <S**2>=0.000
     309 -> 314        0.64032
     311 -> 315       -0.27815

 Excited State   5:      Singlet-A      3.0659 eV  404.40 nm  f=0.0000  <S**2>=0.000
     311 -> 313        0.70711

 The electronic state is 1-A.
 Alpha  occ. eigenvalues --  -46.87796 -46.87660 -19.26351 -19.26284 -19.19162
 Alpha  occ. eigenvalues --  -19.19020 -19.18812 -19.18712 -19.18170 -19.18053
 Alpha  occ. eigenvalues --  -14.42497 -14.42449 -14.41449 -14.41359 -14.39402
 Alpha  occ. eigenvalues --  -14.39351 -14.38600 -14.38587 -10.39092 -10.39080
 Alpha  occ. eigenvalues --  -10.35445 -10.35389 -10.34390 -10.34230 -10.31757
 Alpha  occ. eigenvalues --  -10.31679 -10.31405 -10.31308 -10.31022 -10.30907
 Alpha  occ. eigenvalues --  -10.30570 -10.30507 -10.30398 -10.30361 -10.30207
 Alpha  occ. eigenvalues --  -10.30141 -10.29921 -10.29896 -10.29630 -10.29436
 Alpha  occ. eigenvalues --  -10.29401 -10.29253 -10.28747 -10.28717 -10.28652
 Alpha  occ. eigenvalues --  -10.28535 -10.28404 -10.28364 -10.28137 -10.28114
 Alpha  occ. eigenvalues --  -10.28001 -10.27793 -10.27726 -10.27668 -10.27583
 Alpha  occ. eigenvalues --  -10.27520 -10.27503 -10.27483 -10.27477 -10.27466
 Alpha  occ. eigenvalues --  -10.27461 -10.27451 -10.27403 -10.27377 -10.27158
 Alpha  occ. eigenvalues --  -10.27051 -10.26702 -10.26691 -10.26410 -10.26405
 Alpha  occ. eigenvalues --  -10.26232 -10.26188 -10.26141 -10.26020 -10.26020
 Alpha  occ. eigenvalues --  -10.25935 -10.25855 -10.25847 -10.25437 -10.25398
 Alpha  occ. eigenvalues --  -10.24873 -10.24833 -10.24787 -10.24735 -10.24692
 Alpha  occ. eigenvalues --  -10.24690  -3.16539  -3.16410  -1.91421  -1.91293
 Alpha  occ. eigenvalues --   -1.91007  -1.90881  -1.90849  -1.90718  -1.16645
 Alpha  occ. eigenvalues --   -1.16633  -1.08660  -1.08628  -1.07213  -1.06964
 Alpha  occ. eigenvalues --   -1.06947  -1.06643  -1.04580  -1.04495  -1.03760
 Alpha  occ. eigenvalues --   -1.03663  -1.03233  -1.03039  -1.02411  -1.02112
 Alpha  occ. eigenvalues --   -0.91987  -0.91972  -0.89521  -0.89496  -0.89186
 Alpha  occ. eigenvalues --   -0.89149  -0.88288  -0.88221  -0.87871  -0.87795
 Alpha  occ. eigenvalues --   -0.87683  -0.87672  -0.87272  -0.87118  -0.84998
 Alpha  occ. eigenvalues --   -0.84980  -0.83938  -0.83878  -0.82965  -0.82929
 Alpha  occ. eigenvalues --   -0.82651  -0.82647  -0.81597  -0.81586  -0.80596
 Alpha  occ. eigenvalues --   -0.80443  -0.78796  -0.78635  -0.77218  -0.77144
 Alpha  occ. eigenvalues --   -0.76934  -0.76898  -0.75922  -0.75838  -0.74899
 Alpha  occ. eigenvalues --   -0.74803  -0.72774  -0.72700  -0.71672  -0.71581
 Alpha  occ. eigenvalues --   -0.69909  -0.69760  -0.68872  -0.68826  -0.67640
 Alpha  occ. eigenvalues --   -0.67601  -0.67217  -0.67198  -0.65285  -0.65271
 Alpha  occ. eigenvalues --   -0.64853  -0.64771  -0.64654  -0.64620  -0.64270
 Alpha  occ. eigenvalues --   -0.64205  -0.62298  -0.62279  -0.60441  -0.60339
 Alpha  occ. eigenvalues --   -0.59803  -0.59795  -0.58993  -0.58987  -0.58504
 Alpha  occ. eigenvalues --   -0.58426  -0.57585  -0.57555  -0.57309  -0.57237
 Alpha  occ. eigenvalues --   -0.56309  -0.56204  -0.55978  -0.55886  -0.55519
 Alpha  occ. eigenvalues --   -0.55451  -0.55340  -0.55249  -0.54524  -0.54489
 Alpha  occ. eigenvalues --   -0.53911  -0.53893  -0.53298  -0.53228  -0.53220
 Alpha  occ. eigenvalues --   -0.53141  -0.52914  -0.52902  -0.52753  -0.52665
 Alpha  occ. eigenvalues --   -0.52441  -0.52404  -0.51916  -0.51888  -0.51657
 Alpha  occ. eigenvalues --   -0.51615  -0.51202  -0.51196  -0.50569  -0.50472
 Alpha  occ. eigenvalues --   -0.50032  -0.49978  -0.49916  -0.49868  -0.49513
 Alpha  occ. eigenvalues --   -0.49486  -0.49214  -0.49201  -0.49104  -0.49095
 Alpha  occ. eigenvalues --   -0.48593  -0.48558  -0.48461  -0.48444  -0.48377
 Alpha  occ. eigenvalues --   -0.48337  -0.47694  -0.47594  -0.47296  -0.47117
 Alpha  occ. eigenvalues --   -0.46797  -0.46709  -0.46553  -0.46552  -0.46359
 Alpha  occ. eigenvalues --   -0.46271  -0.46163  -0.46087  -0.45824  -0.45822
 Alpha  occ. eigenvalues --   -0.45209  -0.45202  -0.44578  -0.44515  -0.44505
 Alpha  occ. eigenvalues --   -0.44475  -0.44145  -0.44127  -0.44087  -0.44078
 Alpha  occ. eigenvalues --   -0.44018  -0.43938  -0.43554  -0.43495  -0.43385
 Alpha  occ. eigenvalues --   -0.43385  -0.43027  -0.42931  -0.42902  -0.42699
 Alpha  occ. eigenvalues --   -0.42656  -0.42554  -0.42010  -0.41965  -0.41704
 Alpha  occ. eigenvalues --   -0.41670  -0.41532  -0.41458  -0.41140  -0.40989
 Alpha  occ. eigenvalues --   -0.40868  -0.40821  -0.40721  -0.40697  -0.40572
 Alpha  occ. eigenvalues --   -0.40494  -0.40231  -0.40225  -0.39443  -0.39428
 Alpha  occ. eigenvalues --   -0.38469  -0.38351  -0.37746  -0.37653  -0.37321
 Alpha  occ. eigenvalues --   -0.37267  -0.37262  -0.37198  -0.36772  -0.36713
 Alpha  occ. eigenvalues --   -0.36218  -0.36193  -0.34286  -0.34254  -0.33863
 Alpha  occ. eigenvalues --   -0.33771  -0.33186  -0.33176  -0.31342  -0.31271
 Alpha  occ. eigenvalues --   -0.31035  -0.30973  -0.30030  -0.29957  -0.29448
 Alpha  occ. eigenvalues --   -0.29327  -0.29322  -0.29212  -0.24080  -0.24036
 Alpha  occ. eigenvalues --   -0.21127  -0.21117
 Alpha virt. eigenvalues --   -0.08792  -0.08774  -0.01749  -0.01684  -0.00056
 Alpha virt. eigenvalues --   -0.00027   0.02200   0.02206   0.03125   0.03226
 Alpha virt. eigenvalues --    0.04719   0.04731   0.05098   0.05164   0.06180

 Mulliken charges:
               1
     1  Mg   0.838775
     2  C   -0.002944
     3  C   -0.094085
     4  C   -0.045875
     5  C   -0.063982
     6  N   -0.256792
     7  C   -0.052464
     8  C   -0.014019
     9  C   -0.086997
    10  C    0.046329
    11  C    0.104803
    12  C    0.053450
    13  C   -0.071825
    14  H    0.036150
    15  N   -0.433150
    16  C    0.168436
    17  C   -0.177130
    18  C   -0.003989
    19  C    0.148717
    20  C    0.110174
    21  C    0.012301
    22  O   -0.249619
    23  C    0.062466
    24  N   -0.341160
    25  C    0.041253
    26  C   -0.028200
    27  C   -0.023921
    28  C    0.074815
    29  C    0.076170
    30  C    0.035124
    31  C   -0.004485
    32  N   -0.310464
    33  C    0.080405
    34  C   -0.169753
    35  C    0.008343
    36  C    0.082963
    37  C    0.127323
    38  C    0.046093
    39  O   -0.188489
    40  C   -0.005333
    41  C    0.212878
    42  O   -0.257124
    43  O   -0.304792
    44  C    0.157697
    45  H   -0.017569
    46  H   -0.016829
    47  H   -0.041541
    48  H    0.000935
    49  H   -0.003999
    50  H    0.025467
    51  H    0.016448
    52  H    0.016686
    53  H    0.011229
    54  H    0.044111
    55  H    0.017871
    56  H    0.017986
    57  H    0.005898
    58  H    0.026853
    59  H    0.039611
    60  H    0.037364
    61  H    0.035691
    62  H    0.031537
    63  H    0.016551
    64  H    0.009441
    65  H    0.023215
    66  H    0.012565
    67  H    0.004739
    68  H    0.006345
    69  H    0.004686
    70  H    0.008794
    71  H    0.018075
    72  H    0.028998
    73  H    0.047518
    74  H    0.009069
    75  H    0.045996
    76  H    0.035150
    77  H    0.042933
    78  H    0.046431
    79  H    0.053671
    80  Mg   0.837884
    81  C   -0.016833
    82  C   -0.087760
    83  C   -0.045485
    84  C   -0.064912
    85  N   -0.254574
    86  C   -0.049834
    87  C   -0.015108
    88  C   -0.090497
    89  C    0.045764
    90  C    0.114352
    91  C    0.062513
    92  C   -0.077909
    93  H    0.034890
    94  N   -0.423507
    95  C    0.162923
    96  C   -0.174561
    97  C   -0.007779
    98  C    0.152117
    99  C    0.099327
   100  C    0.015595
   101  O   -0.253155
   102  C    0.061186
   103  N   -0.350075
   104  C    0.037535
   105  C   -0.019837
   106  C   -0.034809
   107  C    0.088929
   108  C    0.073649
   109  C    0.034729
   110  C   -0.007669
   111  N   -0.324122
   112  C    0.078441
   113  C   -0.163169
   114  C    0.002221
   115  C    0.096204
   116  C    0.131491
   117  C    0.042365
   118  O   -0.187917
   119  C    0.000925
   120  C    0.211237
   121  O   -0.251018
   122  O   -0.305616
   123  C    0.152021
   124  H   -0.019574
   125  H   -0.015542
   126  H   -0.040498
   127  H   -0.000642
   128  H   -0.004286
   129  H    0.022460
   130  H    0.014461
   131  H    0.016364
   132  H    0.013926
   133  H    0.037658
   134  H    0.020807
   135  H    0.019626
   136  H    0.008811
   137  H    0.026245
   138  H    0.039830
   139  H    0.038318
   140  H    0.036433
   141  H    0.033895
   142  H    0.014403
   143  H    0.012400
   144  H    0.025158
   145  H    0.011696
   146  H    0.005663
   147  H    0.006255
   148  H    0.003615
   149  H    0.010945
   150  H    0.017905
   151  H    0.030112
   152  H    0.045975
   153  H    0.008482
   154  H    0.046917
   155  H    0.035036
   156  H    0.043902
   157  H    0.049522
   158  H    0.053571
 Sum of Mulliken charges =  -0.00000

 Dipole moment (field-independent basis, Debye):
    X=              4.0087    Y=              0.0183    Z=              0.1994  Tot=              4.0137
 Quadrupole moment (field-independent basis, Debye-Ang):
   XX=           -519.0267   YY=           -551.3136   ZZ=           -447.3630
   XY=            -40.5801   XZ=            126.7252   YZ=             47.9160

 Normal termination of Gaussian 16 at Sun Sep 12 12:28:05 2021.
