 Gaussian 16, Revision A.03,
 Gaussian 16:  ES64L-G16RevA.03 25-Dec-2016

 -----------------------------------
 #p cam-b3lyp/Def2SVP td=(nstates=5)
 -----------------------------------

 --------------------------------
 TDDFT excited states in gaussian
 --------------------------------
 Symbolic Z-matrix:
 Charge =  0 Multiplicity = 1

                         Standard orientation:
 ---------------------------------------------------------------------
 Center     Atomic      Atomic             Coordinates (Angstroms)
 Number     Number       Type             X           Y           Z
 ---------------------------------------------------------------------
      1         12           0        7.820753    0.713805    0.475244
      2          6           0        8.331076   -2.347305   -1.308400
      3          6           0        8.558970    2.353267   -2.424802
      4          6           0        7.821789    3.418033    2.131677
      5          6           0        8.241158   -1.103404    3.419165
      6          7           0        8.358761   -0.015192   -1.544597
      7          6           0        8.461633   -1.212766   -2.112404
      8          6           0        8.646423   -1.149817   -3.658128
      9          6           0        9.261774    0.316072   -3.778591
     10          6           0        8.663459    0.934249   -2.527272
     11          6           0       10.782395    0.349807   -3.664242
     12          6           0        7.285961   -1.264821   -4.424711
     13          6           0        7.403522   -1.539274   -5.926780
     14          1           0        6.408919   -2.389584   -6.563243
     15          7           0        7.663125    2.587502   -0.130779
     16          6           0        7.994436    3.074685   -1.350685
     17          6           0        7.693824    4.521891   -1.306990
     18          6           0        7.339696    4.870878    0.096896
     19          6           0        7.623117    3.628697    0.769233
     20          6           0        7.710857    5.402753   -2.518411
     21          6           0        6.837154    6.128001    0.733470
     22          8           0        6.814788    6.286162    2.001957
     23          6           0        6.449360    7.217594   -0.180555
     24          7           0        8.221472    1.153231    2.476235
     25          6           0        8.092798    2.397963    2.948536
     26          6           0        8.153272    2.422319    4.447098
     27          6           0        8.107065    0.896696    4.916239
     28          6           0        8.110532    0.221086    3.522751
     29          6           0        9.384947    3.106447    5.056161
     30          6           0        6.997282    0.504063    5.923534
     31          6           0        5.642049    0.608899    5.260623
     32          7           0        8.039967   -1.379247    1.006397
     33          6           0        8.224624   -1.907968    2.292099
     34          6           0        8.430495   -3.359706    2.136722
     35          6           0        8.367395   -3.573571    0.761177
     36          6           0        8.162909   -2.330222    0.097430
     37          6           0        8.699399   -4.280459    3.187598
     38          6           0        8.449739   -4.559787   -0.303931
     39          8           0        8.519286   -5.789033   -0.344060
     40          6           0        8.551254   -3.789042   -1.693706
     41          6           0        7.566323   -4.422829   -2.637917
     42          8           0        6.337950   -4.329452   -2.438551
     43          8           0        8.209012   -4.830324   -3.743106
     44          6           0        7.284158   -5.442073   -4.734349
     45          1           0        9.000830    2.972946   -3.207553
     46          1           0        7.719461    4.311855    2.750587
     47          1           0        8.294362   -1.747087    4.299105
     48          1           0        9.346023   -1.881628   -4.062401
     49          1           0        8.903383    0.836147   -4.666736
     50          1           0       11.182981   -0.625807   -3.389236
     51          1           0       10.999664    1.083263   -2.887499
     52          1           0       11.231029    0.739590   -4.578339
     53          1           0        6.804936   -0.287100   -4.451848
     54          1           0        6.648932   -2.023308   -3.968402
     55          1           0        8.409892   -1.861650   -6.195482
     56          1           0        7.270234   -0.596624   -6.457672
     57          1           0        8.167134    4.901930   -3.371366
     58          1           0        8.382632    6.232476   -2.299348
     59          1           0        6.719698    5.786379   -2.760831
     60          1           0        7.306761    7.494897   -0.794163
     61          1           0        6.031155    8.002930    0.448096
     62          1           0        5.687516    6.847902   -0.867484
     63          1           0        7.296965    2.950472    4.864494
     64          1           0        9.031601    0.591486    5.406906
     65          1           0        9.140835    3.923147    5.735951
     66          1           0       10.016368    3.453495    4.238753
     67          1           0       10.063719    2.438457    5.585760
     68          1           0        6.994022    1.189536    6.770329
     69          1           0        7.109925   -0.506814    6.315567
     70          1           0        5.401662    1.666427    5.363965
     71          1           0        4.913258   -0.010177    5.784855
     72          1           0        5.702656    0.391221    4.194120
     73          1           0        8.083704   -5.157748    2.989474
     74          1           0        8.470792   -3.847782    4.161319
     75          1           0        9.767229   -4.444626    3.043915
     76          1           0        9.578703   -3.899466   -2.039070
     77          1           0        7.663524   -6.440109   -4.953982
     78          1           0        7.206429   -4.736848   -5.562010
     79          1           0        6.281141   -5.677289   -4.376622
     80         12           0       -7.988345   -0.809007    0.384212
     81          6           0       -8.044650    2.049498   -1.784844
     82          6           0       -7.330358    1.338606    2.951187
     83          6           0       -7.486812   -3.335061    2.237573
     84          6           0       -7.512270   -2.777858   -2.451755
     85          7           0       -7.743328    1.388264    0.449212
     86          6           0       -7.847536    2.376104   -0.426943
     87          6           0       -7.814341    3.796519    0.198276
     88          6           0       -7.025213    3.445004    1.552002
     89          6           0       -7.413841    1.974109    1.686560
     90          6           0       -5.514796    3.528624    1.407155
     91          6           0       -9.251100    4.351182    0.498433
     92          6           0       -9.309085    5.846175    0.819990
     93          1           0      -10.467012    6.611375    0.365962
     94          7           0       -7.968799   -0.966858    2.362410
     95          6           0       -7.704271    0.010932    3.254169
     96          6           0       -7.796729   -0.618495    4.580604
     97          6           0       -7.975138   -2.083990    4.392984
     98          6           0       -7.792324   -2.190389    2.959333
     99          6           0       -7.794617    0.170560    5.857629
    100          6           0       -8.250377   -3.205974    5.347759
    101          8           0       -8.130478   -4.433025    4.997350
    102          6           0       -8.573612   -2.825608    6.730633
    103          7           0       -7.351074   -2.747082   -0.015917
    104          6           0       -7.268570   -3.663903    0.964168
    105          6           0       -7.056530   -5.048343    0.399590
    106          6           0       -7.256355   -4.903222   -1.180466
    107          6           0       -7.470723   -3.376273   -1.269238
    108          6           0       -5.694649   -5.681375    0.684061
    109          6           0       -8.304404   -5.836681   -1.845982
    110          6           0       -9.694331   -5.466808   -1.380482
    111          7           0       -7.991197   -0.485779   -1.752045
    112          6           0       -7.744127   -1.443461   -2.759966
    113          6           0       -7.741264   -0.725712   -4.051184
    114          6           0       -7.965766    0.613993   -3.700074
    115          6           0       -8.079019    0.726464   -2.287968
    116          6           0       -7.501130   -1.309557   -5.326955
    117          6           0       -8.122104    1.960188   -4.202085
    118          8           0       -8.206429    2.465903   -5.320504
    119          6           0       -8.054097    2.968194   -2.975032
    120          6           0       -9.198767    3.935402   -3.104465
    121          8           0      -10.374020    3.540380   -3.007709
    122          8           0       -8.716553    5.191518   -3.103290
    123          6           0       -9.815067    6.187410   -3.218542
    124          1           0       -6.898353    1.894606    3.783722
    125          1           0       -7.413356   -4.255262    2.821783
    126          1           0       -7.468331   -3.335184   -3.389909
    127          1           0       -7.261683    4.531931   -0.374015
    128          1           0       -7.407356    4.018773    2.392309
    129          1           0       -5.216955    3.696185    0.382775
    130          1           0       -5.132301    2.580610    1.762135
    131          1           0       -5.112705    4.288197    2.083695
    132          1           0       -9.601367    3.939783    1.453839
    133          1           0       -9.921641    4.128924   -0.308782
    134          1           0       -8.378768    6.361749    0.552340
    135          1           0       -9.379365    5.965518    1.903887
    136          1           0       -7.484038    1.208970    5.688342
    137          1           0       -7.005848   -0.248973    6.491424
    138          1           0       -8.745690    0.111072    6.391088
    139          1           0       -7.753228   -2.245783    7.146845
    140          1           0       -8.825854   -3.758299    7.238897
    141          1           0       -9.449202   -2.167005    6.716772
    142          1           0       -7.795060   -5.740486    0.785102
    143          1           0       -6.329370   -5.122904   -1.730268
    144          1           0       -5.766204   -6.656804    1.201279
    145          1           0       -5.109098   -4.983533    1.267745
    146          1           0       -5.065379   -5.835829   -0.190784
    147          1           0       -8.139171   -6.872023   -1.537893
    148          1           0       -8.275506   -5.814810   -2.930267
    149          1           0       -9.781561   -5.990200   -0.423640
    150          1           0      -10.441541   -5.815344   -2.090576
    151          1           0       -9.768098   -4.392311   -1.176382
    152          1           0       -8.232183   -0.888824   -6.004478
    153          1           0       -7.572614   -2.394506   -5.287488
    154          1           0       -6.476871   -0.971926   -5.506291
    155          1           0       -7.086914    3.470572   -3.016974
    156          1           0       -9.585684    6.817447   -4.083489
    157          1           0       -9.870802    6.686159   -2.232701
    158          1           0      -10.800045    5.819088   -3.480459
 ---------------------------------------------------------------------

 SCF Done:  E(RCAM-B3LYP) =  -4069.81184130     A.U. after   19 cycles

 Excitation energies and oscillator strengths:

 Excited State   1:      Singlet-A      1.6738 eV  740.75 nm  f=0.2555  <S**2>=0.000
     310 -> 316        0.15636
     311 -> 313        0.29606
     312 -> 314        0.61898
 This state for optimization and/or second-order correction.
 Total Energy, E(TD-HF/TD-DFT) =  -4069.75033162
 Copying the excited state density for this state as the 1-particle RhoCI density.

 Excited State   2:      Singlet-A      1.6810 eV  737.56 nm  f=0.4949  <S**2>=0.000
     309 -> 315        0.15853
     311 -> 313        0.61848
     312 -> 314       -0.29584

 Excited State   3:      Singlet-A      2.1858 eV  567.24 nm  f=0.0917  <S**2>=0.000
     310 -> 314        0.63797
     312 -> 316       -0.27085

 Excited State   4:      Singlet-A      2.1925 eV  565.48 nm  f=0.1067  <S**2>=0.000
     309 -> 313        0.63602
     311 -> 315       -0.27621

 Excited State   5:      Singlet-A      2.7660 eV  448.25 nm  f=0.0000  <S**2>=0.000
     312 -> 313        0.70710

 The electronic state is 1-A.
 Alpha  occ. eigenvalues --  -46.87836 -46.87592 -19.26326 -19.26306 -19.19130
 Alpha  occ. eigenvalues --  -19.19046 -19.18865 -19.18647 -19.18202 -19.18005
 Alpha  occ. eigenvalues --  -14.42486 -14.42431 -14.41491 -14.41286 -14.39442
 Alpha  occ. eigenvalues --  -14.39285 -14.38625 -14.38534 -10.39106 -10.39058
 Alpha  occ. eigenvalues --  -10.35499 -10.35324 -10.34422 -10.34183 -10.31742
 Alpha  occ. eigenvalues --  -10.31697 -10.31437 -10.31248 -10.30960 -10.30942
 Alpha  occ. eigenvalues --  -10.30606 -10.30549 -10.30331 -10.30299 -10.30251
 Alpha  occ. eigenvalues --  -10.30063 -10.29964 -10.29819 -10.29670 -10.29367
 Alpha  occ. eigenvalues --  -10.29338 -10.29294 -10.28771 -10.28668 -10.28621
 Alpha  occ. eigenvalues --  -10.28542 -10.28401 -10.28342 -10.28139 -10.28083
 Alpha  occ. eigenvalues --  -10.27939 -10.27830 -10.27762 -10.27624 -10.27603
 Alpha  occ. eigenvalues --  -10.27556 -10.27511 -10.27505 -10.27439 -10.27423
 Alpha  occ. eigenvalues --  -10.27420 -10.27406 -10.27402 -10.27276 -10.27188
 Alpha  occ. eigenvalues --  -10.27006 -10.26719 -10.26650 -10.26461 -10.26352
 Alpha  occ. eigenvalues --  -10.26254 -10.26251 -10.26061 -10.26052 -10.25962
 Alpha  occ. eigenvalues --  -10.25878 -10.25862 -10.25798 -10.25489 -10.25262
 Alpha  occ. eigenvalues --  -10.24869 -10.24830 -10.24812 -10.24766 -10.24656
 Alpha  occ. eigenvalues --  -10.24617  -3.16579  -3.16342  -1.91460  -1.91224
 Alpha  occ. eigenvalues --   -1.91047  -1.90889  -1.90813  -1.90650  -1.16656
 Alpha  occ. eigenvalues --   -1.16618  -1.08659  -1.08615  -1.07268  -1.06915
 Alpha  occ. eigenvalues --   -1.06899  -1.06668  -1.04616  -1.04431  -1.03801
 Alpha  occ. eigenvalues --   -1.03595  -1.03273  -1.02968  -1.02451  -1.02043
 Alpha  occ. eigenvalues --   -0.92007  -0.91928  -0.89569  -0.89420  -0.89212
 Alpha  occ. eigenvalues --   -0.89095  -0.88336  -0.88136  -0.87906  -0.87734
 Alpha  occ. eigenvalues --   -0.87707  -0.87618  -0.87313  -0.87056  -0.85010
 Alpha  occ. eigenvalues --   -0.84942  -0.83989  -0.83794  -0.83014  -0.82862
 Alpha  occ. eigenvalues --   -0.82681  -0.82594  -0.81616  -0.81550  -0.80631
 Alpha  occ. eigenvalues --   -0.80387  -0.78835  -0.78573  -0.77256  -0.77083
 Alpha  occ. eigenvalues --   -0.76965  -0.76838  -0.75952  -0.75785  -0.74943
 Alpha  occ. eigenvalues --   -0.74718  -0.72812  -0.72634  -0.71709  -0.71510
 Alpha  occ. eigenvalues --   -0.69964  -0.69674  -0.68904  -0.68770  -0.67679
 Alpha  occ. eigenvalues --   -0.67539  -0.67247  -0.67146  -0.65315  -0.65217
 Alpha  occ. eigenvalues --   -0.64890  -0.64708  -0.64657  -0.64596  -0.64316
 Alpha  occ. eigenvalues --   -0.64127  -0.62329  -0.62231  -0.60484  -0.60270
 Alpha  occ. eigenvalues --   -0.59833  -0.59739  -0.59026  -0.58926  -0.58541
 Alpha  occ. eigenvalues --   -0.58363  -0.57616  -0.57509  -0.57351  -0.57167
 Alpha  occ. eigenvalues --   -0.56346  -0.56145  -0.56005  -0.55843  -0.55559
 Alpha  occ. eigenvalues --   -0.55398  -0.55384  -0.55178  -0.54564  -0.54424
 Alpha  occ. eigenvalues --   -0.53919  -0.53857  -0.53339  -0.53254  -0.53164
 Alpha  occ. eigenvalues --   -0.53086  -0.52950  -0.52848  -0.52792  -0.52607
 Alpha  occ. eigenvalues --   -0.52497  -0.52324  -0.51951  -0.51830  -0.51645
 Alpha  occ. eigenvalues --   -0.51605  -0.51233  -0.51144  -0.50614  -0.50409
 Alpha  occ. eigenvalues --   -0.50081  -0.49957  -0.49916  -0.49784  -0.49548
 Alpha  occ. eigenvalues --   -0.49428  -0.49249  -0.49147  -0.49123  -0.49049
 Alpha  occ. eigenvalues --   -0.48625  -0.48508  -0.48505  -0.48485  -0.48298
 Alpha  occ. eigenvalues --   -0.48274  -0.47731  -0.47533  -0.47334  -0.47049
 Alpha  occ. eigenvalues --   -0.46836  -0.46642  -0.46581  -0.46496  -0.46399
 Alpha  occ. eigenvalues --   -0.46204  -0.46201  -0.46017  -0.45853  -0.45770
 Alpha  occ. eigenvalues --   -0.45249  -0.45121  -0.44612  -0.44546  -0.44459
 Alpha  occ. eigenvalues --   -0.44417  -0.44189  -0.44117  -0.44069  -0.44054
 Alpha  occ. eigenvalues --   -0.44010  -0.43883  -0.43527  -0.43505  -0.43421
 Alpha  occ. eigenvalues --   -0.43323  -0.43064  -0.42888  -0.42840  -0.42739
 Alpha  occ. eigenvalues --   -0.42696  -0.42476  -0.42053  -0.41898  -0.41741
 Alpha  occ. eigenvalues --   -0.41609  -0.41562  -0.41399  -0.41176  -0.40921
 Alpha  occ. eigenvalues --   -0.40904  -0.40867  -0.40661  -0.40637  -0.40617
 Alpha  occ. eigenvalues --   -0.40415  -0.40254  -0.40177  -0.39501  -0.39344
 Alpha  occ. eigenvalues --   -0.38515  -0.38268  -0.37772  -0.37602  -0.37365
 Alpha  occ. eigenvalues --   -0.37291  -0.37192  -0.37141  -0.36746  -0.36729
 Alpha  occ. eigenvalues --   -0.36229  -0.36149  -0.34324  -0.34188  -0.33824
 Alpha  occ. eigenvalues --   -0.33799  -0.33224  -0.33109  -0.31395  -0.31205
 Alpha  occ. eigenvalues --   -0.31074  -0.30906  -0.30061  -0.29910  -0.29489
 Alpha  occ. eigenvalues --   -0.29359  -0.29263  -0.29151  -0.24119  -0.23969
 Alpha  occ. eigenvalues --   -0.21166  -0.21049
 Alpha virt. eigenvalues --   -0.08813  -0.08727  -0.01791  -0.01613  -0.00098
 Alpha virt. eigenvalues --    0.00034   0.02163   0.02265   0.03075   0.03290
 Alpha virt. eigenvalues --    0.04687   0.04793   0.05072   0.05199   0.06159

 Mulliken charges:
               1
     1  Mg   0.838639
     2  C   -0.002921
     3  C   -0.093927
     4  C   -0.046050
     5  C   -0.064006
     6  N   -0.256800
     7  C   -0.052380
     8  C   -0.014041
     9  C   -0.087026
    10  C    0.046309
    11  C    0.104783
    12  C    0.053419
    13  C   -0.071943
    14  H    0.036349
    15  N   -0.433140
    16  C    0.168378
    17  C   -0.177052
    18  C   -0.004100
    19  C    0.148693
    20  C    0.110107
    21  C    0.012103
    22  O   -0.249937
    23  C    0.062535
    24  N   -0.341143
    25  C    0.041273
    26  C   -0.028152
    27  C   -0.023942
    28  C    0.074763
    29  C    0.076185
    30  C    0.035167
    31  C   -0.004449
    32  N   -0.310487
    33  C    0.080378
    34  C   -0.169716
    35  C    0.008403
    36  C    0.082958
    37  C    0.127317
    38  C    0.046135
    39  O   -0.188330
    40  C   -0.005327
    41  C    0.212919
    42  O   -0.257165
    43  O   -0.304757
    44  C    0.157679
    45  H   -0.017428
    46  H   -0.017033
    47  H   -0.041535
    48  H    0.001020
    49  H   -0.003825
    50  H    0.025491
    51  H    0.016401
    52  H    0.016821
    53  H    0.011298
    54  H    0.044059
    55  H    0.017895
    56  H    0.018168
    57  H    0.006091
    58  H    0.026866
    59  H    0.039679
    60  H    0.037549
    61  H    0.035370
    62  H    0.031516
    63  H    0.016222
    64  H    0.009531
    65  H    0.023042
    66  H    0.012675
    67  H    0.004808
    68  H    0.006178
    69  H    0.004840
    70  H    0.008386
    71  H    0.017928
    72  H    0.029123
    73  H    0.047625
    74  H    0.009055
    75  H    0.046081
    76  H    0.035251
    77  H    0.043000
    78  H    0.046540
    79  H    0.053615
    80  Mg   0.837986
    81  C   -0.016939
    82  C   -0.087801
    83  C   -0.045337
    84  C   -0.064592
    85  N   -0.254578
    86  C   -0.049872
    87  C   -0.015079
    88  C   -0.090534
    89  C    0.045804
    90  C    0.114349
    91  C    0.062545
    92  C   -0.077788
    93  H    0.034631
    94  N   -0.423525
    95  C    0.163002
    96  C   -0.174543
    97  C   -0.007677
    98  C    0.152160
    99  C    0.099337
   100  C    0.015603
   101  O   -0.252965
   102  C    0.061203
   103  N   -0.350028
   104  C    0.037745
   105  C   -0.020006
   106  C   -0.034803
   107  C    0.088919
   108  C    0.073329
   109  C    0.034711
   110  C   -0.007652
   111  N   -0.324075
   112  C    0.078410
   113  C   -0.163158
   114  C    0.002084
   115  C    0.096215
   116  C    0.131511
   117  C    0.042229
   118  O   -0.188374
   119  C    0.000967
   120  C    0.211197
   121  O   -0.251041
   122  O   -0.305695
   123  C    0.152099
   124  H   -0.019620
   125  H   -0.015319
   126  H   -0.040419
   127  H   -0.000877
   128  H   -0.004419
   129  H    0.022283
   130  H    0.014808
   131  H    0.016330
   132  H    0.013933
   133  H    0.037587
   134  H    0.020683
   135  H    0.019610
   136  H    0.008737
   137  H    0.026254
   138  H    0.039677
   139  H    0.038277
   140  H    0.036391
   141  H    0.033757
   142  H    0.014296
   143  H    0.012910
   144  H    0.025303
   145  H    0.012139
   146  H    0.006518
   147  H    0.006464
   148  H    0.003539
   149  H    0.010943
   150  H    0.017725
   151  H    0.029942
   152  H    0.045716
   153  H    0.008569
   154  H    0.046869
   155  H    0.034767
   156  H    0.043621
   157  H    0.049499
   158  H    0.053531
 Sum of Mulliken charges =  -0.00000

 Dipole moment (field-independent basis, Debye):
    X=              3.6056    Y=              4.6882    Z=              1.2740  Tot=              6.0500
 Quadrupole moment (field-independent basis, Debye-Ang):
   XX=           -519.9012   YY=           -519.1289   ZZ=           -479.3554
   XY=             16.5792   XZ=            -57.1954   YZ=             17.8757

 Normal termination of Gaussian 16 at Sat Sep  4 14:09:49 2021.
