 Gaussian 16, Revision A.03,
 Gaussian 16:  ES64L-G16RevA.03 25-Dec-2016

 -----------------------------------
 #p cam-b3lyp/Def2SVP td=(nstates=5)
 -----------------------------------

 --------------------------------
 TDDFT excited states in gaussian
 --------------------------------
 Symbolic Z-matrix:
 Charge =  0 Multiplicity = 1

                         Standard orientation:
 ---------------------------------------------------------------------
 Center     Atomic      Atomic             Coordinates (Angstroms)
 Number     Number       Type             X           Y           Z
 ---------------------------------------------------------------------
      1         12           0        3.308372    1.381533    0.732698
      2          6           0        4.478455   -1.699247   -0.664412
      3          6           0        4.298012    2.896892   -2.159941
      4          6           0        2.703896    4.170931    2.114902
      5          6           0        3.467835   -0.147183    3.860518
      6          7           0        4.253758    0.591869   -1.106683
      7          6           0        4.595676   -0.617469   -1.540003
      8          6           0        5.019777   -0.639579   -3.039010
      9          6           0        5.459293    0.884658   -3.198778
     10          6           0        4.593486    1.502015   -2.114725
     11          6           0        6.924978    1.134964   -2.858754
     12          6           0        3.826909   -0.994462   -3.989197
     13          6           0        4.220092   -1.356055   -5.424472
     14          1           0        3.455696   -2.377918   -6.123644
     15          7           0        3.019384    3.168048   -0.059577
     16          6           0        3.481206    3.608316   -1.254638
     17          6           0        2.999797    4.999932   -1.390024
     18          6           0        2.381723    5.395703   -0.094090
     19          6           0        2.704501    4.255095    0.724570
     20          6           0        3.103630    5.786581   -2.660517
     21          6           0        1.630012    6.613856    0.340839
     22          8           0        1.382417    6.857056    1.571337
     23          6           0        1.263309    7.572226   -0.717508
     24          7           0        3.320946    2.012706    2.722446
     25          6           0        2.963416    3.258313    3.053532
     26          6           0        2.776188    3.397021    4.535303
     27          6           0        2.844578    1.916684    5.130012
     28          6           0        3.158357    1.150791    3.821112
     29          6           0        3.797768    4.285318    5.258707
     30          6           0        1.643520    1.447817    5.989107
     31          6           0        0.411579    1.318206    5.121569
     32          7           0        3.697095   -0.618554    1.480757
     33          6           0        3.734809   -1.024322    2.822623
     34          6           0        4.142185   -2.441354    2.834146
     35          6           0        4.330440   -2.758924    1.490437
     36          6           0        4.083388   -1.605710    0.692092
     37          6           0        4.349279   -3.239532    3.993654
     38          6           0        4.706739   -3.797552    0.545182
     39          8           0        4.934273   -5.005314    0.629039
     40          6           0        4.935934   -3.120750   -0.877925
     41          6           0        4.204050   -3.949201   -1.898377
     42          8           0        2.957663   -4.011521   -1.897002
     43          8           0        5.063345   -4.341946   -2.851218
     44          6           0        4.395163   -5.143710   -3.910869
     45          1           0        4.780557    3.514268   -2.920164
     46          1           0        2.392003    5.083869    2.626472
     47          1           0        3.457082   -0.713379    4.793664
     48          1           0        5.861290   -1.295187   -3.263641
     49          1           0        5.188027    1.286231   -4.174931
     50          1           0        7.393809    0.245616   -2.437829
     51          1           0        6.920239    1.944562   -2.128671
     52          1           0        7.464091    1.516818   -3.726119
     53          1           0        3.238820   -0.096492   -4.178569
     54          1           0        3.223613   -1.798948   -3.567105
     55          1           0        5.288926   -1.555393   -5.506734
     56          1           0        4.058567   -0.480718   -6.053674
     57          1           0        3.751101    5.293924   -3.384820
     58          1           0        3.622381    6.714143   -2.419200
     59          1           0        2.125080    6.012253   -3.084599
     60          1           0        2.167732    7.920420   -1.216836
     61          1           0        0.654136    8.335287   -0.234293
     62          1           0        0.675146    7.053591   -1.475158
     63          1           0        1.804491    3.830826    4.767775
     64          1           0        3.707837    1.776950    5.781112
     65          1           0        3.346797    5.106907    5.815772
     66          1           0        4.505415    4.656918    4.518139
     67          1           0        4.459276    3.756171    5.944148
     68          1           0        1.417508    2.184689    6.759097
     69          1           0        1.815879    0.492385    6.484779
     70          1           0        0.027917    2.337335    5.089777
     71          1           0       -0.309915    0.643671    5.583802
     72          1           0        0.671206    1.035791    4.101118
     73          1           0        3.887938   -4.204900    3.785813
     74          1           0        3.913525   -2.774362    4.877588
     75          1           0        5.438282   -3.265251    4.029233
     76          1           0        6.011481   -3.113229   -1.051889
     77          1           0        4.926350   -6.093226   -3.977912
     78          1           0        4.365761   -4.516372   -4.801929
     79          1           0        3.384528   -5.488482   -3.689314
     80         12           0       -4.317184   -0.460971   -0.451333
     81          6           0       -1.366714   -2.405064    0.176636
     82          6           0       -2.264825    2.216557   -0.954556
     83          6           0       -6.903303    1.373775   -0.565764
     84          6           0       -6.132873   -2.941774    1.190189
     85          7           0       -2.117099   -0.247480   -0.371817
     86          6           0       -1.095092   -1.068792   -0.183992
     87          6           0        0.295301   -0.442004   -0.472989
     88          6           0       -0.085788    1.101914   -0.249493
     89          6           0       -1.575826    1.035967   -0.578295
     90          6           0        0.065429    1.556439    1.192683
     91          6           0        0.777017   -0.707843   -1.942440
     92          6           0        2.252102   -0.394194   -2.202303
     93          1           0        2.989864   -1.241158   -3.135477
     94          7           0       -4.564760    1.365022   -1.188230
     95          6           0       -3.619049    2.315299   -1.342702
     96          6           0       -4.311940    3.484790   -1.905180
     97          6           0       -5.773297    3.203663   -1.916331
     98          6           0       -5.806272    1.950816   -1.188741
     99          6           0       -3.582904    4.683242   -2.439628
    100          6           0       -6.948146    3.946690   -2.476538
    101          8           0       -8.151955    3.637615   -2.163280
    102          6           0       -6.645058    5.105604   -3.328925
    103          7           0       -6.207464   -0.634168    0.396691
    104          6           0       -7.164227    0.276390    0.144850
    105          6           0       -8.511583   -0.198475    0.634286
    106          6           0       -8.302261   -1.727892    1.052190
    107          6           0       -6.782774   -1.852107    0.804959
    108          6           0       -9.101394    0.574888    1.813447
    109          6           0       -9.245822   -2.772408    0.395388
    110          6           0       -8.954240   -2.872675   -1.084584
    111          7           0       -3.896592   -2.421710    0.352835
    112          6           0       -4.796197   -3.280086    1.022149
    113          6           0       -4.020396   -4.449508    1.483670
    114          6           0       -2.708410   -4.177347    1.067622
    115          6           0       -2.665565   -2.917223    0.412061
    116          6           0       -4.534860   -5.547386    2.229401
    117          6           0       -1.348011   -4.664617    1.043287
    118          8           0       -0.795296   -5.714297    1.369486
    119          6           0       -0.395471   -3.480809    0.576750
    120          6           0        0.529552   -4.018176   -0.480643
    121          8           0        0.083289   -4.395336   -1.578459
    122          8           0        1.802770   -3.796605   -0.106227
    123          6           0        2.757651   -4.302241   -1.128156
    124          1           0       -1.730611    3.165984   -0.908726
    125          1           0       -7.845627    1.915990   -0.672944
    126          1           0       -6.644307   -3.803977    1.623470
    127          1           0        1.077964   -0.735352    0.216320
    128          1           0        0.432858    1.743241   -0.957354
    129          1           0        0.291756    0.732595    1.853132
    130          1           0       -0.881646    2.006555    1.460092
    131          1           0        0.808782    2.355963    1.259968
    132          1           0        0.308346    0.025625   -2.611113
    133          1           0        0.565109   -1.717536   -2.236086
    134          1           0        2.816635   -0.266266   -1.270702
    135          1           0        2.318609    0.580397   -2.691977
    136          1           0       -2.526113    4.675406   -2.145480
    137          1           0       -3.998853    5.561897   -1.934823
    138          1           0       -3.705257    4.804332   -3.518069
    139          1           0       -6.052245    5.822692   -2.766062
    140          1           0       -7.609547    5.451204   -3.706017
    141          1           0       -6.022476    4.770824   -4.166133
    142          1           0       -9.249999   -0.148151   -0.156478
    143          1           0       -8.458795   -1.880831    2.130119
    144          1           0      -10.101634    0.997665    1.601634
    145          1           0       -8.407968    1.358346    2.088913
    146          1           0       -9.189930    0.008752    2.739098
    147          1           0      -10.286679   -2.452072    0.485646
    148          1           0       -9.173036   -3.759627    0.839330
    149          1           0       -9.524103   -2.038862   -1.505422
    150          1           0       -9.299743   -3.825988   -1.479363
    151          1           0       -7.894103   -2.684578   -1.290471
    152          1           0       -4.113382   -6.443913    1.794555
    153          1           0       -5.622477   -5.567673    2.208096
    154          1           0       -4.148189   -5.306404    3.223225
    155          1           0        0.147005   -3.130977    1.455905
    156          1           0        3.435492   -4.993411   -0.617759
    157          1           0        3.207947   -3.402247   -1.587481
    158          1           0        2.362199   -4.935373   -1.913796
 ---------------------------------------------------------------------

 SCF Done:  E(RCAM-B3LYP) =  -4067.91415751     A.U. after   26 cycles

 Excitation energies and oscillator strengths:

 Excited State   1:      Singlet-A      0.6422 eV 1930.73 nm  f=0.0722  <S**2>=0.000
     312 -> 313        0.67107
     312 -> 314        0.26837
     312 -> 317       -0.13417
     312 <- 313       -0.22572
 This state for optimization and/or second-order correction.
 Total Energy, E(TD-HF/TD-DFT) =  -4067.89055848
 Copying the excited state density for this state as the 1-particle RhoCI density.

 Excited State   2:      Singlet-A      1.0062 eV 1232.19 nm  f=0.0002  <S**2>=0.000
     312 -> 313       -0.26386
     312 -> 314        0.65445

 Excited State   3:      Singlet-A      1.5321 eV  809.23 nm  f=0.0738  <S**2>=0.000
     309 -> 315       -0.11413
     310 -> 314        0.23814
     311 -> 313        0.60828
     311 -> 314        0.18570
     312 -> 315       -0.10314

 Excited State   4:      Singlet-A      1.6682 eV  743.21 nm  f=0.4294  <S**2>=0.000
     308 -> 316        0.13643
     310 -> 313       -0.28078
     310 -> 314        0.56422
     311 -> 313       -0.12225
     311 -> 314       -0.20125
     312 -> 315        0.10262

 Excited State   5:      Singlet-A      1.8162 eV  682.66 nm  f=0.1359  <S**2>=0.000
     309 -> 313        0.10001
     312 -> 315        0.42589
     312 -> 316        0.10961
     312 -> 317        0.15169
     312 -> 319       -0.38552
     312 -> 320       -0.15135
     312 -> 323       -0.10991
     312 -> 326       -0.19401

 The electronic state is 1-A.
 Alpha  occ. eigenvalues --  -46.87338 -46.87208 -19.46509 -19.28063 -19.24909
 Alpha  occ. eigenvalues --  -19.20821 -19.18499 -19.18234 -19.17953 -19.17879
 Alpha  occ. eigenvalues --  -14.41983 -14.41720 -14.41085 -14.39966 -14.39047
 Alpha  occ. eigenvalues --  -14.38461 -14.38335 -14.38335 -10.43880 -10.40498
 Alpha  occ. eigenvalues --  -10.35178 -10.34569 -10.34300 -10.34183 -10.34042
 Alpha  occ. eigenvalues --  -10.33954 -10.32703 -10.31605 -10.31588 -10.31083
 Alpha  occ. eigenvalues --  -10.30884 -10.30820 -10.30486 -10.30122 -10.30051
 Alpha  occ. eigenvalues --  -10.29868 -10.29633 -10.29497 -10.29483 -10.29453
 Alpha  occ. eigenvalues --  -10.29383 -10.29278 -10.29163 -10.29129 -10.28907
 Alpha  occ. eigenvalues --  -10.28744 -10.28374 -10.28232 -10.28179 -10.27777
 Alpha  occ. eigenvalues --  -10.27375 -10.27311 -10.27300 -10.27279 -10.27257
 Alpha  occ. eigenvalues --  -10.27213 -10.27211 -10.27204 -10.27201 -10.27164
 Alpha  occ. eigenvalues --  -10.27055 -10.26882 -10.26854 -10.26812 -10.26778
 Alpha  occ. eigenvalues --  -10.26693 -10.26361 -10.26242 -10.25983 -10.25909
 Alpha  occ. eigenvalues --  -10.25681 -10.25673 -10.25651 -10.25333 -10.25282
 Alpha  occ. eigenvalues --  -10.25189 -10.24943 -10.24784 -10.24671 -10.24608
 Alpha  occ. eigenvalues --  -10.24439 -10.24422 -10.24335 -10.24229 -10.23497
 Alpha  occ. eigenvalues --  -10.18742  -3.16089  -3.15889  -1.90973  -1.90771
 Alpha  occ. eigenvalues --   -1.90558  -1.90399  -1.90364  -1.90201  -1.77252
 Alpha  occ. eigenvalues --   -1.21653  -1.18663  -1.14882  -1.09256  -1.09052
 Alpha  occ. eigenvalues --   -1.08274  -1.06753  -1.06338  -1.05310  -1.04054
 Alpha  occ. eigenvalues --   -1.03296  -1.02981  -1.02768  -1.02645  -1.02473
 Alpha  occ. eigenvalues --   -1.01826  -1.01677  -0.95723  -0.92875  -0.91852
 Alpha  occ. eigenvalues --   -0.91350  -0.89289  -0.89047  -0.88784  -0.88295
 Alpha  occ. eigenvalues --   -0.87956  -0.87548  -0.87533  -0.87300  -0.86976
 Alpha  occ. eigenvalues --   -0.86856  -0.86447  -0.86180  -0.83981  -0.83688
 Alpha  occ. eigenvalues --   -0.83448  -0.83019  -0.82701  -0.82354  -0.81895
 Alpha  occ. eigenvalues --   -0.81727  -0.80875  -0.80606  -0.79758  -0.79227
 Alpha  occ. eigenvalues --   -0.78367  -0.78303  -0.77972  -0.77261  -0.76575
 Alpha  occ. eigenvalues --   -0.76026  -0.75223  -0.74531  -0.74286  -0.73602
 Alpha  occ. eigenvalues --   -0.72378  -0.72289  -0.71444  -0.70870  -0.69463
 Alpha  occ. eigenvalues --   -0.69316  -0.68455  -0.68035  -0.67172  -0.67123
 Alpha  occ. eigenvalues --   -0.66494  -0.65527  -0.64958  -0.64515  -0.64342
 Alpha  occ. eigenvalues --   -0.64081  -0.63855  -0.63690  -0.63310  -0.62063
 Alpha  occ. eigenvalues --   -0.61804  -0.60422  -0.60117  -0.59719  -0.59605
 Alpha  occ. eigenvalues --   -0.59168  -0.58695  -0.58583  -0.58114  -0.57912
 Alpha  occ. eigenvalues --   -0.57605  -0.57120  -0.57000  -0.56738  -0.56189
 Alpha  occ. eigenvalues --   -0.55929  -0.55872  -0.55504  -0.55174  -0.55099
 Alpha  occ. eigenvalues --   -0.54875  -0.54686  -0.54485  -0.54000  -0.53951
 Alpha  occ. eigenvalues --   -0.53655  -0.53115  -0.52884  -0.52761  -0.52607
 Alpha  occ. eigenvalues --   -0.52355  -0.52260  -0.52149  -0.52115  -0.51888
 Alpha  occ. eigenvalues --   -0.51686  -0.51503  -0.51161  -0.50956  -0.50873
 Alpha  occ. eigenvalues --   -0.50622  -0.50310  -0.50230  -0.50038  -0.49881
 Alpha  occ. eigenvalues --   -0.49803  -0.49635  -0.49513  -0.49395  -0.49217
 Alpha  occ. eigenvalues --   -0.49118  -0.48860  -0.48765  -0.48579  -0.48278
 Alpha  occ. eigenvalues --   -0.48142  -0.47972  -0.47835  -0.47551  -0.47367
 Alpha  occ. eigenvalues --   -0.47149  -0.46796  -0.46724  -0.46593  -0.46453
 Alpha  occ. eigenvalues --   -0.46217  -0.46074  -0.45992  -0.45872  -0.45753
 Alpha  occ. eigenvalues --   -0.45418  -0.45330  -0.45193  -0.45092  -0.44925
 Alpha  occ. eigenvalues --   -0.44714  -0.44436  -0.44285  -0.44098  -0.43968
 Alpha  occ. eigenvalues --   -0.43930  -0.43821  -0.43654  -0.43451  -0.43327
 Alpha  occ. eigenvalues --   -0.43283  -0.43083  -0.42953  -0.42587  -0.42427
 Alpha  occ. eigenvalues --   -0.42278  -0.42145  -0.42101  -0.41971  -0.41792
 Alpha  occ. eigenvalues --   -0.41755  -0.41392  -0.41245  -0.41083  -0.41007
 Alpha  occ. eigenvalues --   -0.40786  -0.40664  -0.40397  -0.40289  -0.40078
 Alpha  occ. eigenvalues --   -0.39945  -0.39475  -0.39320  -0.39161  -0.38801
 Alpha  occ. eigenvalues --   -0.38544  -0.38048  -0.37678  -0.37097  -0.37041
 Alpha  occ. eigenvalues --   -0.36821  -0.36591  -0.36146  -0.35996  -0.35289
 Alpha  occ. eigenvalues --   -0.34672  -0.33893  -0.33707  -0.32905  -0.32034
 Alpha  occ. eigenvalues --   -0.31297  -0.31062  -0.30855  -0.30625  -0.30385
 Alpha  occ. eigenvalues --   -0.29976  -0.29697  -0.29105  -0.29057  -0.28967
 Alpha  occ. eigenvalues --   -0.28452  -0.26543  -0.23767  -0.23691  -0.20771
 Alpha  occ. eigenvalues --   -0.20664  -0.16151
 Alpha virt. eigenvalues --   -0.08571  -0.08516  -0.01523  -0.01368   0.00014
 Alpha virt. eigenvalues --    0.00252   0.01460   0.02000   0.02398   0.03422
 Alpha virt. eigenvalues --    0.03560   0.04383   0.05357   0.05644   0.06323

 Mulliken charges:
               1
     1  Mg   0.646911
     2  C   -0.048054
     3  C   -0.089416
     4  C   -0.058204
     5  C   -0.074947
     6  N   -0.273561
     7  C   -0.090526
     8  C   -0.074342
     9  C   -0.057712
    10  C    0.030778
    11  C    0.108547
    12  C    0.273233
    13  C   -0.014499
    14  H    0.057284
    15  N   -0.424064
    16  C    0.158262
    17  C   -0.183990
    18  C   -0.018714
    19  C    0.143581
    20  C    0.112661
    21  C    0.004981
    22  O   -0.254729
    23  C    0.065248
    24  N   -0.322167
    25  C    0.042991
    26  C   -0.023874
    27  C   -0.025309
    28  C    0.082075
    29  C    0.077839
    30  C    0.036293
    31  C   -0.001679
    32  N   -0.302966
    33  C    0.077624
    34  C   -0.197022
    35  C    0.081328
    36  C    0.084594
    37  C    0.128335
    38  C    0.019367
    39  O   -0.195355
    40  C   -0.022005
    41  C   -0.278310
    42  O    0.858102
    43  O   -0.290635
    44  C    0.150723
    45  H   -0.024773
    46  H   -0.023043
    47  H   -0.047716
    48  H    0.006362
    49  H   -0.009772
    50  H    0.025108
    51  H    0.026166
    52  H    0.015361
    53  H    0.045205
    54  H   -0.017302
    55  H    0.032147
    56  H    0.033692
    57  H   -0.000653
    58  H    0.022900
    59  H    0.031222
    60  H    0.036476
    61  H    0.031875
    62  H    0.023792
    63  H    0.013215
    64  H    0.008004
    65  H    0.020722
    66  H    0.012781
    67  H    0.002249
    68  H    0.004759
    69  H    0.003293
    70  H    0.008025
    71  H    0.016145
    72  H    0.023572
    73  H    0.046912
    74  H    0.008217
    75  H    0.042804
    76  H    0.054108
    77  H    0.059294
    78  H    0.046754
    79  H    0.009498
    80  Mg   0.835374
    81  C   -0.024581
    82  C   -0.089899
    83  C   -0.045836
    84  C   -0.065496
    85  N   -0.258475
    86  C   -0.032333
    87  C   -0.043409
    88  C   -0.125898
    89  C    0.060913
    90  C    0.066847
    91  C    0.166735
    92  C   -0.409804
    93  H    0.100701
    94  N   -0.423739
    95  C    0.163082
    96  C   -0.173449
    97  C   -0.008446
    98  C    0.152418
    99  C    0.098859
   100  C    0.015087
   101  O   -0.253756
   102  C    0.061553
   103  N   -0.349806
   104  C    0.037434
   105  C   -0.019792
   106  C   -0.034483
   107  C    0.088361
   108  C    0.073724
   109  C    0.034968
   110  C   -0.007430
   111  N   -0.323636
   112  C    0.077673
   113  C   -0.164016
   114  C    0.003067
   115  C    0.095656
   116  C    0.131748
   117  C    0.039249
   118  O   -0.185454
   119  C   -0.000658
   120  C    0.251992
   121  O   -0.244669
   122  O   -0.279558
   123  C   -0.155065
   124  H   -0.012620
   125  H   -0.016221
   126  H   -0.041538
   127  H    0.016535
   128  H    0.035413
   129  H    0.060827
   130  H    0.012343
   131  H    0.083734
   132  H   -0.019113
   133  H   -0.024645
   134  H    0.128423
   135  H    0.008992
   136  H    0.009944
   137  H    0.027361
   138  H    0.036990
   139  H    0.038880
   140  H    0.035540
   141  H    0.032530
   142  H    0.013592
   143  H    0.012019
   144  H    0.024502
   145  H    0.012360
   146  H    0.005307
   147  H    0.005734
   148  H    0.003165
   149  H    0.010608
   150  H    0.016906
   151  H    0.029987
   152  H    0.045029
   153  H    0.008029
   154  H    0.046704
   155  H    0.044818
   156  H    0.115118
   157  H   -0.027880
   158  H   -0.121205
 Sum of Mulliken charges =  -0.00000

 Dipole moment (field-independent basis, Debye):
    X=              2.6974    Y=              2.4212    Z=             -6.4926  Tot=              7.4358
 Quadrupole moment (field-independent basis, Debye-Ang):
   XX=           -506.6467   YY=           -558.3715   ZZ=           -463.6466
   XY=             25.1611   XZ=            -42.2561   YZ=             -5.8510

 Normal termination of Gaussian 16 at Thu Sep  9 03:21:47 2021.
