 Gaussian 16, Revision A.03,
 Gaussian 16:  ES64L-G16RevA.03 25-Dec-2016

 -----------------------------------
 #p cam-b3lyp/Def2SVP td=(nstates=5)
 -----------------------------------

 --------------------------------
 TDDFT excited states in gaussian
 --------------------------------
 Symbolic Z-matrix:
 Charge =  0 Multiplicity = 1

                         Standard orientation:
 ---------------------------------------------------------------------
 Center     Atomic      Atomic             Coordinates (Angstroms)
 Number     Number       Type             X           Y           Z
 ---------------------------------------------------------------------
      1         12           0       -5.216351   -0.687813   -0.155978
      2          6           0       -5.434277    2.679978    1.036794
      3          6           0       -5.939630    0.523375   -3.262898
      4          6           0       -5.477691   -3.689102   -1.146223
      5          6           0       -5.637336   -1.727413    3.143669
      6          7           0       -5.613761    1.361420   -0.893102
      7          6           0       -5.608236    2.572416   -0.344805
      8          6           0       -5.729373    3.723414   -1.387831
      9          6           0       -6.439343    2.920062   -2.567901
     10          6           0       -5.940609    1.522636   -2.244808
     11          6           0       -7.962165    2.930225   -2.481804
     12          6           0       -4.332075    4.274739   -1.829793
     13          6           0       -4.364648    5.604334   -2.589049
     14          1           0       -3.286510    6.558320   -2.377208
     15          7           0       -5.163138   -1.444283   -1.980196
     16          6           0       -5.474014   -0.802901   -3.132268
     17          6           0       -5.276972   -1.790884   -4.214739
     18          6           0       -5.009531   -3.112178   -3.581689
     19          6           0       -5.234926   -2.802710   -2.192875
     20          6           0       -5.302381   -1.433856   -5.669262
     21          6           0       -4.623876   -4.445118   -4.140861
     22          8           0       -4.667902   -5.514570   -3.441642
     23          6           0       -4.273309   -4.480526   -5.572256
     24          7           0       -5.733539   -2.462942    0.813079
     25          6           0       -5.712464   -3.633573    0.166425
     26          6           0       -5.839778   -4.785649    1.118502
     27          6           0       -5.708082   -4.164855    2.583775
     28          6           0       -5.603783   -2.668745    2.197711
     29          6           0       -7.141436   -5.593296    1.021529
     30          6           0       -4.618666   -4.766068    3.506886
     31          6           0       -3.246389   -4.434734    2.964510
     32          7           0       -5.312422    0.271629    1.788575
     33          6           0       -5.515753   -0.352769    3.027711
     34          6           0       -5.613189    0.715764    4.039053
     35          6           0       -5.475442    1.895897    3.310935
     36          6           0       -5.329173    1.585312    1.928751
     37          6           0       -5.862976    0.529023    5.427278
     38          6           0       -5.442472    3.347978    3.375987
     39          8           0       -5.424543    4.174926    4.288855
     40          6           0       -5.536640    3.918282    1.892170
     41          6           0       -4.469780    4.968050    1.740166
     42          8           0       -3.260741    4.660068    1.767328
     43          8           0       -5.033763    6.122108    1.352074
     44          6           0       -4.026259    7.198209    1.154349
     45          1           0       -6.388960    0.755263   -4.230509
     46          1           0       -5.464861   -4.743522   -1.429900
     47          1           0       -5.683967   -1.979140    4.204759
     48          1           0       -6.358086    4.556865   -1.073979
     49          1           0       -6.079601    3.233699   -3.547666
     50          1           0       -8.305540    3.379899   -1.550242
     51          1           0       -8.263583    1.883803   -2.533199
     52          1           0       -8.396531    3.410587   -3.358933
     53          1           0       -3.919488    3.628668   -2.604664
     54          1           0       -3.664344    4.365480   -0.972339
     55          1           0       -5.333484    6.095098   -2.492008
     56          1           0       -4.274218    5.391633   -3.654310
     57          1           0       -5.685090   -0.426400   -5.827725
     58          1           0       -6.039146   -2.082002   -6.143384
     59          1           0       -4.330675   -1.573627   -6.143165
     60          1           0       -5.120344   -4.124633   -6.159130
     61          1           0       -3.938549   -5.497267   -5.774796
     62          1           0       -3.458369   -3.779155   -5.753643
     63          1           0       -5.041295   -5.510308    0.964489
     64          1           0       -6.629669   -4.269788    3.156786
     65          1           0       -6.984592   -6.655543    0.832486
     66          1           0       -7.759216   -5.144767    0.244058
     67          1           0       -7.794555   -5.513671    1.890155
     68          1           0       -4.700017   -5.852209    3.531883
     69          1           0       -4.677721   -4.405342    4.533843
     70          1           0       -3.084868   -5.212691    2.219174
     71          1           0       -2.499863   -4.492596    3.757330
     72          1           0       -3.245144   -3.477803    2.442240
     73          1           0       -5.179706    1.196217    5.952600
     74          1           0       -5.707695   -0.508737    5.721462
     75          1           0       -6.909519    0.827595    5.486094
     76          1           0       -6.537882    4.332692    1.778581
     77          1           0       -4.325355    8.037312    1.782587
     78          1           0       -3.961744    7.368609    0.079544
     79          1           0       -3.025868    6.998696    1.540033
     80         12           0        5.363499   -0.807129    0.310030
     81          6           0        5.233419    2.684428   -0.509228
     82          6           0        4.624483   -1.448425   -2.957570
     83          6           0        5.026506   -3.864295    1.089513
     84          6           0        4.956749    0.103470    3.649352
     85          7           0        4.999569    0.529234   -1.414481
     86          6           0        5.037486    1.837201   -1.619740
     87          6           0        4.935268    2.257536   -3.110526
     88          6           0        4.185294    0.955274   -3.676670
     89          6           0        4.655623   -0.066269   -2.643266
     90          6           0        2.670703    1.051318   -3.598297
     91          6           0        6.343535    2.444482   -3.776751
     92          6           0        6.324084    3.150308   -5.134385
     93          1           0        7.432050    4.039433   -5.472548
     94          7           0        5.379905   -2.432235   -0.828980
     95          6           0        5.074599   -2.509270   -2.141283
     96          6           0        5.219647   -3.927166   -2.505529
     97          6           0        5.475344   -4.706665   -1.263867
     98          6           0        5.278866   -3.678311   -0.261886
     99          6           0        5.191988   -4.409089   -3.926945
    100          6           0        5.824694   -6.143250   -1.018162
    101          8           0        5.767268   -6.659249    0.153709
    102          6           0        6.145682   -6.951846   -2.203332
    103          7           0        4.827727   -1.760620    2.078130
    104          6           0        4.809031   -3.102483    2.161730
    105          6           0        4.665282   -3.557813    3.594346
    106          6           0        4.835047   -2.239287    4.483313
    107          6           0        4.964315   -1.189939    3.357455
    108          6           0        3.344116   -4.241534    3.945676
    109          6           0        5.923309   -2.272693    5.591115
    110          6           0        7.297209   -2.332776    4.963284
    111          7           0        5.319192    1.044153    1.423069
    112          6           0        5.111000    1.200182    2.811016
    113          6           0        5.051057    2.651211    3.081847
    114          6           0        5.206761    3.243084    1.819331
    115          6           0        5.333166    2.232024    0.828730
    116          6           0        4.825653    3.251660    4.352585
    117          6           0        5.282292    4.493145    1.097997
    118          8           0        5.323387    5.680175    1.418948
    119          6           0        5.176178    4.185995   -0.457894
    120          6           0        6.264336    4.952955   -1.158023
    121          8           0        7.460653    4.680644   -0.954881
    122          8           0        5.714193    5.729074   -2.109529
    123          6           0        6.754882    6.501276   -2.839245
    124          1           0        4.174224   -1.755733   -3.901872
    125          1           0        5.011565   -4.902966    1.427798
    126          1           0        4.930435    0.469649    4.677893
    127          1           0        4.335363    3.140990   -3.293287
    128          1           0        4.547033    0.690303   -4.666771
    129          1           0        2.350048    1.933434   -3.064260
    130          1           0        2.345578    0.157499   -3.082146
    131          1           0        2.237038    0.995018   -4.600842
    132          1           0        6.728926    1.462782   -4.080868
    133          1           0        7.014032    2.955413   -3.113423
    134          1           0        5.363359    3.642092   -5.329559
    135          1           0        6.402671    2.394476   -5.919600
    136          1           0        4.822759   -3.632334   -4.607922
    137          1           0        4.436165   -5.200033   -3.981763
    138          1           0        6.152158   -4.814585   -4.252980
    139          1           0        5.300620   -6.940977   -2.887599
    140          1           0        6.455550   -7.925136   -1.817882
    141          1           0        6.983660   -6.482422   -2.730632
    142          1           0        5.445814   -4.261408    3.856678
    143          1           0        3.913972   -1.997671    5.033847
    144          1           0        3.476050   -5.257105    4.364339
    145          1           0        2.729373   -4.273918    3.055973
    146          1           0        2.712228   -3.694492    4.643301
    147          1           0        5.819227   -3.176055    6.197124
    148          1           0        5.878303   -1.424864    6.266507
    149          1           0        7.426132   -3.398771    4.753218
    150          1           0        8.052509   -1.973478    5.659332
    151          1           0        7.314902   -1.803197    4.003652
    152          1           0        5.523187    4.074429    4.436294
    153          1           0        4.956920    2.534430    5.160126
    154          1           0        3.782084    3.557964    4.241212
    155          1           0        4.182474    4.493841   -0.785556
    156          1           0        6.479471    7.557837   -2.765104
    157          1           0        6.796838    6.061634   -3.853493
    158          1           0        7.754827    6.513567   -2.421625
 ---------------------------------------------------------------------

 SCF Done:  E(RCAM-B3LYP) =  -4069.81154646     A.U. after   19 cycles

 Excitation energies and oscillator strengths:

 Excited State   1:      Singlet-A      1.6593 eV  747.19 nm  f=0.0614  <S**2>=0.000
     309 -> 315       -0.11423
     310 -> 316        0.12562
     311 -> 313       -0.46074
     312 -> 314        0.50944
 This state for optimization and/or second-order correction.
 Total Energy, E(TD-HF/TD-DFT) =  -4069.75056650
 Copying the excited state density for this state as the 1-particle RhoCI density.

 Excited State   2:      Singlet-A      1.6935 eV  732.13 nm  f=0.6507  <S**2>=0.000
     309 -> 315        0.13267
     310 -> 316        0.11975
     311 -> 313        0.50783
     312 -> 314        0.45942

 Excited State   3:      Singlet-A      2.1841 eV  567.66 nm  f=0.0351  <S**2>=0.000
     309 -> 313       -0.28308
     310 -> 314        0.57779
     311 -> 315        0.11872
     312 -> 316       -0.24424

 Excited State   4:      Singlet-A      2.1929 eV  565.38 nm  f=0.1520  <S**2>=0.000
     309 -> 313        0.57504
     310 -> 314        0.28054
     311 -> 315       -0.25080
     312 -> 316       -0.12329

 Excited State   5:      Singlet-A      2.4854 eV  498.85 nm  f=0.0000  <S**2>=0.000
     312 -> 313        0.70709

 The electronic state is 1-A.
 Alpha  occ. eigenvalues --  -46.87873 -46.87496 -19.26262 -19.26249 -19.19045
 Alpha  occ. eigenvalues --  -19.19011 -19.18924 -19.18565 -19.18220 -19.17870
 Alpha  occ. eigenvalues --  -14.42525 -14.42342 -14.41522 -14.41195 -14.39484
 Alpha  occ. eigenvalues --  -14.39189 -14.38660 -14.38425 -10.39076 -10.38970
 Alpha  occ. eigenvalues --  -10.35561 -10.35245 -10.34437 -10.34048 -10.31687
 Alpha  occ. eigenvalues --  -10.31617 -10.31474 -10.31152 -10.30986 -10.30884
 Alpha  occ. eigenvalues --  -10.30643 -10.30582 -10.30288 -10.30221 -10.30186
 Alpha  occ. eigenvalues --  -10.29986 -10.29984 -10.29720 -10.29712 -10.29341
 Alpha  occ. eigenvalues --  -10.29272 -10.29227 -10.28812 -10.28617 -10.28613
 Alpha  occ. eigenvalues --  -10.28585 -10.28441 -10.28241 -10.28184 -10.28039
 Alpha  occ. eigenvalues --  -10.27871 -10.27824 -10.27806 -10.27673 -10.27610
 Alpha  occ. eigenvalues --  -10.27564 -10.27519 -10.27507 -10.27472 -10.27364
 Alpha  occ. eigenvalues --  -10.27341 -10.27323 -10.27298 -10.27229 -10.27195
 Alpha  occ. eigenvalues --  -10.26884 -10.26770 -10.26615 -10.26567 -10.26294
 Alpha  occ. eigenvalues --  -10.26288 -10.26241 -10.26095 -10.25998 -10.25939
 Alpha  occ. eigenvalues --  -10.25911 -10.25763 -10.25583 -10.25488 -10.25264
 Alpha  occ. eigenvalues --  -10.24906 -10.24860 -10.24742 -10.24688 -10.24602
 Alpha  occ. eigenvalues --  -10.24527  -3.16616  -3.16246  -1.91498  -1.91128
 Alpha  occ. eigenvalues --   -1.91084  -1.90926  -1.90717  -1.90553  -1.16614
 Alpha  occ. eigenvalues --   -1.16539  -1.08671  -1.08478  -1.07326  -1.06829
 Alpha  occ. eigenvalues --   -1.06819  -1.06634  -1.04655  -1.04341  -1.03835
 Alpha  occ. eigenvalues --   -1.03501  -1.03310  -1.02871  -1.02486  -1.01943
 Alpha  occ. eigenvalues --   -0.92034  -0.91822  -0.89586  -0.89337  -0.89254
 Alpha  occ. eigenvalues --   -0.89042  -0.88351  -0.88069  -0.87944  -0.87747
 Alpha  occ. eigenvalues --   -0.87596  -0.87531  -0.87379  -0.86968  -0.85050
 Alpha  occ. eigenvalues --   -0.84879  -0.83994  -0.83730  -0.83077  -0.82791
 Alpha  occ. eigenvalues --   -0.82714  -0.82529  -0.81616  -0.81459  -0.80654
 Alpha  occ. eigenvalues --   -0.80299  -0.78890  -0.78471  -0.77289  -0.77008
 Alpha  occ. eigenvalues --   -0.76982  -0.76774  -0.75973  -0.75709  -0.74954
 Alpha  occ. eigenvalues --   -0.74661  -0.72847  -0.72529  -0.71735  -0.71437
 Alpha  occ. eigenvalues --   -0.69968  -0.69615  -0.68944  -0.68701  -0.67713
 Alpha  occ. eigenvalues --   -0.67449  -0.67297  -0.67084  -0.65348  -0.65147
 Alpha  occ. eigenvalues --   -0.64910  -0.64674  -0.64619  -0.64520  -0.64333
 Alpha  occ. eigenvalues --   -0.64054  -0.62316  -0.62148  -0.60534  -0.60185
 Alpha  occ. eigenvalues --   -0.59874  -0.59665  -0.59053  -0.58836  -0.58567
 Alpha  occ. eigenvalues --   -0.58272  -0.57624  -0.57397  -0.57370  -0.57080
 Alpha  occ. eigenvalues --   -0.56386  -0.56043  -0.55995  -0.55769  -0.55602
 Alpha  occ. eigenvalues --   -0.55384  -0.55310  -0.55102  -0.54555  -0.54355
 Alpha  occ. eigenvalues --   -0.53960  -0.53803  -0.53382  -0.53295  -0.53073
 Alpha  occ. eigenvalues --   -0.53008  -0.52965  -0.52849  -0.52772  -0.52539
 Alpha  occ. eigenvalues --   -0.52496  -0.52259  -0.51981  -0.51690  -0.51655
 Alpha  occ. eigenvalues --   -0.51538  -0.51251  -0.51047  -0.50697  -0.50342
 Alpha  occ. eigenvalues --   -0.50102  -0.50013  -0.49852  -0.49722  -0.49592
 Alpha  occ. eigenvalues --   -0.49353  -0.49283  -0.49157  -0.49061  -0.48962
 Alpha  occ. eigenvalues --   -0.48640  -0.48550  -0.48502  -0.48418  -0.48226
 Alpha  occ. eigenvalues --   -0.48195  -0.47766  -0.47462  -0.47369  -0.46976
 Alpha  occ. eigenvalues --   -0.46864  -0.46620  -0.46564  -0.46439  -0.46427
 Alpha  occ. eigenvalues --   -0.46215  -0.46115  -0.45921  -0.45863  -0.45663
 Alpha  occ. eigenvalues --   -0.45264  -0.45064  -0.44635  -0.44590  -0.44385
 Alpha  occ. eigenvalues --   -0.44331  -0.44216  -0.44157  -0.44081  -0.43990
 Alpha  occ. eigenvalues --   -0.43934  -0.43794  -0.43529  -0.43453  -0.43425
 Alpha  occ. eigenvalues --   -0.43248  -0.43089  -0.42803  -0.42747  -0.42745
 Alpha  occ. eigenvalues --   -0.42664  -0.42406  -0.42068  -0.41831  -0.41766
 Alpha  occ. eigenvalues --   -0.41599  -0.41513  -0.41338  -0.41206  -0.40945
 Alpha  occ. eigenvalues --   -0.40916  -0.40852  -0.40632  -0.40599  -0.40576
 Alpha  occ. eigenvalues --   -0.40350  -0.40304  -0.40131  -0.39501  -0.39282
 Alpha  occ. eigenvalues --   -0.38532  -0.38211  -0.37810  -0.37553  -0.37387
 Alpha  occ. eigenvalues --   -0.37330  -0.37117  -0.37062  -0.36729  -0.36654
 Alpha  occ. eigenvalues --   -0.36230  -0.36078  -0.34358  -0.34092  -0.33778
 Alpha  occ. eigenvalues --   -0.33736  -0.33253  -0.33012  -0.31451  -0.31125
 Alpha  occ. eigenvalues --   -0.31106  -0.30815  -0.30076  -0.29775  -0.29537
 Alpha  occ. eigenvalues --   -0.29396  -0.29160  -0.29023  -0.24153  -0.23870
 Alpha  occ. eigenvalues --   -0.21204  -0.20952
 Alpha virt. eigenvalues --   -0.08854  -0.08623  -0.01827  -0.01523  -0.00149
 Alpha virt. eigenvalues --    0.00125   0.02136   0.02389   0.03025   0.03379
 Alpha virt. eigenvalues --    0.04651   0.04867   0.05093   0.05290   0.06130

 Mulliken charges:
               1
     1  Mg   0.838549
     2  C   -0.002866
     3  C   -0.094618
     4  C   -0.045786
     5  C   -0.064057
     6  N   -0.256754
     7  C   -0.052418
     8  C   -0.013900
     9  C   -0.086900
    10  C    0.046183
    11  C    0.104813
    12  C    0.053621
    13  C   -0.072121
    14  H    0.037209
    15  N   -0.433063
    16  C    0.168134
    17  C   -0.177704
    18  C   -0.004350
    19  C    0.148644
    20  C    0.110282
    21  C    0.011930
    22  O   -0.249352
    23  C    0.062811
    24  N   -0.341179
    25  C    0.041212
    26  C   -0.028233
    27  C   -0.024077
    28  C    0.075090
    29  C    0.076105
    30  C    0.035072
    31  C   -0.004460
    32  N   -0.310565
    33  C    0.080664
    34  C   -0.169732
    35  C    0.008567
    36  C    0.083110
    37  C    0.127293
    38  C    0.046302
    39  O   -0.187713
    40  C   -0.005313
    41  C    0.212924
    42  O   -0.256712
    43  O   -0.305032
    44  C    0.157135
    45  H   -0.017722
    46  H   -0.016751
    47  H   -0.041401
    48  H    0.001320
    49  H   -0.004361
    50  H    0.025675
    51  H    0.016423
    52  H    0.016683
    53  H    0.010128
    54  H    0.044552
    55  H    0.018168
    56  H    0.017260
    57  H    0.005838
    58  H    0.026948
    59  H    0.038052
    60  H    0.037604
    61  H    0.035353
    62  H    0.029966
    63  H    0.016804
    64  H    0.009608
    65  H    0.023394
    66  H    0.012501
    67  H    0.004859
    68  H    0.006749
    69  H    0.004543
    70  H    0.009511
    71  H    0.017657
    72  H    0.028817
    73  H    0.047690
    74  H    0.009030
    75  H    0.046301
    76  H    0.035294
    77  H    0.043406
    78  H    0.046240
    79  H    0.055113
    80  Mg   0.838183
    81  C   -0.016548
    82  C   -0.087987
    83  C   -0.045309
    84  C   -0.063773
    85  N   -0.254438
    86  C   -0.049482
    87  C   -0.015068
    88  C   -0.090638
    89  C    0.045805
    90  C    0.114486
    91  C    0.062661
    92  C   -0.077464
    93  H    0.034486
    94  N   -0.423422
    95  C    0.162730
    96  C   -0.174820
    97  C   -0.007880
    98  C    0.151883
    99  C    0.099453
   100  C    0.015535
   101  O   -0.253514
   102  C    0.061249
   103  N   -0.349820
   104  C    0.037381
   105  C   -0.019772
   106  C   -0.035009
   107  C    0.089021
   108  C    0.073691
   109  C    0.034714
   110  C   -0.007591
   111  N   -0.324438
   112  C    0.078771
   113  C   -0.161644
   114  C    0.003062
   115  C    0.096380
   116  C    0.130893
   117  C    0.043551
   118  O   -0.187660
   119  C    0.000448
   120  C    0.211013
   121  O   -0.251239
   122  O   -0.305655
   123  C    0.152200
   124  H   -0.020786
   125  H   -0.015856
   126  H   -0.039843
   127  H   -0.000973
   128  H   -0.005237
   129  H    0.023607
   130  H    0.014878
   131  H    0.013960
   132  H    0.013864
   133  H    0.037753
   134  H    0.020149
   135  H    0.019128
   136  H    0.007862
   137  H    0.026108
   138  H    0.039231
   139  H    0.038367
   140  H    0.036045
   141  H    0.033516
   142  H    0.014029
   143  H    0.013104
   144  H    0.024367
   145  H    0.012076
   146  H    0.005430
   147  H    0.005837
   148  H    0.003944
   149  H    0.010670
   150  H    0.017714
   151  H    0.030165
   152  H    0.045416
   153  H    0.008190
   154  H    0.050795
   155  H    0.036080
   156  H    0.043505
   157  H    0.048993
   158  H    0.053493
 Sum of Mulliken charges =  -0.00000

 Dipole moment (field-independent basis, Debye):
    X=             -3.7762    Y=             -2.0378    Z=             -7.2719  Tot=              8.4435
 Quadrupole moment (field-independent basis, Debye-Ang):
   XX=           -518.5668   YY=           -543.1029   ZZ=           -456.1064
   XY=            -14.6971   XZ=              0.8414   YZ=            -40.5167

 Normal termination of Gaussian 16 at Fri Sep 10 21:37:59 2021.
