 Gaussian 16, Revision A.03,
 Gaussian 16:  ES64L-G16RevA.03 25-Dec-2016

 -----------------------------------
 #p cam-b3lyp/Def2SVP td=(nstates=5)
 -----------------------------------

 --------------------------------
 TDDFT excited states in gaussian
 --------------------------------
 Symbolic Z-matrix:
 Charge =  0 Multiplicity = 1

                         Standard orientation:
 ---------------------------------------------------------------------
 Center     Atomic      Atomic             Coordinates (Angstroms)
 Number     Number       Type             X           Y           Z
 ---------------------------------------------------------------------
      1         12           0       15.521420    0.835777    0.440114
      2          6           0       15.789822   -2.582343   -0.587812
      3          6           0       16.437369    1.705649   -2.729653
      4          6           0       15.733358    3.837230    1.441605
      5          6           0       15.743745   -0.290324    3.730727
      6          7           0       16.021750   -0.375589   -1.343956
      7          6           0       16.028592   -1.675365   -1.622716
      8          6           0       16.238966   -1.981633   -3.135765
      9          6           0       16.980036   -0.636548   -3.564202
     10          6           0       16.420442    0.296962   -2.505270
     11          6           0       18.496217   -0.700805   -3.410685
     12          6           0       14.884124   -2.157888   -3.900663
     13          6           0       14.997832   -2.776143   -5.297153
     14          1           0       13.942271   -3.665807   -5.757194
     15          7           0       15.534192    2.528415   -0.578544
     16          6           0       15.922723    2.696201   -1.865469
     17          6           0       15.747501    4.134710   -2.159869
     18          6           0       15.405882    4.822047   -0.883562
     19          6           0       15.572001    3.747105    0.061045
     20          6           0       15.856798    4.711850   -3.537807
     21          6           0       15.005105    6.227624   -0.564404
     22          8           0       14.979348    6.672086    0.634080
     23          6           0       14.725111    7.107858   -1.713245
     24          7           0       15.931509    1.685906    2.302033
     25          6           0       15.904319    3.011754    2.476307
     26          6           0       15.946441    3.372134    3.931742
     27          6           0       15.762483    2.002521    4.731788
     28          6           0       15.726466    1.029011    3.527939
     29          6           0       17.224204    4.075118    4.410433
     30          6           0       14.609478    1.941005    5.764848
     31          6           0       13.277408    2.001272    5.051367
     32          7           0       15.552088   -1.091753    1.437477
     33          6           0       15.673084   -1.326600    2.814750
     34          6           0       15.755043   -2.787300    2.998341
     35          6           0       15.692300   -3.303303    1.705418
     36          6           0       15.604799   -2.231657    0.771495
     37          6           0       15.929317   -3.462888    4.238358
     38          6           0       15.703635   -4.509712    0.894057
     39          8           0       15.667427   -5.717222    1.135097
     40          6           0       15.889999   -4.086916   -0.629866
     41          6           0       14.866903   -4.837430   -1.438142
     42          8           0       13.648584   -4.601966   -1.305390
     43          8           0       15.486902   -5.536793   -2.400969
     44          6           0       14.526189   -6.281508   -3.258048
     45          1           0       16.941557    2.092711   -3.617301
     46          1           0       15.700167    4.853882    1.838788
     47          1           0       15.729349   -0.718585    4.734638
     48          1           0       16.878226   -2.840490   -3.341034
     49          1           0       16.679860   -0.305396   -4.558161
     50          1           0       18.807409   -1.617164   -2.909319
     51          1           0       18.765440    0.170363   -2.813125
     52          1           0       18.989096   -0.567303   -4.374025
     53          1           0       14.489637   -1.176467   -4.163822
     54          1           0       14.177945   -2.738263   -3.305851
     55          1           0       15.976179   -3.231645   -5.452925
     56          1           0       14.953529   -1.971739   -6.031436
     57          1           0       16.279643    3.994521   -4.240079
     58          1           0       16.594620    5.512504   -3.490058
     59          1           0       14.905785    5.109026   -3.892996
     60          1           0       15.611438    7.167646   -2.345224
     61          1           0       14.367761    8.047031   -1.292406
     62          1           0       13.943558    6.654195   -2.323420
     63          1           0       15.133328    4.049055    4.190684
     64          1           0       16.650541    1.743418    5.308757
     65          1           0       17.042297    5.042294    4.879673
     66          1           0       17.894181    4.174407    3.556873
     67          1           0       17.835618    3.492777    5.099249
     68          1           0       14.653929    2.799432    6.434230
     69          1           0       14.629205    1.040413    6.378686
     70          1           0       13.127764    3.070402    4.905083
     71          1           0       12.490926    1.579077    5.677792
     72          1           0       13.333400    1.542014    4.064233
     73          1           0       15.242975   -4.309460    4.223584
     74          1           0       15.725764   -2.802574    5.081065
     75          1           0       16.980848   -3.741352    4.170558
     76          1           0       16.908661   -4.355944   -0.907486
     77          1           0       14.820982   -7.330673   -3.233876
     78          1           0       14.520756   -5.779630   -4.225774
     79          1           0       13.501886   -6.347011   -2.889469
     80         12           0      -16.219316    0.382094   -0.100182
     81          6           0      -13.888071   -2.337556    0.118569
     82          6           0      -13.748756    2.181675   -1.614269
     83          6           0      -18.094469    2.934085    0.096165
     84          6           0      -18.075716   -1.191101    2.394727
     85          7           0      -14.130842   -0.122497   -0.625482
     86          6           0      -13.373849   -1.206708   -0.549396
     87          6           0      -12.018078   -1.098346   -1.297532
     88          6           0      -11.864039    0.500091   -1.285804
     89          6           0      -13.339299    0.887232   -1.205762
     90          6           0      -11.163666    1.028120   -0.044837
     91          6           0      -12.096986   -1.657087   -2.761638
     92          6           0      -10.743262   -1.867591   -3.443466
     93          1           0      -10.590473   -3.000100   -4.352613
     94          7           0      -16.153987    2.102749   -1.086919
     95          6           0      -15.071888    2.673452   -1.656693
     96          6           0      -15.544173    3.939374   -2.238559
     97          6           0      -16.957966    4.147879   -1.823340
     98          6           0      -17.120667    3.056152   -0.884322
     99          6           0      -14.704332    4.774256   -3.161093
    100          6           0      -17.988511    5.169397   -2.198421
    101          8           0      -19.077707    5.301766   -1.535874
    102          6           0      -17.643748    6.072237   -3.306348
    103          7           0      -17.734508    0.920389    1.217687
    104          6           0      -18.426285    2.060692    1.047171
    105          6           0      -19.639716    2.102027    1.945095
    106          6           0      -19.752764    0.639523    2.582179
    107          6           0      -18.477807    0.004234    1.985272
    108          6           0      -19.604206    3.142880    3.063915
    109          6           0      -21.104004   -0.104697    2.400624
    110          6           0      -21.312793   -0.447175    0.943054
    111          7           0      -16.144598   -1.514372    0.932238
    112          6           0      -17.003600   -1.960175    1.960563
    113          6           0      -16.486214   -3.263414    2.425643
    114          6           0      -15.339840   -3.476238    1.645252
    115          6           0      -15.144381   -2.373391    0.770600
    116          6           0      -17.038578   -4.051391    3.474505
    117          6           0      -14.244641   -4.378147    1.369915
    118          8           0      -13.937655   -5.510488    1.740451
    119          6           0      -13.184804   -3.622482    0.457718
    120          6           0      -12.811867   -4.537526   -0.676355
    121          8           0      -13.655485   -4.861368   -1.530790
    122          8           0      -11.476669   -4.703286   -0.687970
    123          6           0      -11.056925   -5.594507   -1.802135
    124          1           0      -12.981429    2.905838   -1.889354
    125          1           0      -18.832986    3.738410    0.129950
    126          1           0      -18.653312   -1.790902    3.101335
    127          1           0      -11.179557   -1.556453   -0.786850
    128          1           0      -11.424738    0.861382   -2.212009
    129          1           0      -10.989806    0.248671    0.682050
    130          1           0      -11.819422    1.786266    0.362898
    131          1           0      -10.241439    1.545729   -0.323954
    132          1           0      -12.519521   -0.884859   -3.417298
    133          1           0      -12.662337   -2.568174   -2.791795
    134          1           0       -9.912042   -1.833698   -2.728705
    135          1           0      -10.556465   -1.023667   -4.111983
    136          1           0      -13.654986    4.454663   -3.149586
    137          1           0      -14.684182    5.787701   -2.745895
    138          1           0      -15.106981    4.815836   -4.175394
    139          1           0      -16.732396    6.612618   -3.061620
    140          1           0      -18.539087    6.670863   -3.484926
    141          1           0      -17.423036    5.468631   -4.193790
    142          1           0      -20.536797    2.306761    1.373760
    143          1           0      -19.613307    0.658396    3.673073
    144          1           0      -20.460588    3.842817    3.036244
    145          1           0      -18.669199    3.683196    2.997908
    146          1           0      -19.564837    2.735390    4.072682
    147          1           0      -21.935102    0.543451    2.689280
    148          1           0      -21.181232   -1.010431    2.992800
    149          1           0      -21.724604    0.477934    0.528724
    150          1           0      -22.014514   -1.272432    0.840176
    151          1           0      -20.356139   -0.635558    0.442081
    152          1           0      -17.037622   -5.076179    3.127644
    153          1           0      -18.041627   -3.719915    3.734849
    154          1           0      -16.318880   -3.847051    4.271719
    155          1           0      -12.327141   -3.378251    1.085681
    156          1           0      -10.479644   -6.411226   -1.357818
    157          1           0      -10.532261   -4.942035   -2.525150
    158          1           0      -11.832041   -6.143076   -2.324355
 ---------------------------------------------------------------------

 SCF Done:  E(RCAM-B3LYP) =  -4069.81176974     A.U. after   19 cycles

 Excitation energies and oscillator strengths:

 Excited State   1:      Singlet-A      1.6753 eV  740.07 nm  f=0.2057  <S**2>=0.000
     310 -> 316       -0.16815
     311 -> 313       -0.16913
     312 -> 314        0.66488
     310 <- 316       -0.10137
 This state for optimization and/or second-order correction.
 Total Energy, E(TD-HF/TD-DFT) =  -4069.75020350
 Copying the excited state density for this state as the 1-particle RhoCI density.

 Excited State   2:      Singlet-A      1.6801 eV  737.95 nm  f=0.5715  <S**2>=0.000
     309 -> 315        0.17018
     311 -> 313        0.66451
     312 -> 314        0.16907
     309 <- 315        0.10188

 Excited State   3:      Singlet-A      2.1861 eV  567.15 nm  f=0.1011  <S**2>=0.000
     310 -> 314        0.64239
     312 -> 316        0.27304

 Excited State   4:      Singlet-A      2.1925 eV  565.49 nm  f=0.1001  <S**2>=0.000
     309 -> 313        0.64062
     311 -> 315       -0.27824

 Excited State   5:      Singlet-A      3.0612 eV  405.01 nm  f=0.0000  <S**2>=0.000
     312 -> 313        0.70710

 The electronic state is 1-A.
 Alpha  occ. eigenvalues --  -46.87813 -46.87659 -19.26338 -19.26297 -19.19152
 Alpha  occ. eigenvalues --  -19.19034 -19.18834 -19.18715 -19.18183 -19.18046
 Alpha  occ. eigenvalues --  -14.42495 -14.42466 -14.41466 -14.41358 -14.39419
 Alpha  occ. eigenvalues --  -14.39351 -14.38603 -14.38598 -10.39093 -10.39082
 Alpha  occ. eigenvalues --  -10.35468 -10.35392 -10.34403 -10.34223 -10.31741
 Alpha  occ. eigenvalues --  -10.31691 -10.31420 -10.31306 -10.31020 -10.30925
 Alpha  occ. eigenvalues --  -10.30585 -10.30524 -10.30396 -10.30359 -10.30224
 Alpha  occ. eigenvalues --  -10.30141 -10.29936 -10.29894 -10.29647 -10.29436
 Alpha  occ. eigenvalues --  -10.29400 -10.29271 -10.28764 -10.28712 -10.28644
 Alpha  occ. eigenvalues --  -10.28554 -10.28402 -10.28381 -10.28134 -10.28132
 Alpha  occ. eigenvalues --  -10.27999 -10.27809 -10.27743 -10.27667 -10.27601
 Alpha  occ. eigenvalues --  -10.27519 -10.27517 -10.27500 -10.27481 -10.27467
 Alpha  occ. eigenvalues --  -10.27466 -10.27464 -10.27419 -10.27377 -10.27172
 Alpha  occ. eigenvalues --  -10.27044 -10.26721 -10.26685 -10.26432 -10.26417
 Alpha  occ. eigenvalues --  -10.26248 -10.26200 -10.26140 -10.26035 -10.26017
 Alpha  occ. eigenvalues --  -10.25933 -10.25856 -10.25849 -10.25451 -10.25400
 Alpha  occ. eigenvalues --  -10.24870 -10.24848 -10.24804 -10.24733 -10.24705
 Alpha  occ. eigenvalues --  -10.24689  -3.16556  -3.16409  -1.91437  -1.91291
 Alpha  occ. eigenvalues --   -1.91024  -1.90880  -1.90866  -1.90717  -1.16646
 Alpha  occ. eigenvalues --   -1.16632  -1.08653  -1.08641  -1.07236  -1.06967
 Alpha  occ. eigenvalues --   -1.06936  -1.06656  -1.04597  -1.04493  -1.03777
 Alpha  occ. eigenvalues --   -1.03662  -1.03250  -1.03038  -1.02427  -1.02110
 Alpha  occ. eigenvalues --   -0.91987  -0.91984  -0.89536  -0.89494  -0.89203
 Alpha  occ. eigenvalues --   -0.89146  -0.88303  -0.88220  -0.87885  -0.87792
 Alpha  occ. eigenvalues --   -0.87689  -0.87681  -0.87292  -0.87120  -0.84998
 Alpha  occ. eigenvalues --   -0.84995  -0.83952  -0.83876  -0.82986  -0.82932
 Alpha  occ. eigenvalues --   -0.82665  -0.82649  -0.81600  -0.81590  -0.80612
 Alpha  occ. eigenvalues --   -0.80438  -0.78814  -0.78634  -0.77234  -0.77142
 Alpha  occ. eigenvalues --   -0.76949  -0.76894  -0.75938  -0.75833  -0.74914
 Alpha  occ. eigenvalues --   -0.74802  -0.72790  -0.72697  -0.71688  -0.71578
 Alpha  occ. eigenvalues --   -0.69924  -0.69758  -0.68889  -0.68823  -0.67657
 Alpha  occ. eigenvalues --   -0.67599  -0.67236  -0.67196  -0.65302  -0.65267
 Alpha  occ. eigenvalues --   -0.64869  -0.64767  -0.64649  -0.64636  -0.64285
 Alpha  occ. eigenvalues --   -0.64203  -0.62312  -0.62272  -0.60459  -0.60339
 Alpha  occ. eigenvalues --   -0.59820  -0.59792  -0.59003  -0.58991  -0.58519
 Alpha  occ. eigenvalues --   -0.58423  -0.57599  -0.57548  -0.57325  -0.57235
 Alpha  occ. eigenvalues --   -0.56326  -0.56202  -0.55993  -0.55879  -0.55537
 Alpha  occ. eigenvalues --   -0.55449  -0.55355  -0.55245  -0.54538  -0.54484
 Alpha  occ. eigenvalues --   -0.53910  -0.53907  -0.53315  -0.53238  -0.53226
 Alpha  occ. eigenvalues --   -0.53138  -0.52930  -0.52898  -0.52774  -0.52667
 Alpha  occ. eigenvalues --   -0.52455  -0.52402  -0.51929  -0.51883  -0.51654
 Alpha  occ. eigenvalues --   -0.51633  -0.51211  -0.51198  -0.50592  -0.50475
 Alpha  occ. eigenvalues --   -0.50048  -0.49977  -0.49936  -0.49867  -0.49531
 Alpha  occ. eigenvalues --   -0.49485  -0.49230  -0.49199  -0.49111  -0.49100
 Alpha  occ. eigenvalues --   -0.48607  -0.48554  -0.48478  -0.48462  -0.48375
 Alpha  occ. eigenvalues --   -0.48337  -0.47711  -0.47592  -0.47313  -0.47117
 Alpha  occ. eigenvalues --   -0.46813  -0.46707  -0.46571  -0.46549  -0.46375
 Alpha  occ. eigenvalues --   -0.46269  -0.46177  -0.46083  -0.45836  -0.45817
 Alpha  occ. eigenvalues --   -0.45217  -0.45208  -0.44592  -0.44524  -0.44510
 Alpha  occ. eigenvalues --   -0.44472  -0.44161  -0.44124  -0.44104  -0.44077
 Alpha  occ. eigenvalues --   -0.44035  -0.43936  -0.43547  -0.43509  -0.43401
 Alpha  occ. eigenvalues --   -0.43382  -0.43042  -0.42924  -0.42896  -0.42714
 Alpha  occ. eigenvalues --   -0.42670  -0.42554  -0.42025  -0.41962  -0.41719
 Alpha  occ. eigenvalues --   -0.41666  -0.41549  -0.41455  -0.41156  -0.40987
 Alpha  occ. eigenvalues --   -0.40885  -0.40842  -0.40720  -0.40696  -0.40587
 Alpha  occ. eigenvalues --   -0.40492  -0.40250  -0.40221  -0.39458  -0.39426
 Alpha  occ. eigenvalues --   -0.38485  -0.38350  -0.37764  -0.37648  -0.37336
 Alpha  occ. eigenvalues --   -0.37279  -0.37265  -0.37196  -0.36763  -0.36727
 Alpha  occ. eigenvalues --   -0.36214  -0.36208  -0.34302  -0.34251  -0.33854
 Alpha  occ. eigenvalues --   -0.33785  -0.33202  -0.33174  -0.31364  -0.31274
 Alpha  occ. eigenvalues --   -0.31052  -0.30971  -0.30043  -0.29950  -0.29466
 Alpha  occ. eigenvalues --   -0.29337  -0.29326  -0.29210  -0.24096  -0.24034
 Alpha  occ. eigenvalues --   -0.21144  -0.21115
 Alpha virt. eigenvalues --   -0.08790  -0.08790  -0.01766  -0.01683  -0.00075
 Alpha virt. eigenvalues --   -0.00027   0.02185   0.02210   0.03105   0.03229
 Alpha virt. eigenvalues --    0.04703   0.04733   0.05084   0.05174   0.06163

 Mulliken charges:
               1
     1  Mg   0.838754
     2  C   -0.002959
     3  C   -0.094116
     4  C   -0.045880
     5  C   -0.063942
     6  N   -0.256777
     7  C   -0.052471
     8  C   -0.014021
     9  C   -0.086995
    10  C    0.046300
    11  C    0.104806
    12  C    0.053481
    13  C   -0.071807
    14  H    0.036121
    15  N   -0.433141
    16  C    0.168375
    17  C   -0.177164
    18  C   -0.004041
    19  C    0.148709
    20  C    0.110176
    21  C    0.012256
    22  O   -0.249648
    23  C    0.062493
    24  N   -0.341144
    25  C    0.041235
    26  C   -0.028172
    27  C   -0.023993
    28  C    0.074825
    29  C    0.076170
    30  C    0.035135
    31  C   -0.004499
    32  N   -0.310487
    33  C    0.080425
    34  C   -0.169691
    35  C    0.008390
    36  C    0.082960
    37  C    0.127307
    38  C    0.046123
    39  O   -0.188371
    40  C   -0.005325
    41  C    0.212885
    42  O   -0.257131
    43  O   -0.304785
    44  C    0.157691
    45  H   -0.017598
    46  H   -0.016854
    47  H   -0.041462
    48  H    0.000972
    49  H   -0.004044
    50  H    0.025498
    51  H    0.016450
    52  H    0.016675
    53  H    0.011163
    54  H    0.044114
    55  H    0.017911
    56  H    0.017931
    57  H    0.005882
    58  H    0.026830
    59  H    0.039485
    60  H    0.037370
    61  H    0.035603
    62  H    0.031441
    63  H    0.016521
    64  H    0.009496
    65  H    0.023202
    66  H    0.012558
    67  H    0.004781
    68  H    0.006370
    69  H    0.004768
    70  H    0.008739
    71  H    0.018143
    72  H    0.028965
    73  H    0.047608
    74  H    0.009127
    75  H    0.046047
    76  H    0.035186
    77  H    0.042998
    78  H    0.046389
    79  H    0.053682
    80  Mg   0.837862
    81  C   -0.016842
    82  C   -0.087780
    83  C   -0.045525
    84  C   -0.064893
    85  N   -0.254573
    86  C   -0.049802
    87  C   -0.015128
    88  C   -0.090472
    89  C    0.045749
    90  C    0.114363
    91  C    0.062519
    92  C   -0.077927
    93  H    0.034941
    94  N   -0.423499
    95  C    0.162913
    96  C   -0.174623
    97  C   -0.007817
    98  C    0.152111
    99  C    0.099366
   100  C    0.015567
   101  O   -0.253207
   102  C    0.061197
   103  N   -0.350066
   104  C    0.037506
   105  C   -0.019843
   106  C   -0.034821
   107  C    0.088928
   108  C    0.073661
   109  C    0.034746
   110  C   -0.007680
   111  N   -0.324125
   112  C    0.078461
   113  C   -0.163129
   114  C    0.002264
   115  C    0.096193
   116  C    0.131489
   117  C    0.042394
   118  O   -0.187787
   119  C    0.000941
   120  C    0.211261
   121  O   -0.251054
   122  O   -0.305594
   123  C    0.152008
   124  H   -0.019643
   125  H   -0.015588
   126  H   -0.040462
   127  H   -0.000558
   128  H   -0.004312
   129  H    0.022516
   130  H    0.014398
   131  H    0.016346
   132  H    0.013880
   133  H    0.037676
   134  H    0.020886
   135  H    0.019571
   136  H    0.008780
   137  H    0.026136
   138  H    0.039775
   139  H    0.038251
   140  H    0.036379
   141  H    0.033891
   142  H    0.014388
   143  H    0.012419
   144  H    0.025123
   145  H    0.011644
   146  H    0.005669
   147  H    0.006247
   148  H    0.003656
   149  H    0.010924
   150  H    0.017930
   151  H    0.030113
   152  H    0.046031
   153  H    0.008493
   154  H    0.046974
   155  H    0.035105
   156  H    0.044025
   157  H    0.049517
   158  H    0.053561
 Sum of Mulliken charges =  -0.00000

 Dipole moment (field-independent basis, Debye):
    X=              4.4494    Y=              6.2166    Z=             -4.2360  Tot=              8.7400
 Quadrupole moment (field-independent basis, Debye-Ang):
   XX=           -505.4531   YY=           -565.7521   ZZ=           -457.3069
   XY=             -2.7737   XZ=            -58.0036   YZ=             -0.7896

 Normal termination of Gaussian 16 at Sun Sep 12 17:44:13 2021.
