 Gaussian 16, Revision A.03,
 Gaussian 16:  ES64L-G16RevA.03 25-Dec-2016

 -----------------------------------
 #p cam-b3lyp/Def2SVP td=(nstates=5)
 -----------------------------------

 --------------------------------
 TDDFT excited states in gaussian
 --------------------------------
 Symbolic Z-matrix:
 Charge =  0 Multiplicity = 1

                         Standard orientation:
 ---------------------------------------------------------------------
 Center     Atomic      Atomic             Coordinates (Angstroms)
 Number     Number       Type             X           Y           Z
 ---------------------------------------------------------------------
      1         12           0       -6.475622   -0.787686   -0.020476
      2          6           0       -6.762284    2.005495    2.199474
      3          6           0       -7.372261    1.320276   -2.549428
      4          6           0       -6.671934   -3.321729   -1.916975
      5          6           0       -6.719436   -2.849160    2.778907
      6          7           0       -6.976356    1.368524   -0.046354
      7          6           0       -6.990623    2.338573    0.862476
      8          6           0       -7.196566    3.756184    0.249826
      9          6           0       -7.926873    3.341101   -1.105296
     10          6           0       -7.365626    1.939063   -1.264091
     11          6           0       -9.444088    3.251197   -0.976926
     12          6           0       -5.839673    4.485452   -0.030780
     13          6           0       -5.951519    5.985202   -0.319910
     14          1           0       -4.899925    6.870661    0.157018
     15          7           0       -6.472832   -0.915817   -1.991877
     16          6           0       -6.854752    0.045702   -2.866466
     17          6           0       -6.668747   -0.532512   -4.214707
     18          6           0       -6.328027   -1.972846   -4.049052
     19          6           0       -6.505293   -2.136091   -2.628734
     20          6           0       -6.768339    0.270473   -5.475281
     21          6           0       -5.919308   -3.036297   -5.018668
     22          8           0       -5.895719   -4.274313   -4.700339
     23          6           0       -5.628591   -2.594223   -6.394566
     24          7           0       -6.888005   -2.802153    0.339382
     25          6           0       -6.852774   -3.701220   -0.650275
     26          6           0       -6.898712   -5.102418   -0.116914
     27          6           0       -6.727249   -4.978802    1.465828
     28          6           0       -6.692550   -3.434739    1.579556
     29          6           0       -8.173819   -5.896829   -0.431596
     30          6           0       -5.579093   -5.792133    2.114402
     31          6           0       -4.243622   -5.239960    1.668620
     32          7           0       -6.523316   -0.508154    2.131415
     33          6           0       -6.651738   -1.505806    3.108591
     34          6           0       -6.744158   -0.823878    4.412623
     35          6           0       -6.679321    0.532536    4.099924
     36          6           0       -6.580740    0.688861    2.687785
     37          6           0       -6.928192   -1.457504    5.673212
     38          6           0       -6.695191    1.886916    4.628374
     39          8           0       -6.668014    2.377329    5.758086
     40          6           0       -6.872248    2.897810    3.410765
     41          6           0       -5.850710    3.990024    3.574588
     42          8           0       -4.631436    3.747051    3.466426
     43          8           0       -6.471219    5.179596    3.595339
     44          6           0       -5.511816    6.308580    3.726084
     45          1           0       -7.870082    1.828718   -3.377438
     46          1           0       -6.633701   -4.227647   -2.525489
     47          1           0       -6.712159   -3.429766    3.703189
     48          1           0       -7.840623    4.414304    0.833344
     49          1           0       -7.620273    3.968981   -1.941648
     50          1           0       -9.763480    3.361648    0.059273
     51          1           0       -9.710078    2.263518   -1.354065
     52          1           0       -9.931958    3.966389   -1.639693
     53          1           0       -5.437572    4.142229   -0.983971
     54          1           0       -5.139898    4.327859    0.790686
     55          1           0       -6.932190    6.372601   -0.042212
     56          1           0       -5.898755    6.129860   -1.399025
     57          1           0       -7.192930    1.256281   -5.289673
     58          1           0       -7.501037   -0.225431   -6.111632
     59          1           0       -5.813209    0.336103   -5.996579
     60          1           0       -6.511799   -2.109345   -6.810961
     61          1           0       -5.266823   -3.475314   -6.923388
     62          1           0       -4.847466   -1.834070   -6.363578
     63          1           0       -6.082243   -5.700860   -0.518998
     64          1           0       -7.619456   -5.305339    2.000630
     65          1           0       -7.987509   -6.833698   -0.957211
     66          1           0       -8.839477   -5.252371   -1.005063
     67          1           0       -8.792011   -6.130893    0.434701
     68          1           0       -5.620708   -6.831492    1.790447
     69          1           0       -5.607405   -5.782993    3.204065
     70          1           0       -4.086274   -5.729276    0.708077
     71          1           0       -3.462633   -5.513686    2.378790
     72          1           0       -4.298446   -4.167154    1.482700
     73          1           0       -6.247418   -0.962526    6.365680
     74          1           0       -6.723863   -2.526242    5.612781
     75          1           0       -7.981246   -1.243332    5.855044
     76          1           0       -7.891477    3.278992    3.465484
     77          1           0       -5.813655    6.886795    4.599465
     78          1           0       -5.498930    6.817492    2.762109
     79          1           0       -4.489550    6.043398    3.998094
     80         12           0        6.745305   -0.487891    0.118677
     81          6           0        5.623097    1.861569   -2.351092
     82          6           0        8.617768    2.033251    1.449964
     83          6           0        8.095595   -2.632647    2.027647
     84          6           0        5.718887   -3.029421   -2.033726
     85          7           0        7.002982    1.630235   -0.463908
     86          6           0        6.478261    2.427224   -1.382507
     87          6           0        6.829892    3.929025   -1.207781
     88          6           0        8.190594    3.761685   -0.371506
     89          6           0        7.913497    2.407276    0.277703
     90          6           0        9.423788    3.627254   -1.249285
     91          6           0        5.742297    4.705837   -0.385743
     92          6           0        5.862862    6.230414   -0.439436
     93          1           0        4.638295    7.025964   -0.437008
     94          7           0        7.755991   -0.246563    1.809488
     95          6           0        8.438944    0.850008    2.199839
     96          6           0        9.022252    0.516032    3.508415
     97          6           0        8.764903   -0.923786    3.783002
     98          6           0        8.201347   -1.337591    2.513641
     99          6           0        9.670984    1.538971    4.395081
    100          6           0        9.000361   -1.788461    4.984293
    101          8           0        8.920416   -3.066098    4.920399
    102          6           0        9.418648   -1.101253    6.214845
    103          7           0        7.083273   -2.530407   -0.071660
    104          6           0        7.641916   -3.234832    0.928162
    105          6           0        7.532974   -4.719797    0.676387
    106          6           0        6.566583   -4.871277   -0.588810
    107          6           0        6.345837   -3.378707   -0.918775
    108          6           0        8.849353   -5.446149    0.400839
    109          6           0        5.320428   -5.782553   -0.417455
    110          6           0        4.355358   -5.157916    0.564295
    111          7           0        5.670551   -0.602287   -1.752119
    112          6           0        5.371508   -1.765845   -2.494273
    113          6           0        4.729007   -1.327906   -3.750384
    114          6           0        4.719573    0.072268   -3.661450
    115          6           0        5.332433    0.479053   -2.445548
    116          6           0        4.291530   -2.181082   -4.802438
    117          6           0        4.340092    1.299056   -4.324545
    118          8           0        3.707837    1.576420   -5.342903
    119          6           0        5.021964    2.516605   -3.563612
    120          6           0        3.973299    3.571987   -3.342349
    121          8           0        3.003753    3.352739   -2.595005
    122          8           0        4.398237    4.733370   -3.872437
    123          6           0        3.396772    5.813779   -3.668520
    124          1           0        9.413162    2.687336    1.808288
    125          1           0        8.447333   -3.418710    2.699853
    126          1           0        5.281752   -3.764803   -2.712535
    127          1           0        7.024225    4.460535   -2.131633
    128          1           0        8.286294    4.535191    0.386047
    129          1           0        9.167113    3.547639   -2.295186
    130          1           0        9.927200    2.729952   -0.913895
    131          1           0       10.116105    4.451553   -1.055501
    132          1           0        5.917514    4.541097    0.685188
    133          1           0        4.755471    4.410621   -0.685151
    134          1           0        6.535494    6.562781   -1.239456
    135          1           0        6.347882    6.572667    0.477973
    136          1           0        9.860560    2.475747    3.856653
    137          1           0       10.668942    1.161039    4.642292
    138          1           0        9.116820    1.705762    5.321235
    139          1           0       10.340526   -0.555575    6.028209
    140          1           0        9.450610   -1.874468    6.984925
    141          1           0        8.658815   -0.355813    6.474817
    142          1           0        7.084311   -5.223789    1.523618
    143          1           0        7.090024   -5.309681   -1.451163
    144          1           0        9.041727   -6.281405    1.100416
    145          1           0        9.653178   -4.723132    0.441662
    146          1           0        8.952407   -5.849629   -0.605034
    147          1           0        5.611956   -6.747280    0.004992
    148          1           0        4.800304   -5.982549   -1.348298
    149          1           0        4.757965   -5.463692    1.534605
    150          1           0        3.350327   -5.546871    0.413688
    151          1           0        4.400683   -4.063614    0.518645
    152          1           0        3.321469   -1.817897   -5.114835
    153          1           0        4.243065   -3.218697   -4.478735
    154          1           0        5.088700   -2.015521   -5.532081
    155          1           0        5.839871    2.876899   -4.188745
    156          1           0        3.163878    6.224073   -4.655999
    157          1           0        3.847333    6.503274   -2.930050
    158          1           0        2.411481    5.524956   -3.321772
 ---------------------------------------------------------------------

 SCF Done:  E(RCAM-B3LYP) =  -4069.81182457     A.U. after   19 cycles

 Excitation energies and oscillator strengths:

 Excited State   1:      Singlet-A      1.6665 eV  743.98 nm  f=0.0708  <S**2>=0.000
     309 -> 315        0.13436
     310 -> 316        0.10667
     311 -> 313        0.53828
     312 -> 314        0.42622
 This state for optimization and/or second-order correction.
 Total Energy, E(TD-HF/TD-DFT) =  -4069.75058176
 Copying the excited state density for this state as the 1-particle RhoCI density.

 Excited State   2:      Singlet-A      1.6887 eV  734.20 nm  f=0.6827  <S**2>=0.000
     309 -> 315       -0.10985
     310 -> 316        0.13935
     311 -> 313       -0.42537
     312 -> 314        0.53716

 Excited State   3:      Singlet-A      2.1849 eV  567.47 nm  f=0.0404  <S**2>=0.000
     309 -> 313        0.61000
     310 -> 314       -0.20380
     311 -> 315       -0.25810

 Excited State   4:      Singlet-A      2.1935 eV  565.24 nm  f=0.1481  <S**2>=0.000
     309 -> 313        0.20221
     310 -> 314        0.60758
     312 -> 316       -0.26452

 Excited State   5:      Singlet-A      2.6583 eV  466.41 nm  f=0.0000  <S**2>=0.000
     312 -> 313        0.70700

 The electronic state is 1-A.
 Alpha  occ. eigenvalues --  -46.87582 -46.87537 -19.26331 -19.26076 -19.19123
 Alpha  occ. eigenvalues --  -19.18791 -19.18633 -19.18553 -19.18014 -19.17943
 Alpha  occ. eigenvalues --  -14.42422 -14.42195 -14.41285 -14.41204 -14.39274
 Alpha  occ. eigenvalues --  -14.39142 -14.38525 -14.38334 -10.39052 -10.38852
 Alpha  occ. eigenvalues --  -10.35310 -10.35184 -10.34190 -10.34163 -10.31763
 Alpha  occ. eigenvalues --  -10.31496 -10.31241 -10.31159 -10.30949 -10.30649
 Alpha  occ. eigenvalues --  -10.30325 -10.30320 -10.30291 -10.30261 -10.30063
 Alpha  occ. eigenvalues --  -10.29962 -10.29825 -10.29690 -10.29381 -10.29360
 Alpha  occ. eigenvalues --  -10.29329 -10.28998 -10.28651 -10.28586 -10.28497
 Alpha  occ. eigenvalues --  -10.28333 -10.28291 -10.28109 -10.28075 -10.27934
 Alpha  occ. eigenvalues --  -10.27873 -10.27596 -10.27545 -10.27475 -10.27444
 Alpha  occ. eigenvalues --  -10.27414 -10.27392 -10.27383 -10.27326 -10.27306
 Alpha  occ. eigenvalues --  -10.27294 -10.27246 -10.27188 -10.27155 -10.27007
 Alpha  occ. eigenvalues --  -10.26930 -10.26608 -10.26421 -10.26323 -10.26113
 Alpha  occ. eigenvalues --  -10.26056 -10.26018 -10.25994 -10.25974 -10.25860
 Alpha  occ. eigenvalues --  -10.25803 -10.25778 -10.25637 -10.25339 -10.25253
 Alpha  occ. eigenvalues --  -10.24808 -10.24635 -10.24618 -10.24587 -10.24545
 Alpha  occ. eigenvalues --  -10.24491  -3.16331  -3.16279  -1.91213  -1.91160
 Alpha  occ. eigenvalues --   -1.90802  -1.90747  -1.90639  -1.90589  -1.16621
 Alpha  occ. eigenvalues --   -1.16421  -1.08624  -1.08404  -1.06955  -1.06911
 Alpha  occ. eigenvalues --   -1.06885  -1.06417  -1.04422  -1.04327  -1.03589
 Alpha  occ. eigenvalues --   -1.03513  -1.02982  -1.02965  -1.02162  -1.02039
 Alpha  occ. eigenvalues --   -0.91924  -0.91729  -0.89421  -0.89294  -0.89083
 Alpha  occ. eigenvalues --   -0.88940  -0.88148  -0.88066  -0.87732  -0.87635
 Alpha  occ. eigenvalues --   -0.87611  -0.87423  -0.87041  -0.87004  -0.84930
 Alpha  occ. eigenvalues --   -0.84733  -0.83806  -0.83725  -0.82852  -0.82707
 Alpha  occ. eigenvalues --   -0.82585  -0.82402  -0.81551  -0.81361  -0.80383
 Alpha  occ. eigenvalues --   -0.80355  -0.78563  -0.78539  -0.77075  -0.76982
 Alpha  occ. eigenvalues --   -0.76840  -0.76705  -0.75784  -0.75691  -0.74740
 Alpha  occ. eigenvalues --   -0.74682  -0.72631  -0.72534  -0.71517  -0.71439
 Alpha  occ. eigenvalues --   -0.69697  -0.69680  -0.68759  -0.68627  -0.67535
 Alpha  occ. eigenvalues --   -0.67396  -0.67124  -0.66958  -0.65206  -0.65040
 Alpha  occ. eigenvalues --   -0.64706  -0.64618  -0.64593  -0.64387  -0.64133
 Alpha  occ. eigenvalues --   -0.64043  -0.62235  -0.62077  -0.60264  -0.60187
 Alpha  occ. eigenvalues --   -0.59728  -0.59556  -0.58926  -0.58749  -0.58363
 Alpha  occ. eigenvalues --   -0.58266  -0.57508  -0.57355  -0.57169  -0.57075
 Alpha  occ. eigenvalues --   -0.56140  -0.56067  -0.55842  -0.55755  -0.55390
 Alpha  occ. eigenvalues --   -0.55271  -0.55188  -0.55125  -0.54432  -0.54309
 Alpha  occ. eigenvalues --   -0.53844  -0.53646  -0.53160  -0.53078  -0.53057
 Alpha  occ. eigenvalues --   -0.52968  -0.52840  -0.52679  -0.52590  -0.52491
 Alpha  occ. eigenvalues --   -0.52323  -0.52229  -0.51831  -0.51692  -0.51588
 Alpha  occ. eigenvalues --   -0.51360  -0.51144  -0.50966  -0.50392  -0.50293
 Alpha  occ. eigenvalues --   -0.49907  -0.49808  -0.49796  -0.49661  -0.49416
 Alpha  occ. eigenvalues --   -0.49265  -0.49140  -0.49049  -0.48972  -0.48862
 Alpha  occ. eigenvalues --   -0.48505  -0.48366  -0.48318  -0.48267  -0.48241
 Alpha  occ. eigenvalues --   -0.48193  -0.47529  -0.47453  -0.47055  -0.47051
 Alpha  occ. eigenvalues --   -0.46641  -0.46563  -0.46485  -0.46308  -0.46203
 Alpha  occ. eigenvalues --   -0.46119  -0.46026  -0.45937  -0.45774  -0.45602
 Alpha  occ. eigenvalues --   -0.45142  -0.44984  -0.44460  -0.44408  -0.44350
 Alpha  occ. eigenvalues --   -0.44257  -0.44069  -0.44008  -0.43910  -0.43872
 Alpha  occ. eigenvalues --   -0.43853  -0.43774  -0.43509  -0.43322  -0.43272
 Alpha  occ. eigenvalues --   -0.43146  -0.42889  -0.42845  -0.42794  -0.42481
 Alpha  occ. eigenvalues --   -0.42478  -0.42442  -0.41891  -0.41784  -0.41612
 Alpha  occ. eigenvalues --   -0.41469  -0.41388  -0.41290  -0.40926  -0.40906
 Alpha  occ. eigenvalues --   -0.40647  -0.40632  -0.40622  -0.40559  -0.40423
 Alpha  occ. eigenvalues --   -0.40351  -0.40149  -0.39968  -0.39345  -0.39232
 Alpha  occ. eigenvalues --   -0.38278  -0.38247  -0.37582  -0.37496  -0.37194
 Alpha  occ. eigenvalues --   -0.37128  -0.37090  -0.37010  -0.36732  -0.36493
 Alpha  occ. eigenvalues --   -0.36154  -0.35965  -0.34182  -0.34038  -0.33816
 Alpha  occ. eigenvalues --   -0.33536  -0.33104  -0.32939  -0.31193  -0.31085
 Alpha  occ. eigenvalues --   -0.30902  -0.30789  -0.29919  -0.29804  -0.29253
 Alpha  occ. eigenvalues --   -0.29190  -0.29145  -0.29073  -0.23963  -0.23831
 Alpha  occ. eigenvalues --   -0.21044  -0.20878
 Alpha virt. eigenvalues --   -0.08721  -0.08522  -0.01608  -0.01500   0.00045
 Alpha virt. eigenvalues --    0.00201   0.02265   0.02436   0.03353   0.03455
 Alpha virt. eigenvalues --    0.04800   0.04964   0.05203   0.05325   0.06247

 Mulliken charges:
               1
     1  Mg   0.840272
     2  C   -0.002534
     3  C   -0.093397
     4  C   -0.045990
     5  C   -0.064201
     6  N   -0.256743
     7  C   -0.052261
     8  C   -0.014292
     9  C   -0.087174
    10  C    0.046807
    11  C    0.104918
    12  C    0.053285
    13  C   -0.071475
    14  H    0.035560
    15  N   -0.433130
    16  C    0.169160
    17  C   -0.176406
    18  C   -0.003622
    19  C    0.149065
    20  C    0.110110
    21  C    0.012717
    22  O   -0.250287
    23  C    0.062013
    24  N   -0.341167
    25  C    0.041338
    26  C   -0.028085
    27  C   -0.023827
    28  C    0.074771
    29  C    0.076359
    30  C    0.035261
    31  C   -0.004462
    32  N   -0.310346
    33  C    0.080348
    34  C   -0.170035
    35  C    0.008069
    36  C    0.083162
    37  C    0.127376
    38  C    0.045980
    39  O   -0.189317
    40  C   -0.005377
    41  C    0.212572
    42  O   -0.256347
    43  O   -0.304990
    44  C    0.157952
    45  H   -0.017802
    46  H   -0.017251
    47  H   -0.042077
    48  H    0.000336
    49  H   -0.003805
    50  H    0.025140
    51  H    0.016267
    52  H    0.016280
    53  H    0.012844
    54  H    0.044770
    55  H    0.017067
    56  H    0.018083
    57  H    0.005778
    58  H    0.026236
    59  H    0.041481
    60  H    0.036905
    61  H    0.035258
    62  H    0.033583
    63  H    0.016272
    64  H    0.008996
    65  H    0.022760
    66  H    0.012492
    67  H    0.004367
    68  H    0.005691
    69  H    0.004433
    70  H    0.008379
    71  H    0.017700
    72  H    0.029953
    73  H    0.047181
    74  H    0.008780
    75  H    0.045485
    76  H    0.034647
    77  H    0.042163
    78  H    0.046355
    79  H    0.053622
    80  Mg   0.838831
    81  C   -0.016646
    82  C   -0.087690
    83  C   -0.045424
    84  C   -0.064829
    85  N   -0.254584
    86  C   -0.049717
    87  C   -0.015268
    88  C   -0.090570
    89  C    0.046042
    90  C    0.114429
    91  C    0.062446
    92  C   -0.077824
    93  H    0.034812
    94  N   -0.423494
    95  C    0.163285
    96  C   -0.174503
    97  C   -0.007612
    98  C    0.152331
    99  C    0.099391
   100  C    0.015838
   101  O   -0.253201
   102  C    0.061035
   103  N   -0.350116
   104  C    0.037585
   105  C   -0.019835
   106  C   -0.034782
   107  C    0.088935
   108  C    0.073724
   109  C    0.034715
   110  C   -0.007720
   111  N   -0.324056
   112  C    0.078526
   113  C   -0.163107
   114  C    0.001857
   115  C    0.096503
   116  C    0.131517
   117  C    0.042337
   118  O   -0.189103
   119  C    0.000946
   120  C    0.210739
   121  O   -0.250293
   122  O   -0.305737
   123  C    0.152318
   124  H   -0.019762
   125  H   -0.015591
   126  H   -0.040492
   127  H   -0.001059
   128  H   -0.004224
   129  H    0.022222
   130  H    0.014377
   131  H    0.016120
   132  H    0.014605
   133  H    0.038149
   134  H    0.020278
   135  H    0.019752
   136  H    0.008723
   137  H    0.025984
   138  H    0.040306
   139  H    0.038064
   140  H    0.036444
   141  H    0.034448
   142  H    0.014502
   143  H    0.012201
   144  H    0.025058
   145  H    0.011520
   146  H    0.005514
   147  H    0.006020
   148  H    0.003726
   149  H    0.010855
   150  H    0.018129
   151  H    0.030526
   152  H    0.045509
   153  H    0.008834
   154  H    0.046540
   155  H    0.034658
   156  H    0.042943
   157  H    0.049724
   158  H    0.053367
 Sum of Mulliken charges =  -0.00000

 Dipole moment (field-independent basis, Debye):
    X=              1.5997    Y=              3.0434    Z=             -2.0440  Tot=              3.9999
 Quadrupole moment (field-independent basis, Debye-Ang):
   XX=           -451.4711   YY=           -461.8605   ZZ=           -537.6924
   XY=             17.9124   XZ=             30.7914   YZ=            -11.4084

 Normal termination of Gaussian 16 at Sat Sep 11 08:12:17 2021.
