 Gaussian 16, Revision A.03,
 Gaussian 16:  ES64L-G16RevA.03 25-Dec-2016

 -----------------------------------
 #p cam-b3lyp/Def2SVP td=(nstates=5)
 -----------------------------------

 --------------------------------
 TDDFT excited states in gaussian
 --------------------------------
 Symbolic Z-matrix:
 Charge =  0 Multiplicity = 1

                         Standard orientation:
 ---------------------------------------------------------------------
 Center     Atomic      Atomic             Coordinates (Angstroms)
 Number     Number       Type             X           Y           Z
 ---------------------------------------------------------------------
      1         12           0        6.766915   -0.415591   -0.060914
      2          6           0        6.777074    2.896168   -1.418989
      3          6           0        7.653729    0.968208    2.929358
      4          6           0        7.207099   -3.354878    1.045183
      5          6           0        7.001402   -1.598277   -3.330766
      6          7           0        7.136483    1.679231    0.552101
      7          6           0        7.048390    2.861445   -0.049380
      8          6           0        7.196926    4.064926    0.928855
      9          6           0        8.014997    3.344232    2.092194
     10          6           0        7.548134    1.916600    1.868964
     11          6           0        9.527002    3.402294    1.899912
     12          6           0        5.813221    4.588841    1.441304
     13          6           0        5.847495    5.953877    2.134741
     14          1           0        4.722499    6.859097    1.954994
     15          7           0        6.866105   -1.084484    1.795317
     16          6           0        7.230295   -0.377973    2.892356
     17          6           0        7.144369   -1.318703    4.030040
     18          6           0        6.884197   -2.677391    3.478341
     19          6           0        7.002982   -2.427808    2.064489
     20          6           0        7.255143   -0.891208    5.461377
     21          6           0        6.587591   -3.994187    4.123479
     22          8           0        6.624024   -5.094019    3.472620
     23          6           0        6.336643   -3.972414    5.575923
     24          7           0        7.283173   -2.216709   -0.981286
     25          6           0        7.349915   -3.354791   -0.281787
     26          6           0        7.455301   -4.546460   -1.186638
     27          6           0        7.201222   -4.002000   -2.666084
     28          6           0        7.067452   -2.493438   -2.342640
     29          6           0        8.789862   -5.303500   -1.143625
     30          6           0        6.074888   -4.683980   -3.482596
     31          6           0        4.731185   -4.373967   -2.861748
     32          7           0        6.694680    0.451575   -2.049343
     33          6           0        6.836598   -0.224601   -3.269720
     34          6           0        6.825034    0.796565   -4.333277
     35          6           0        6.692983    2.005074   -3.652166
     36          6           0        6.652676    1.756762   -2.250378
     37          6           0        6.986756    0.551671   -5.725508
     38          6           0        6.601330    3.450344   -3.781216
     39          8           0        6.490483    4.231158   -4.727543
     40          6           0        6.774662    4.094507   -2.335243
     41          6           0        5.682040    5.113292   -2.157583
     42          8           0        4.486329    4.763194   -2.086369
     43          8           0        6.227483    6.303351   -1.862975
     44          6           0        5.196158    7.352661   -1.645092
     45          1           0        8.158756    1.261771    3.851697
     46          1           0        7.253054   -4.394193    1.377070
     47          1           0        6.985235   -1.899197   -4.379879
     48          1           0        7.771222    4.903264    0.534144
     49          1           0        7.711154    3.692320    3.079228
     50          1           0        9.789225    3.817947    0.927086
     51          1           0        9.870179    2.370494    1.978080
     52          1           0       10.001660    3.939015    2.721744
     53          1           0        5.478702    3.967203    2.271801
     54          1           0        5.085856    4.615192    0.629164
     55          1           0        6.788447    6.472226    1.948105
     56          1           0        5.837666    5.789886    3.212336
     57          1           0        7.609747    0.135221    5.546493
     58          1           0        8.046162   -1.490135    5.912249
     59          1           0        6.323791   -1.041083    6.007686
     60          1           0        7.207670   -3.559846    6.085481
     61          1           0        6.054715   -4.989044    5.847642
     62          1           0        5.510223   -3.291383    5.781286
     63          1           0        6.696816   -5.289719   -0.944374
     64          1           0        8.085035   -4.102899   -3.296455
     65          1           0        8.686101   -6.360122   -0.895658
     66          1           0        9.441804   -4.797095   -0.432417
     67          1           0        9.379025   -5.243617   -2.058348
     68          1           0        6.194958   -5.766644   -3.463414
     69          1           0        6.050497   -4.371447   -4.526617
     70          1           0        4.649908   -5.120101   -2.072121
     71          1           0        3.935217   -4.495532   -3.597185
     72          1           0        4.729597   -3.393539   -2.385046
     73          1           0        6.244880    1.168970   -6.231998
     74          1           0        6.850810   -0.503784   -5.960318
     75          1           0        8.014972    0.882668   -5.870658
     76          1           0        7.765089    4.547912   -2.310741
     77          1           0        5.420262    8.170191   -2.330407
     78          1           0        5.198472    7.572447   -0.577340
     79          1           0        4.180051    7.100667   -1.950647
     80         12           0       -6.443804   -1.042349    0.286368
     81          6           0       -8.587336    1.810939   -0.091891
     82          6           0       -4.081613    1.083646    1.525225
     83          6           0       -4.379925   -3.451149    0.212395
     84          6           0       -8.490089   -2.707471   -1.990858
     85          7           0       -6.452021    1.143417    0.624954
     86          6           0       -7.344199    2.114529    0.501318
     87          6           0       -6.907979    3.470958    1.117229
     88          6           0       -5.316923    3.261517    1.057657
     89          6           0       -5.269205    1.735772    1.107531
     90          6           0       -4.698769    3.716093   -0.254052
     91          6           0       -7.409440    3.645834    2.593702
     92          6           0       -7.287104    5.065960    3.150483
     93          1           0       -8.319300    5.546362    4.064955
     94          7           0       -4.712086   -1.279111    1.226410
     95          6           0       -3.893236   -0.307289    1.680619
     96          6           0       -2.740169   -0.999051    2.277337
     97          6           0       -2.866747   -2.454054    1.991599
     98          6           0       -4.005220   -2.448547    1.094959
     99          6           0       -1.702924   -0.291124    3.099768
    100          6           0       -2.083792   -3.650871    2.439702
    101          8           0       -2.222984   -4.795048    1.879064
    102          6           0       -1.082140   -3.422765    3.491443
    103          7           0       -6.308699   -2.747532   -0.895334
    104          6           0       -5.343544   -3.659744   -0.684955
    105          6           0       -5.608609   -4.924452   -1.466405
    106          6           0       -7.084914   -4.761651   -2.059343
    107          6           0       -7.397393   -3.330178   -1.570833
    108          6           0       -4.632739   -5.219614   -2.605231
    109          6           0       -8.101347   -5.891064   -1.736912
    110          6           0       -8.421092   -5.891274   -0.259364
    111          7           0       -8.317749   -0.634195   -0.708514
    112          6           0       -8.984490   -1.457001   -1.642607
    113          6           0      -10.159122   -0.703010   -2.126508
    114          6           0      -10.080832    0.524871   -1.452213
    115          6           0       -8.926934    0.543102   -0.622933
    116          6           0      -11.092316   -1.153281   -3.102488
    117          6           0      -10.706111    1.813792   -1.261425
    118          8           0      -11.756849    2.333404   -1.635166
    119          6           0       -9.697833    2.752133   -0.468166
    120          6           0      -10.460178    3.416949    0.645103
    121          8           0      -10.926998    2.744249    1.581130
    122          8           0      -10.325989    4.751255    0.535535
    123          6           0      -11.055597    5.454460    1.624103
    124          1           0       -3.194986    1.690117    1.712260
    125          1           0       -3.760901   -4.351125    0.230821
    126          1           0       -9.231382   -3.194840   -2.627746
    127          1           0       -7.190009    4.343498    0.540243
    128          1           0       -4.829546    3.686999    1.931041
    129          1           0       -5.449798    3.996702   -0.977484
    130          1           0       -4.121873    2.874536   -0.614630
    131          1           0       -3.978988    4.519540   -0.073132
    132          1           0       -6.723384    3.119281    3.269590
    133          1           0       -8.420951    3.303640    2.695587
    134          1           0       -7.099786    5.803621    2.360722
    135          1           0       -6.395923    5.115998    3.780808
    136          1           0       -1.782792    0.798130    2.997090
    137          1           0       -0.728123   -0.534341    2.663331
    138          1           0       -1.709597   -0.603782    4.146127
    139          1           0       -0.364199   -2.680187    3.151455
    140          1           0       -0.689457   -4.410592    3.740201
    141          1           0       -1.584871   -2.996760    4.366884
    142          1           0       -5.583901   -5.791864   -0.818258
    143          1           0       -7.080699   -4.724625   -3.158645
    144          1           0       -4.138949   -6.205338   -2.512445
    145          1           0       -3.896799   -4.427242   -2.638113
    146          1           0       -5.062694   -5.177186   -3.604498
    147          1           0       -7.665485   -6.867935   -1.960281
    148          1           0       -9.025383   -5.814306   -2.300176
    149          1           0       -7.593645   -6.462469    0.172100
    150          1           0       -9.376110   -6.378801   -0.074158
    151          1           0       -8.372447   -4.877164    0.153991
    152          1           0      -12.076321   -0.892913   -2.735812
    153          1           0      -11.001854   -2.223711   -3.274988
    154          1           0      -10.766975   -0.569171   -3.967497
    155          1           0       -9.296128    3.475852   -1.178403
    156          1           0      -11.742080    6.159427    1.145089
    157          1           0      -10.274008    5.880066    2.281166
    158          1           0      -11.739946    4.869915    2.227773
 ---------------------------------------------------------------------

 SCF Done:  E(RCAM-B3LYP) =  -4069.81175849     A.U. after   19 cycles

 Excitation energies and oscillator strengths:

 Excited State   1:      Singlet-A      1.6676 eV  743.48 nm  f=0.2016  <S**2>=0.000
     309 -> 315       -0.10757
     310 -> 316        0.13415
     311 -> 313       -0.42802
     312 -> 314        0.53675
 This state for optimization and/or second-order correction.
 Total Energy, E(TD-HF/TD-DFT) =  -4069.75047420
 Copying the excited state density for this state as the 1-particle RhoCI density.

 Excited State   2:      Singlet-A      1.6859 eV  735.42 nm  f=0.5694  <S**2>=0.000
     309 -> 315        0.13894
     310 -> 316        0.10974
     311 -> 313        0.53575
     312 -> 314        0.42731

 Excited State   3:      Singlet-A      2.1847 eV  567.50 nm  f=0.0381  <S**2>=0.000
     309 -> 313        0.20923
     310 -> 314        0.60823
     312 -> 316       -0.25719

 Excited State   4:      Singlet-A      2.1938 eV  565.15 nm  f=0.1500  <S**2>=0.000
     309 -> 313        0.60570
     310 -> 314       -0.20744
     311 -> 315       -0.26429

 Excited State   5:      Singlet-A      2.6062 eV  475.73 nm  f=0.0000  <S**2>=0.000
     312 -> 313        0.70694

 The electronic state is 1-A.
 Alpha  occ. eigenvalues --  -46.87957 -46.87550 -19.26491 -19.26270 -19.19232
 Alpha  occ. eigenvalues --  -19.19079 -19.18946 -19.18610 -19.18328 -19.17951
 Alpha  occ. eigenvalues --  -14.42613 -14.42382 -14.41593 -14.41250 -14.39563
 Alpha  occ. eigenvalues --  -14.39241 -14.38744 -14.38492 -10.39286 -10.39006
 Alpha  occ. eigenvalues --  -10.35580 -10.35289 -10.34551 -10.34129 -10.31895
 Alpha  occ. eigenvalues --  -10.31689 -10.31569 -10.31191 -10.31081 -10.30909
 Alpha  occ. eigenvalues --  -10.30728 -10.30654 -10.30341 -10.30292 -10.30252
 Alpha  occ. eigenvalues --  -10.30051 -10.30032 -10.29790 -10.29781 -10.29406
 Alpha  occ. eigenvalues --  -10.29325 -10.29298 -10.28947 -10.28794 -10.28603
 Alpha  occ. eigenvalues --  -10.28584 -10.28527 -10.28298 -10.28294 -10.28003
 Alpha  occ. eigenvalues --  -10.27947 -10.27892 -10.27887 -10.27738 -10.27653
 Alpha  occ. eigenvalues --  -10.27586 -10.27565 -10.27546 -10.27532 -10.27423
 Alpha  occ. eigenvalues --  -10.27374 -10.27372 -10.27361 -10.27331 -10.27280
 Alpha  occ. eigenvalues --  -10.26955 -10.26950 -10.26605 -10.26553 -10.26393
 Alpha  occ. eigenvalues --  -10.26325 -10.26230 -10.26158 -10.26057 -10.25970
 Alpha  occ. eigenvalues --  -10.25829 -10.25828 -10.25756 -10.25508 -10.25299
 Alpha  occ. eigenvalues --  -10.24988 -10.24927 -10.24765 -10.24705 -10.24656
 Alpha  occ. eigenvalues --  -10.24581  -3.16700  -3.16300  -1.91582  -1.91182
 Alpha  occ. eigenvalues --   -1.91168  -1.91010  -1.90770  -1.90607  -1.16840
 Alpha  occ. eigenvalues --   -1.16563  -1.08789  -1.08561  -1.07345  -1.06864
 Alpha  occ. eigenvalues --   -1.06861  -1.06852  -1.04745  -1.04381  -1.03909
 Alpha  occ. eigenvalues --   -1.03553  -1.03386  -1.02931  -1.02562  -1.02002
 Alpha  occ. eigenvalues --   -0.92134  -0.91880  -0.89635  -0.89394  -0.89375
 Alpha  occ. eigenvalues --   -0.89027  -0.88395  -0.88122  -0.88017  -0.87835
 Alpha  occ. eigenvalues --   -0.87690  -0.87573  -0.87429  -0.87019  -0.85163
 Alpha  occ. eigenvalues --   -0.84888  -0.84036  -0.83783  -0.83101  -0.82835
 Alpha  occ. eigenvalues --   -0.82816  -0.82544  -0.81760  -0.81502  -0.80760
 Alpha  occ. eigenvalues --   -0.80342  -0.78951  -0.78532  -0.77368  -0.77098
 Alpha  occ. eigenvalues --   -0.77038  -0.76797  -0.76092  -0.75725  -0.75014
 Alpha  occ. eigenvalues --   -0.74703  -0.72920  -0.72592  -0.71820  -0.71467
 Alpha  occ. eigenvalues --   -0.69989  -0.69666  -0.69045  -0.68718  -0.67795
 Alpha  occ. eigenvalues --   -0.67499  -0.67411  -0.67103  -0.65467  -0.65163
 Alpha  occ. eigenvalues --   -0.65011  -0.64776  -0.64665  -0.64551  -0.64386
 Alpha  occ. eigenvalues --   -0.64105  -0.62471  -0.62186  -0.60584  -0.60239
 Alpha  occ. eigenvalues --   -0.59980  -0.59679  -0.59136  -0.58886  -0.58654
 Alpha  occ. eigenvalues --   -0.58322  -0.57757  -0.57458  -0.57445  -0.57137
 Alpha  occ. eigenvalues --   -0.56464  -0.56168  -0.56101  -0.55795  -0.55673
 Alpha  occ. eigenvalues --   -0.55466  -0.55352  -0.55153  -0.54664  -0.54397
 Alpha  occ. eigenvalues --   -0.54083  -0.53794  -0.53445  -0.53393  -0.53126
 Alpha  occ. eigenvalues --   -0.53081  -0.53038  -0.52921  -0.52802  -0.52562
 Alpha  occ. eigenvalues --   -0.52514  -0.52314  -0.52055  -0.51801  -0.51786
 Alpha  occ. eigenvalues --   -0.51554  -0.51345  -0.51101  -0.50725  -0.50379
 Alpha  occ. eigenvalues --   -0.50147  -0.50062  -0.49868  -0.49766  -0.49680
 Alpha  occ. eigenvalues --   -0.49379  -0.49376  -0.49265  -0.49093  -0.48989
 Alpha  occ. eigenvalues --   -0.48758  -0.48596  -0.48578  -0.48451  -0.48279
 Alpha  occ. eigenvalues --   -0.48236  -0.47848  -0.47490  -0.47444  -0.47015
 Alpha  occ. eigenvalues --   -0.46940  -0.46739  -0.46605  -0.46505  -0.46442
 Alpha  occ. eigenvalues --   -0.46303  -0.46168  -0.45987  -0.45983  -0.45724
 Alpha  occ. eigenvalues --   -0.45312  -0.45108  -0.44737  -0.44657  -0.44414
 Alpha  occ. eigenvalues --   -0.44366  -0.44283  -0.44246  -0.44176  -0.44012
 Alpha  occ. eigenvalues --   -0.43983  -0.43838  -0.43660  -0.43540  -0.43461
 Alpha  occ. eigenvalues --   -0.43279  -0.43176  -0.42881  -0.42840  -0.42800
 Alpha  occ. eigenvalues --   -0.42759  -0.42456  -0.42136  -0.41869  -0.41856
 Alpha  occ. eigenvalues --   -0.41707  -0.41564  -0.41355  -0.41293  -0.41031
 Alpha  occ. eigenvalues --   -0.40974  -0.40871  -0.40682  -0.40620  -0.40593
 Alpha  occ. eigenvalues --   -0.40447  -0.40392  -0.40130  -0.39514  -0.39336
 Alpha  occ. eigenvalues --   -0.38589  -0.38250  -0.37951  -0.37558  -0.37448
 Alpha  occ. eigenvalues --   -0.37445  -0.37164  -0.37091  -0.36891  -0.36686
 Alpha  occ. eigenvalues --   -0.36346  -0.36118  -0.34440  -0.34145  -0.33973
 Alpha  occ. eigenvalues --   -0.33775  -0.33342  -0.33066  -0.31475  -0.31188
 Alpha  occ. eigenvalues --   -0.31168  -0.30863  -0.30189  -0.29856  -0.29605
 Alpha  occ. eigenvalues --   -0.29476  -0.29220  -0.29105  -0.24236  -0.23925
 Alpha  occ. eigenvalues --   -0.21280  -0.21007
 Alpha virt. eigenvalues --   -0.08928  -0.08683  -0.01898  -0.01574  -0.00213
 Alpha virt. eigenvalues --    0.00080   0.02051   0.02310   0.02909   0.03320
 Alpha virt. eigenvalues --    0.04544   0.04842   0.04897   0.05252   0.05962

 Mulliken charges:
               1
     1  Mg   0.837609
     2  C   -0.003506
     3  C   -0.094841
     4  C   -0.045379
     5  C   -0.063523
     6  N   -0.256813
     7  C   -0.052810
     8  C   -0.013861
     9  C   -0.086840
    10  C    0.045929
    11  C    0.104742
    12  C    0.053671
    13  C   -0.071510
    14  H    0.034965
    15  N   -0.433180
    16  C    0.167918
    17  C   -0.177748
    18  C   -0.004188
    19  C    0.148408
    20  C    0.110241
    21  C    0.012105
    22  O   -0.248534
    23  C    0.062748
    24  N   -0.341174
    25  C    0.041240
    26  C   -0.028341
    27  C   -0.024110
    28  C    0.074999
    29  C    0.076024
    30  C    0.034935
    31  C   -0.004515
    32  N   -0.310510
    33  C    0.080435
    34  C   -0.169445
    35  C    0.008405
    36  C    0.082856
    37  C    0.127283
    38  C    0.046075
    39  O   -0.188244
    40  C   -0.005291
    41  C    0.213024
    42  O   -0.258042
    43  O   -0.304489
    44  C    0.157761
    45  H   -0.017529
    46  H   -0.016103
    47  H   -0.040961
    48  H    0.001205
    49  H   -0.004403
    50  H    0.025669
    51  H    0.016777
    52  H    0.016832
    53  H    0.010092
    54  H    0.043290
    55  H    0.018650
    56  H    0.017815
    57  H    0.005753
    58  H    0.027349
    59  H    0.038526
    60  H    0.037547
    61  H    0.036464
    62  H    0.030097
    63  H    0.017463
    64  H    0.009637
    65  H    0.023787
    66  H    0.012404
    67  H    0.004936
    68  H    0.006967
    69  H    0.004674
    70  H    0.010045
    71  H    0.018905
    72  H    0.028066
    73  H    0.047667
    74  H    0.009521
    75  H    0.046273
    76  H    0.035432
    77  H    0.043454
    78  H    0.046179
    79  H    0.053040
    80  Mg   0.838001
    81  C   -0.016848
    82  C   -0.087609
    83  C   -0.045378
    84  C   -0.064881
    85  N   -0.254583
    86  C   -0.049707
    87  C   -0.015108
    88  C   -0.090476
    89  C    0.045643
    90  C    0.114123
    91  C    0.062595
    92  C   -0.077607
    93  H    0.034258
    94  N   -0.423609
    95  C    0.162842
    96  C   -0.174000
    97  C   -0.007842
    98  C    0.152297
    99  C    0.099248
   100  C    0.015716
   101  O   -0.252916
   102  C    0.061158
   103  N   -0.350003
   104  C    0.037656
   105  C   -0.019897
   106  C   -0.034771
   107  C    0.088914
   108  C    0.073598
   109  C    0.034795
   110  C   -0.007627
   111  N   -0.324090
   112  C    0.078407
   113  C   -0.163256
   114  C    0.002226
   115  C    0.096111
   116  C    0.131504
   117  C    0.042292
   118  O   -0.188175
   119  C    0.000923
   120  C    0.211198
   121  O   -0.251227
   122  O   -0.305517
   123  C    0.152141
   124  H   -0.018522
   125  H   -0.015576
   126  H   -0.040678
   127  H   -0.000590
   128  H   -0.004755
   129  H    0.022404
   130  H    0.015840
   131  H    0.017171
   132  H    0.013610
   133  H    0.037464
   134  H    0.020974
   135  H    0.019267
   136  H    0.009019
   137  H    0.026784
   138  H    0.038536
   139  H    0.038333
   140  H    0.036906
   141  H    0.032928
   142  H    0.014226
   143  H    0.012403
   144  H    0.024831
   145  H    0.012152
   146  H    0.005596
   147  H    0.006060
   148  H    0.003515
   149  H    0.010852
   150  H    0.017677
   151  H    0.030162
   152  H    0.045745
   153  H    0.008321
   154  H    0.047018
   155  H    0.035259
   156  H    0.043783
   157  H    0.049399
   158  H    0.053369
 Sum of Mulliken charges =  -0.00000

 Dipole moment (field-independent basis, Debye):
    X=              6.3984    Y=              1.5917    Z=              4.6684  Tot=              8.0788
 Quadrupole moment (field-independent basis, Debye-Ang):
   XX=           -557.3233   YY=           -497.0386   ZZ=           -492.4752
   XY=             17.3140   XZ=             26.2955   YZ=             56.4834

 Normal termination of Gaussian 16 at Sat Sep 11 16:30:33 2021.
