 Gaussian 16, Revision A.03,
 Gaussian 16:  ES64L-G16RevA.03 25-Dec-2016

 -----------------------------------
 #p cam-b3lyp/Def2SVP td=(nstates=5)
 -----------------------------------

 --------------------------------
 TDDFT excited states in gaussian
 --------------------------------
 Symbolic Z-matrix:
 Charge =  0 Multiplicity = 1

                         Standard orientation:
 ---------------------------------------------------------------------
 Center     Atomic      Atomic             Coordinates (Angstroms)
 Number     Number       Type             X           Y           Z
 ---------------------------------------------------------------------
      1         12           0       16.043871    0.521791    0.731345
      2          6           0       16.352337   -2.357007   -1.373313
      3          6           0       17.032138    2.397789   -1.942047
      4          6           0       16.218108    3.014893    2.683447
      5          6           0       16.191768   -1.640463    3.460529
      6          7           0       16.592542   -0.025344   -1.342359
      7          6           0       16.611941   -1.157155   -2.039352
      8          6           0       16.860140   -0.940771   -3.562162
      9          6           0       17.605292    0.467296   -3.498176
     10          6           0       17.016122    0.995218   -2.201989
     11          6           0       19.117599    0.349590   -3.338262
     12          6           0       15.524958   -0.845963   -4.374584
     13          6           0       15.675107   -0.962208   -5.894220
     14          1           0       14.634959   -1.642822   -6.650662
     15          7           0       16.073628    2.457527    0.337785
     16          6           0       16.492347    3.044405   -0.809183
     17          6           0       16.317828    4.499228   -0.609897
     18          6           0       15.942427    4.721634    0.814078
     19          6           0       16.090523    3.392117    1.348708
     20          6           0       16.457756    5.503402   -1.712532
     21          6           0       15.527761    5.941165    1.574951
     22          8           0       15.471095    5.959477    2.852068
     23          6           0       15.271627    7.155895    0.780049
     24          7           0       16.405088    0.698955    2.779703
     25          6           0       16.367752    1.890347    3.386477
     26          6           0       16.373119    1.743252    4.879217
     27          6           0       16.176054    0.185695    5.170650
     28          6           0       16.173469   -0.329189    3.710117
     29          6           0       17.635791    2.240842    5.596208
     30          6           0       14.998741   -0.213221    6.095431
     31          6           0       13.684021    0.087222    5.411075
     32          7           0       16.059109   -1.628368    1.027368
     33          6           0       16.147884   -2.310608    2.249391
     34          6           0       16.231942   -3.748942    1.936026
     35          6           0       16.202735   -3.802766    0.543872
     36          6           0       16.132992   -2.480229    0.020112
     37          6           0       16.379269   -4.800878    2.882683
     38          6           0       16.239061   -4.668543   -0.623590
     39          8           0       16.202465   -5.887010   -0.801051
     40          6           0       16.460249   -3.761323   -1.913495
     41          6           0       15.460335   -4.194499   -2.950722
     42          8           0       14.238124   -4.012287   -2.776469
     43          8           0       16.106522   -4.534109   -4.076621
     44          6           0       15.170124   -4.945744   -5.156376
     45          1           0       17.555859    3.057395   -2.636725
     46          1           0       16.170780    3.840384    3.396723
     47          1           0       16.155070   -2.379647    4.262846
     48          1           0       17.508015   -1.684035   -4.027180
     49          1           0       17.327707    1.112840   -4.331208
     50          1           0       19.420709   -0.682844   -3.164700
     51          1           0       19.368411    0.969818   -2.477505
     52          1           0       19.632979    0.795577   -4.189295
     53          1           0       15.132537    0.168474   -4.303987
     54          1           0       14.807240   -1.589082   -4.025324
     55          1           0       16.658962   -1.343178   -6.169538
     56          1           0       15.644928    0.041557   -6.318183
     57          1           0       16.900641    5.060509   -2.603736
     58          1           0       17.190612    6.239184   -1.381993
     59          1           0       15.513820    6.000119   -1.937452
     60          1           0       16.172671    7.420119    0.226104
     61          1           0       14.900014    7.901701    1.481851
     62          1           0       14.507071    6.935331    0.034560
     63          1           0       15.550964    2.297774    5.329765
     64          1           0       17.051083   -0.254798    5.649154
     65          1           0       17.438274    2.996184    6.357227
     66          1           0       18.325719    2.617202    4.841460
     67          1           0       18.233010    1.459382    6.065320
     68          1           0       15.023173    0.371852    7.014147
     69          1           0       15.007690   -1.267278    6.373163
     70          1           0       13.533156    1.144307    5.627043
     71          1           0       12.884553   -0.517080    5.841052
     72          1           0       13.765880   -0.015808    4.328868
     73          1           0       15.697289   -5.591158    2.569108
     74          1           0       16.152478   -4.459511    3.892454
     75          1           0       17.433369   -5.044690    2.751206
     76          1           0       17.486511   -3.925969   -2.240297
     77          1           0       15.468953   -5.943746   -5.477199
     78          1           0       15.185795   -4.149201   -5.900472
     79          1           0       14.137528   -5.126766   -4.855851
     80         12           0      -15.673637    0.400007   -0.679589
     81          6           0      -17.518449   -1.749324    1.524068
     82          6           0      -17.872440    2.876395    0.137331
     83          6           0      -14.350667    2.185520   -2.944347
     84          6           0      -14.366029   -2.471247   -2.160035
     85          7           0      -17.426670    0.436751    0.668659
     86          6           0      -17.995712   -0.422245    1.500928
     87          6           0      -19.088103    0.195075    2.414783
     88          6           0      -19.487038    1.451489    1.497638
     89          6           0      -18.172235    1.629114    0.741075
     90          6           0      -20.579724    1.137646    0.489229
     91          6           0      -18.517077    0.654878    3.802052
     92          6           0      -19.576237    0.980731    4.857398
     93          1           0      -19.290092    0.659741    6.252951
     94          7           0      -15.728711    2.363472   -0.963025
     95          6           0      -16.683889    3.219686   -0.543722
     96          6           0      -16.271699    4.548184   -1.022612
     97          6           0      -15.080829    4.382025   -1.899501
     98          6           0      -15.018421    2.936924   -1.988288
     99          6           0      -16.940081    5.816776   -0.578348
    100          6           0      -14.159309    5.361849   -2.560531
    101          8           0      -13.333171    5.000334   -3.471366
    102          6           0      -14.317504    6.772254   -2.176833
    103          7           0      -14.690372   -0.069007   -2.450341
    104          6           0      -14.165500    0.895694   -3.226090
    105          6           0      -13.273191    0.311037   -4.294897
    106          6           0      -13.115561   -1.236543   -3.923743
    107          6           0      -14.057457   -1.300831   -2.701413
    108          6           0      -13.781975    0.440586   -5.730420
    109          6           0      -11.668416   -1.779819   -3.771145
    110          6           0      -11.009943   -1.160970   -2.559193
    111          7           0      -15.736523   -1.722401   -0.280262
    112          6           0      -15.140303   -2.751595   -1.041431
    113          6           0      -15.556784   -4.035036   -0.439984
    114          6           0      -16.391608   -3.661074    0.623831
    115          6           0      -16.504759   -2.245203    0.668927
    116          6           0      -15.203353   -5.329640   -0.914540
    117          6           0      -17.211380   -4.142487    1.712372
    118          8           0      -17.428803   -5.244395    2.214632
    119          6           0      -18.078704   -2.930998    2.265930
    120          6           0      -17.972274   -2.930973    3.766327
    121          8           0      -16.883765   -2.702575    4.322742
    122          8           0      -19.208102   -2.984219    4.295738
    123          6           0      -19.155295   -2.975302    5.781989
    124          1           0      -18.635701    3.654979    0.148472
    125          1           0      -13.786103    2.757883   -3.684035
    126          1           0      -13.922490   -3.408313   -2.503344
    127          1           0      -19.953598   -0.435842    2.577994
    128          1           0      -19.700960    2.329375    2.101723
    129          1           0      -20.825711    0.086239    0.475859
    130          1           0      -20.190806    1.447465   -0.471908
    131          1           0      -21.456342    1.764562    0.675921
    132          1           0      -18.054263    1.643675    3.688809
    133          1           0      -17.830695   -0.071756    4.191296
    134          1           0      -20.568687    0.610057    4.573500
    135          1           0      -19.698320    2.065643    4.903083
    136          1           0      -17.887510    5.613493   -0.064099
    137          1           0      -17.233496    6.357872   -1.484440
    138          1           0      -16.281784    6.453842    0.016159
    139          1           0      -15.333707    7.093462   -2.392777
    140          1           0      -13.512903    7.305790   -2.686568
    141          1           0      -14.184404    6.856879   -1.092517
    142          1           0      -12.295688    0.777263   -4.280238
    143          1           0      -13.555360   -1.887097   -4.693926
    144          1           0      -13.072260    0.962687   -6.399591
    145          1           0      -14.733775    0.954598   -5.710139
    146          1           0      -14.037411   -0.499483   -6.216458
    147          1           0      -11.062929   -1.492134   -4.634153
    148          1           0      -11.619158   -2.860473   -3.689032
    149          1           0      -10.648592   -0.200316   -2.938225
    150          1           0      -10.187456   -1.782456   -2.210880
    151          1           0      -11.746899   -0.950006   -1.775587
    152          1           0      -14.947270   -5.920689   -0.045299
    153          1           0      -14.377580   -5.282248   -1.621377
    154          1           0      -16.139814   -5.623103   -1.396411
    155          1           0      -19.104827   -3.081549    1.928310
    156          1           0      -19.698718   -3.860639    6.126304
    157          1           0      -19.552324   -1.989506    6.089113
    158          1           0      -18.189371   -3.124710    6.250087
 ---------------------------------------------------------------------

 SCF Done:  E(RCAM-B3LYP) =  -4069.81176833     A.U. after   19 cycles

 Excitation energies and oscillator strengths:

 Excited State   1:      Singlet-A      1.6753 eV  740.07 nm  f=0.2139  <S**2>=0.000
     310 -> 316        0.16865
     311 -> 313        0.66675
     312 -> 314       -0.16162
     310 <- 316        0.10168
 This state for optimization and/or second-order correction.
 Total Energy, E(TD-HF/TD-DFT) =  -4069.75020197
 Copying the excited state density for this state as the 1-particle RhoCI density.

 Excited State   2:      Singlet-A      1.6801 eV  737.95 nm  f=0.5635  <S**2>=0.000
     309 -> 315        0.17067
     311 -> 313        0.16157
     312 -> 314        0.66638
     309 <- 315        0.10218

 Excited State   3:      Singlet-A      2.1861 eV  567.15 nm  f=0.0988  <S**2>=0.000
     310 -> 313        0.64230
     311 -> 316       -0.27305

 Excited State   4:      Singlet-A      2.1925 eV  565.49 nm  f=0.1019  <S**2>=0.000
     309 -> 314        0.64053
     312 -> 315       -0.27823

 Excited State   5:      Singlet-A      3.0596 eV  405.23 nm  f=0.0000  <S**2>=0.000
     312 -> 313        0.70711

 The electronic state is 1-A.
 Alpha  occ. eigenvalues --  -46.87757 -46.87661 -19.26348 -19.26244 -19.19159
 Alpha  occ. eigenvalues --  -19.18979 -19.18776 -19.18715 -19.18130 -19.18051
 Alpha  occ. eigenvalues --  -14.42498 -14.42410 -14.41410 -14.41359 -14.39363
 Alpha  occ. eigenvalues --  -14.39352 -14.38600 -14.38547 -10.39089 -10.39039
 Alpha  occ. eigenvalues --  -10.35409 -10.35393 -10.34350 -10.34228 -10.31754
 Alpha  occ. eigenvalues --  -10.31640 -10.31366 -10.31309 -10.31024 -10.30869
 Alpha  occ. eigenvalues --  -10.30530 -10.30468 -10.30398 -10.30361 -10.30167
 Alpha  occ. eigenvalues --  -10.30141 -10.29894 -10.29881 -10.29591 -10.29437
 Alpha  occ. eigenvalues --  -10.29401 -10.29215 -10.28720 -10.28710 -10.28654
 Alpha  occ. eigenvalues --  -10.28499 -10.28405 -10.28325 -10.28142 -10.28078
 Alpha  occ. eigenvalues --  -10.28001 -10.27753 -10.27688 -10.27670 -10.27545
 Alpha  occ. eigenvalues --  -10.27516 -10.27484 -10.27469 -10.27466 -10.27461
 Alpha  occ. eigenvalues --  -10.27443 -10.27410 -10.27375 -10.27364 -10.27119
 Alpha  occ. eigenvalues --  -10.27051 -10.26693 -10.26665 -10.26417 -10.26371
 Alpha  occ. eigenvalues --  -10.26198 -10.26142 -10.26132 -10.26028 -10.25979
 Alpha  occ. eigenvalues --  -10.25934 -10.25849 -10.25804 -10.25399 -10.25398
 Alpha  occ. eigenvalues --  -10.24873 -10.24793 -10.24748 -10.24723 -10.24690
 Alpha  occ. eigenvalues --  -10.24643  -3.16499  -3.16410  -1.91381  -1.91293
 Alpha  occ. eigenvalues --   -1.90968  -1.90881  -1.90810  -1.90718  -1.16642
 Alpha  occ. eigenvalues --   -1.16593  -1.08658  -1.08588  -1.07177  -1.06968
 Alpha  occ. eigenvalues --   -1.06944  -1.06602  -1.04541  -1.04496  -1.03721
 Alpha  occ. eigenvalues --   -1.03663  -1.03194  -1.03039  -1.02371  -1.02112
 Alpha  occ. eigenvalues --   -0.91987  -0.91933  -0.89493  -0.89479  -0.89152
 Alpha  occ. eigenvalues --   -0.89149  -0.88247  -0.88219  -0.87831  -0.87794
 Alpha  occ. eigenvalues --   -0.87684  -0.87633  -0.87234  -0.87121  -0.85000
 Alpha  occ. eigenvalues --   -0.84943  -0.83896  -0.83874  -0.82932  -0.82928
 Alpha  occ. eigenvalues --   -0.82653  -0.82609  -0.81596  -0.81546  -0.80557
 Alpha  occ. eigenvalues --   -0.80443  -0.78758  -0.78636  -0.77179  -0.77145
 Alpha  occ. eigenvalues --   -0.76898  -0.76895  -0.75884  -0.75839  -0.74859
 Alpha  occ. eigenvalues --   -0.74803  -0.72735  -0.72699  -0.71633  -0.71582
 Alpha  occ. eigenvalues --   -0.69866  -0.69755  -0.68834  -0.68828  -0.67602
 Alpha  occ. eigenvalues --   -0.67602  -0.67200  -0.67180  -0.65272  -0.65247
 Alpha  occ. eigenvalues --   -0.64814  -0.64770  -0.64654  -0.64581  -0.64229
 Alpha  occ. eigenvalues --   -0.64203  -0.62278  -0.62258  -0.60403  -0.60340
 Alpha  occ. eigenvalues --   -0.59797  -0.59765  -0.58993  -0.58948  -0.58464
 Alpha  occ. eigenvalues --   -0.58425  -0.57554  -0.57545  -0.57269  -0.57236
 Alpha  occ. eigenvalues --   -0.56270  -0.56204  -0.55939  -0.55886  -0.55481
 Alpha  occ. eigenvalues --   -0.55452  -0.55299  -0.55247  -0.54486  -0.54483
 Alpha  occ. eigenvalues --   -0.53913  -0.53856  -0.53259  -0.53228  -0.53183
 Alpha  occ. eigenvalues --   -0.53142  -0.52902  -0.52875  -0.52717  -0.52669
 Alpha  occ. eigenvalues --   -0.52397  -0.52397  -0.51884  -0.51875  -0.51659
 Alpha  occ. eigenvalues --   -0.51577  -0.51201  -0.51156  -0.50533  -0.50476
 Alpha  occ. eigenvalues --   -0.49991  -0.49981  -0.49879  -0.49867  -0.49489
 Alpha  occ. eigenvalues --   -0.49475  -0.49203  -0.49175  -0.49105  -0.49057
 Alpha  occ. eigenvalues --   -0.48559  -0.48554  -0.48422  -0.48406  -0.48376
 Alpha  occ. eigenvalues --   -0.48340  -0.47655  -0.47595  -0.47258  -0.47119
 Alpha  occ. eigenvalues --   -0.46757  -0.46709  -0.46555  -0.46516  -0.46319
 Alpha  occ. eigenvalues --   -0.46270  -0.46123  -0.46085  -0.45822  -0.45782
 Alpha  occ. eigenvalues --   -0.45209  -0.45162  -0.44538  -0.44514  -0.44476
 Alpha  occ. eigenvalues --   -0.44467  -0.44128  -0.44105  -0.44077  -0.44049
 Alpha  occ. eigenvalues --   -0.43980  -0.43940  -0.43552  -0.43455  -0.43386
 Alpha  occ. eigenvalues --   -0.43346  -0.42988  -0.42930  -0.42901  -0.42659
 Alpha  occ. eigenvalues --   -0.42614  -0.42552  -0.41969  -0.41962  -0.41669
 Alpha  occ. eigenvalues --   -0.41664  -0.41494  -0.41459  -0.41102  -0.40990
 Alpha  occ. eigenvalues --   -0.40829  -0.40784  -0.40723  -0.40698  -0.40531
 Alpha  occ. eigenvalues --   -0.40492  -0.40227  -0.40194  -0.39422  -0.39400
 Alpha  occ. eigenvalues --   -0.38429  -0.38350  -0.37709  -0.37654  -0.37280
 Alpha  occ. eigenvalues --   -0.37265  -0.37224  -0.37200  -0.36770  -0.36673
 Alpha  occ. eigenvalues --   -0.36217  -0.36153  -0.34254  -0.34246  -0.33861
 Alpha  occ. eigenvalues --   -0.33730  -0.33176  -0.33147  -0.31305  -0.31274
 Alpha  occ. eigenvalues --   -0.30996  -0.30973  -0.29989  -0.29955  -0.29410
 Alpha  occ. eigenvalues --   -0.29328  -0.29282  -0.29212  -0.24041  -0.24036
 Alpha  occ. eigenvalues --   -0.21117  -0.21088
 Alpha virt. eigenvalues --   -0.08792  -0.08735  -0.01710  -0.01684  -0.00030
 Alpha virt. eigenvalues --   -0.00019   0.02207   0.02240   0.03164   0.03230
 Alpha virt. eigenvalues --    0.04729   0.04757   0.05138   0.05166   0.06182

 Mulliken charges:
               1
     1  Mg   0.838722
     2  C   -0.002957
     3  C   -0.094113
     4  C   -0.045840
     5  C   -0.063969
     6  N   -0.256764
     7  C   -0.052468
     8  C   -0.014000
     9  C   -0.087015
    10  C    0.046323
    11  C    0.104826
    12  C    0.053466
    13  C   -0.071812
    14  H    0.036160
    15  N   -0.433112
    16  C    0.168434
    17  C   -0.177157
    18  C   -0.004005
    19  C    0.148708
    20  C    0.110191
    21  C    0.012301
    22  O   -0.249632
    23  C    0.062460
    24  N   -0.341132
    25  C    0.041230
    26  C   -0.028165
    27  C   -0.023992
    28  C    0.074865
    29  C    0.076186
    30  C    0.035138
    31  C   -0.004515
    32  N   -0.310484
    33  C    0.080430
    34  C   -0.169704
    35  C    0.008352
    36  C    0.083011
    37  C    0.127306
    38  C    0.046127
    39  O   -0.188444
    40  C   -0.005329
    41  C    0.212862
    42  O   -0.257056
    43  O   -0.304817
    44  C    0.157691
    45  H   -0.017632
    46  H   -0.016850
    47  H   -0.041487
    48  H    0.000913
    49  H   -0.004032
    50  H    0.025456
    51  H    0.016431
    52  H    0.016626
    53  H    0.011233
    54  H    0.044148
    55  H    0.017833
    56  H    0.017951
    57  H    0.005860
    58  H    0.026784
    59  H    0.039579
    60  H    0.037314
    61  H    0.035645
    62  H    0.031548
    63  H    0.016574
    64  H    0.009432
    65  H    0.023195
    66  H    0.012517
    67  H    0.004725
    68  H    0.006352
    69  H    0.004735
    70  H    0.008789
    71  H    0.018208
    72  H    0.028996
    73  H    0.047598
    74  H    0.009126
    75  H    0.045972
    76  H    0.035117
    77  H    0.042922
    78  H    0.046394
    79  H    0.053721
    80  Mg   0.837881
    81  C   -0.016815
    82  C   -0.087802
    83  C   -0.045488
    84  C   -0.064857
    85  N   -0.254572
    86  C   -0.049839
    87  C   -0.015111
    88  C   -0.090503
    89  C    0.045764
    90  C    0.114384
    91  C    0.062532
    92  C   -0.077911
    93  H    0.034942
    94  N   -0.423498
    95  C    0.162933
    96  C   -0.174632
    97  C   -0.007825
    98  C    0.152112
    99  C    0.099371
   100  C    0.015587
   101  O   -0.253180
   102  C    0.061186
   103  N   -0.350063
   104  C    0.037502
   105  C   -0.019822
   106  C   -0.034826
   107  C    0.088913
   108  C    0.073663
   109  C    0.034734
   110  C   -0.007698
   111  N   -0.324111
   112  C    0.078464
   113  C   -0.163091
   114  C    0.002244
   115  C    0.096219
   116  C    0.131474
   117  C    0.042406
   118  O   -0.187839
   119  C    0.000899
   120  C    0.211274
   121  O   -0.250978
   122  O   -0.305655
   123  C    0.152024
   124  H   -0.019683
   125  H   -0.015577
   126  H   -0.040404
   127  H   -0.000653
   128  H   -0.004318
   129  H    0.022447
   130  H    0.014407
   131  H    0.016270
   132  H    0.013932
   133  H    0.037704
   134  H    0.020768
   135  H    0.019592
   136  H    0.008755
   137  H    0.026117
   138  H    0.039808
   139  H    0.038231
   140  H    0.036387
   141  H    0.033924
   142  H    0.014433
   143  H    0.012408
   144  H    0.025137
   145  H    0.011597
   146  H    0.005665
   147  H    0.006291
   148  H    0.003704
   149  H    0.010936
   150  H    0.018071
   151  H    0.030076
   152  H    0.046073
   153  H    0.008572
   154  H    0.046917
   155  H    0.035004
   156  H    0.043915
   157  H    0.049483
   158  H    0.053619
 Sum of Mulliken charges =  -0.00000

 Dipole moment (field-independent basis, Debye):
    X=             -0.4243    Y=              7.1292    Z=             -2.7616  Tot=              7.6571
 Quadrupole moment (field-independent basis, Debye-Ang):
   XX=           -353.6674   YY=           -539.5440   ZZ=           -474.5584
   XY=            -22.8719   XZ=            -37.4440   YZ=              5.4205

 Normal termination of Gaussian 16 at Sun Sep 12 11:06:28 2021.
