 Gaussian 16, Revision A.03,
 Gaussian 16:  ES64L-G16RevA.03 25-Dec-2016

 -----------------------------------
 #p cam-b3lyp/Def2SVP td=(nstates=5)
 -----------------------------------

 --------------------------------
 TDDFT excited states in gaussian
 --------------------------------
 Symbolic Z-matrix:
 Charge =  0 Multiplicity = 1

                         Standard orientation:
 ---------------------------------------------------------------------
 Center     Atomic      Atomic             Coordinates (Angstroms)
 Number     Number       Type             X           Y           Z
 ---------------------------------------------------------------------
      1         12           0        6.801939   -0.481343    0.246036
      2          6           0        6.938787    2.652954   -1.477238
      3          6           0        7.567081    1.224122    3.100683
      4          6           0        7.133911   -3.280133    1.699716
      5          6           0        7.173879   -2.033128   -2.852236
      6          7           0        7.179399    1.665027    0.634968
      7          6           0        7.142343    2.771700   -0.100608
      8          6           0        7.264984    4.077206    0.740812
      9          6           0        8.012075    3.484060    2.018322
     10          6           0        7.530642    2.046258    1.935437
     11          6           0        9.532463    3.500706    1.897304
     12          6           0        5.867749    4.673676    1.119874
     13          6           0        5.893117    6.108528    1.654580
     14          1           0        4.794946    7.001341    1.316564
     15          7           0        6.798297   -0.934728    2.168866
     16          6           0        7.121429   -0.112017    3.195521
     17          6           0        6.962979   -0.915289    4.426914
     18          6           0        6.705227   -2.324779    4.020715
     19          6           0        6.897325   -2.240065    2.595479
     20          6           0        7.011647   -0.328315    5.804172
     21          6           0        6.353519   -3.555304    4.795469
     22          8           0        6.401533   -4.722733    4.276452
     23          6           0        6.032514   -3.364387    6.221494
     24          7           0        7.329450   -2.382269   -0.436495
     25          6           0        7.341214   -3.433623    0.390246
     26          6           0        7.468790   -4.722200   -0.366876
     27          6           0        7.297114   -4.347374   -1.909531
     28          6           0        7.175321   -2.810153   -1.766742
     29          6           0        8.785613   -5.486094   -0.170783
     30          6           0        6.199645   -5.104034   -2.699118
     31          6           0        4.833166   -4.708150   -2.186175
     32          7           0        6.842565    0.153538   -1.829132
     33          6           0        7.031421   -0.659519   -2.956051
     34          6           0        7.090370    0.233361   -4.127955
     35          6           0        6.947378    1.513410   -3.596097
     36          6           0        6.834264    1.427589   -2.179011
     37          6           0        7.315258   -0.171184   -5.473393
     38          6           0        6.888545    2.935472   -3.892973
     39          8           0        6.838241    3.604255   -4.926264
     40          6           0        7.002932    3.738563   -2.522648
     41          6           0        5.921745    4.784658   -2.517297
     42          8           0        4.717788    4.460086   -2.467254
     43          8           0        6.473831    5.993642   -2.332629
     44          6           0        5.452456    7.073888   -2.287739
     45          1           0        8.031830    1.614873    4.008021
     46          1           0        7.144638   -4.275163    2.149426
     47          1           0        7.203372   -2.451842   -3.859838
     48          1           0        7.873057    4.857598    0.282926
     49          1           0        7.666893    3.946558    2.942804
     50          1           0        9.849342    3.799026    0.898047
     51          1           0        9.852514    2.480380    2.109421
     52          1           0        9.976226    4.121886    2.675755
     53          1           0        5.481846    4.155371    1.997655
     54          1           0        5.181437    4.616119    0.274304
     55          1           0        6.851360    6.590239    1.458028
     56          1           0        5.827780    6.069005    2.741948
     57          1           0        7.380375    0.696567    5.789926
     58          1           0        7.768674   -0.881652    6.359543
     59          1           0        6.052191   -0.402981    6.316228
     60          1           0        6.885061   -2.907244    6.724221
     61          1           0        5.719150   -4.339635    6.592365
     62          1           0        5.209647   -2.653985    6.306150
     63          1           0        6.685944   -5.423261   -0.080359
     64          1           0        8.208611   -4.530832   -2.478909
     65          1           0        8.650601   -6.506029    0.190062
     66          1           0        9.411258   -4.909914    0.510302
     67          1           0        9.419657   -5.538652   -1.055454
     68          1           0        6.298837   -6.178824   -2.551018
     69          1           0        6.231885   -4.912684   -3.771776
     70          1           0        4.699880   -5.357987   -1.322011
     71          1           0        4.071903   -4.903004   -2.942298
     72          1           0        4.826257   -3.679690   -1.824638
     73          1           0        6.610354    0.393423   -6.083555
     74          1           0        7.171658   -1.244774   -5.593336
     75          1           0        8.355203    0.128066   -5.603088
     76          1           0        7.999105    4.179289   -2.499823
     77          1           0        5.724596    7.804780   -3.049297
     78          1           0        5.406738    7.414313   -1.253125
     79          1           0        4.448016    6.801413   -2.613615
     80         12           0       -6.415704   -0.897649   -0.005801
     81          6           0       -8.938980    1.649770    0.145302
     82          6           0       -4.098124    1.604468    0.047259
     83          6           0       -4.189804   -3.081858   -0.590588
     84          6           0       -8.875018   -3.068961   -1.181767
     85          7           0       -6.616176    1.303172    0.086149
     86          6           0       -7.623474    2.155344    0.202416
     87          6           0       -7.196312    3.623306    0.471067
     88          6           0       -5.717017    3.560926   -0.150752
     89          6           0       -5.436907    2.070910    0.033859
     90          6           0       -5.675301    3.874187   -1.637179
     91          6           0       -7.161899    3.965165    2.002067
     92          6           0       -7.054888    5.457008    2.325633
     93          1           0       -7.753716    5.965824    3.502588
     94          7           0       -4.448505   -0.825981    0.246293
     95          6           0       -3.669956    0.276224    0.263511
     96          6           0       -2.293998   -0.206150    0.459077
     97          6           0       -2.303960   -1.692749    0.390949
     98          6           0       -3.674430   -1.928768   -0.016729
     99          6           0       -1.145455    0.711525    0.762608
    100          6           0       -1.250404   -2.729707    0.637811
    101          8           0       -1.413857   -3.952087    0.288663
    102          6           0        0.015109   -2.253950    1.215398
    103          7           0       -6.465313   -2.737593   -0.972476
    104          6           0       -5.368296   -3.511984   -1.041658
    105          6           0       -5.709022   -4.897657   -1.535832
    106          6           0       -7.306676   -4.966431   -1.554249
    107          6           0       -7.627307   -3.515198   -1.134127
    108          6           0       -5.168207   -5.262631   -2.918120
    109          6           0       -7.970241   -6.128137   -0.765070
    110          6           0       -7.742444   -5.941057    0.717662
    111          7           0       -8.558304   -0.822332   -0.273500
    112          6           0       -9.387537   -1.834038   -0.805387
    113          6           0      -10.752377   -1.275840   -0.895161
    114          6           0      -10.616933    0.039859   -0.427101
    115          6           0       -9.259469    0.290803   -0.089771
    116          6           0      -11.896015   -1.952541   -1.405343
    117          6           0      -11.311691    1.276864   -0.151689
    118          8           0      -12.489477    1.632478   -0.161535
    119          6           0      -10.233211    2.414280    0.112038
    120          6           0      -10.638653    3.159845    1.353921
    121          8           0      -10.642330    2.590946    2.459789
    122          8           0      -10.744376    4.470035    1.066528
    123          6           0      -11.133791    5.252889    2.269572
    124          1           0       -3.299278    2.314093   -0.169902
    125          1           0       -3.482393   -3.905714   -0.710300
    126          1           0       -9.715908   -3.713760   -1.445961
    127          1           0       -7.786151    4.370069   -0.046827
    128          1           0       -5.018179    4.155337    0.432051
    129          1           0       -6.665738    3.971668   -2.056316
    130          1           0       -5.149410    3.047888   -2.097303
    131          1           0       -5.061005    4.760806   -1.818474
    132          1           0       -6.213152    3.612330    2.426492
    133          1           0       -8.011671    3.546332    2.505166
    134          1           0       -7.267007    6.084614    1.451528
    135          1           0       -6.015210    5.684708    2.573114
    136          1           0       -1.411496    1.760988    0.585818
    137          1           0       -0.364315    0.501209    0.024068
    138          1           0       -0.736316    0.557465    1.763388
    139          1           0        0.451961   -1.504267    0.559956
    140          1           0        0.607481   -3.152016    1.401062
    141          1           0       -0.200432   -1.753654    2.166111
    142          1           0       -5.332528   -5.653557   -0.857624
    143          1           0       -7.697378   -5.091758   -2.574779
    144          1           0       -4.537938   -6.171927   -2.914080
    145          1           0       -4.613098   -4.416893   -3.301687
    146          1           0       -5.925511   -5.409499   -3.686304
    147          1           0       -7.506734   -7.080930   -1.032498
    148          1           0       -9.034662   -6.224279   -0.951455
    149          1           0       -6.743206   -6.360337    0.868657
    150          1           0       -8.489704   -6.485241    1.291693
    151          1           0       -7.696226   -4.877124    0.977586
    152          1           0      -12.712812   -1.736515   -0.729573
    153          1           0      -11.720323   -3.023055   -1.488509
    154          1           0      -11.985257   -1.473950   -2.384250
    155          1           0      -10.217063    3.060457   -0.766466
    156          1           0      -12.038740    5.810354    2.008854
    157          1           0      -10.239675    5.843731    2.543817
    158          1           0      -11.468822    4.700883    3.139915
 ---------------------------------------------------------------------

 SCF Done:  E(RCAM-B3LYP) =  -4069.81200494     A.U. after   19 cycles

 Excitation energies and oscillator strengths:

 Excited State   1:      Singlet-A      1.6742 eV  740.56 nm  f=0.3790  <S**2>=0.000
     310 -> 316       -0.16084
     311 -> 313        0.25464
     312 -> 314        0.63717
 This state for optimization and/or second-order correction.
 Total Energy, E(TD-HF/TD-DFT) =  -4069.75047961
 Copying the excited state density for this state as the 1-particle RhoCI density.

 Excited State   2:      Singlet-A      1.6795 eV  738.22 nm  f=0.4083  <S**2>=0.000
     309 -> 315        0.16355
     311 -> 313        0.63673
     312 -> 314       -0.25443

 Excited State   3:      Singlet-A      2.1859 eV  567.21 nm  f=0.0358  <S**2>=0.000
     309 -> 313       -0.21912
     310 -> 314        0.60462
     312 -> 316        0.25630

 Excited State   4:      Singlet-A      2.1948 eV  564.91 nm  f=0.1514  <S**2>=0.000
     309 -> 313        0.60210
     310 -> 314        0.21729
     311 -> 315       -0.26319

 Excited State   5:      Singlet-A      2.5932 eV  478.12 nm  f=0.0000  <S**2>=0.000
     312 -> 313        0.70688

 The electronic state is 1-A.
 Alpha  occ. eigenvalues --  -46.87984 -46.87532 -19.26541 -19.26269 -19.19290
 Alpha  occ. eigenvalues --  -19.19075 -19.18947 -19.18571 -19.18358 -19.17935
 Alpha  occ. eigenvalues --  -14.42637 -14.42367 -14.41611 -14.41232 -14.39585
 Alpha  occ. eigenvalues --  -14.39220 -14.38773 -14.38473 -10.39340 -10.39002
 Alpha  occ. eigenvalues --  -10.35579 -10.35248 -10.34581 -10.34115 -10.31945
 Alpha  occ. eigenvalues --  -10.31691 -10.31594 -10.31178 -10.31103 -10.30886
 Alpha  occ. eigenvalues --  -10.30751 -10.30675 -10.30349 -10.30274 -10.30230
 Alpha  occ. eigenvalues --  -10.30068 -10.30008 -10.29797 -10.29779 -10.29422
 Alpha  occ. eigenvalues --  -10.29296 -10.29266 -10.28971 -10.28816 -10.28597
 Alpha  occ. eigenvalues --  -10.28580 -10.28551 -10.28318 -10.28270 -10.28000
 Alpha  occ. eigenvalues --  -10.27966 -10.27905 -10.27866 -10.27752 -10.27646
 Alpha  occ. eigenvalues --  -10.27589 -10.27577 -10.27529 -10.27523 -10.27410
 Alpha  occ. eigenvalues --  -10.27365 -10.27357 -10.27326 -10.27270 -10.27241
 Alpha  occ. eigenvalues --  -10.26986 -10.26941 -10.26598 -10.26532 -10.26409
 Alpha  occ. eigenvalues --  -10.26257 -10.26197 -10.26171 -10.26046 -10.25987
 Alpha  occ. eigenvalues --  -10.25854 -10.25808 -10.25744 -10.25505 -10.25294
 Alpha  occ. eigenvalues --  -10.25011 -10.24944 -10.24743 -10.24650 -10.24645
 Alpha  occ. eigenvalues --  -10.24564  -3.16729  -3.16282  -1.91611  -1.91197
 Alpha  occ. eigenvalues --   -1.91164  -1.91039  -1.90753  -1.90590  -1.16891
 Alpha  occ. eigenvalues --   -1.16561  -1.08820  -1.08547  -1.07345  -1.06908
 Alpha  occ. eigenvalues --   -1.06859  -1.06823  -1.04768  -1.04364  -1.03927
 Alpha  occ. eigenvalues --   -1.03534  -1.03407  -1.02911  -1.02582  -1.01983
 Alpha  occ. eigenvalues --   -0.92159  -0.91863  -0.89638  -0.89396  -0.89377
 Alpha  occ. eigenvalues --   -0.89023  -0.88395  -0.88107  -0.88038  -0.87853
 Alpha  occ. eigenvalues --   -0.87672  -0.87554  -0.87434  -0.86961  -0.85182
 Alpha  occ. eigenvalues --   -0.84876  -0.84033  -0.83770  -0.83093  -0.82830
 Alpha  occ. eigenvalues --   -0.82787  -0.82523  -0.81789  -0.81491  -0.80780
 Alpha  occ. eigenvalues --   -0.80324  -0.78961  -0.78488  -0.77379  -0.77115
 Alpha  occ. eigenvalues --   -0.77016  -0.76788  -0.76113  -0.75710  -0.75019
 Alpha  occ. eigenvalues --   -0.74687  -0.72936  -0.72570  -0.71836  -0.71455
 Alpha  occ. eigenvalues --   -0.69974  -0.69652  -0.69061  -0.68702  -0.67813
 Alpha  occ. eigenvalues --   -0.67478  -0.67428  -0.67080  -0.65489  -0.65152
 Alpha  occ. eigenvalues --   -0.65034  -0.64793  -0.64649  -0.64537  -0.64389
 Alpha  occ. eigenvalues --   -0.64090  -0.62502  -0.62176  -0.60591  -0.60198
 Alpha  occ. eigenvalues --   -0.60001  -0.59667  -0.59154  -0.58869  -0.58673
 Alpha  occ. eigenvalues --   -0.58302  -0.57791  -0.57456  -0.57446  -0.57114
 Alpha  occ. eigenvalues --   -0.56482  -0.56201  -0.56071  -0.55780  -0.55685
 Alpha  occ. eigenvalues --   -0.55478  -0.55323  -0.55141  -0.54678  -0.54387
 Alpha  occ. eigenvalues --   -0.54106  -0.53788  -0.53455  -0.53409  -0.53105
 Alpha  occ. eigenvalues --   -0.53102  -0.53015  -0.52925  -0.52786  -0.52514
 Alpha  occ. eigenvalues --   -0.52493  -0.52300  -0.52075  -0.51818  -0.51772
 Alpha  occ. eigenvalues --   -0.51531  -0.51361  -0.51086  -0.50716  -0.50313
 Alpha  occ. eigenvalues --   -0.50147  -0.50060  -0.49841  -0.49743  -0.49694
 Alpha  occ. eigenvalues --   -0.49395  -0.49353  -0.49283  -0.49068  -0.48981
 Alpha  occ. eigenvalues --   -0.48784  -0.48608  -0.48583  -0.48436  -0.48265
 Alpha  occ. eigenvalues --   -0.48195  -0.47858  -0.47460  -0.47456  -0.46972
 Alpha  occ. eigenvalues --   -0.46952  -0.46759  -0.46587  -0.46521  -0.46429
 Alpha  occ. eigenvalues --   -0.46319  -0.46138  -0.46009  -0.45971  -0.45715
 Alpha  occ. eigenvalues --   -0.45314  -0.45093  -0.44760  -0.44662  -0.44398
 Alpha  occ. eigenvalues --   -0.44349  -0.44298  -0.44251  -0.44190  -0.44001
 Alpha  occ. eigenvalues --   -0.43956  -0.43800  -0.43686  -0.43555  -0.43452
 Alpha  occ. eigenvalues --   -0.43264  -0.43193  -0.42923  -0.42829  -0.42783
 Alpha  occ. eigenvalues --   -0.42752  -0.42433  -0.42138  -0.41875  -0.41856
 Alpha  occ. eigenvalues --   -0.41721  -0.41549  -0.41343  -0.41309  -0.41044
 Alpha  occ. eigenvalues --   -0.40978  -0.40860  -0.40680  -0.40599  -0.40572
 Alpha  occ. eigenvalues --   -0.40468  -0.40381  -0.40117  -0.39493  -0.39323
 Alpha  occ. eigenvalues --   -0.38592  -0.38239  -0.37974  -0.37547  -0.37471
 Alpha  occ. eigenvalues --   -0.37451  -0.37149  -0.37074  -0.36931  -0.36680
 Alpha  occ. eigenvalues --   -0.36365  -0.36107  -0.34463  -0.34128  -0.34025
 Alpha  occ. eigenvalues --   -0.33768  -0.33363  -0.33048  -0.31477  -0.31207
 Alpha  occ. eigenvalues --   -0.31131  -0.30845  -0.30220  -0.29843  -0.29622
 Alpha  occ. eigenvalues --   -0.29500  -0.29187  -0.29082  -0.24258  -0.23908
 Alpha  occ. eigenvalues --   -0.21298  -0.20985
 Alpha virt. eigenvalues --   -0.08946  -0.08658  -0.01916  -0.01556  -0.00225
 Alpha virt. eigenvalues --    0.00111   0.02027   0.02323   0.02766   0.03334
 Alpha virt. eigenvalues --    0.04522   0.04848   0.04852   0.05258   0.05936

 Mulliken charges:
               1
     1  Mg   0.836134
     2  C   -0.003905
     3  C   -0.094668
     4  C   -0.045401
     5  C   -0.063357
     6  N   -0.256867
     7  C   -0.053011
     8  C   -0.013746
     9  C   -0.086857
    10  C    0.045830
    11  C    0.104708
    12  C    0.053578
    13  C   -0.071572
    14  H    0.034900
    15  N   -0.433357
    16  C    0.167910
    17  C   -0.177501
    18  C   -0.004017
    19  C    0.148318
    20  C    0.110154
    21  C    0.012200
    22  O   -0.248493
    23  C    0.062608
    24  N   -0.341224
    25  C    0.041342
    26  C   -0.028338
    27  C   -0.024134
    28  C    0.074940
    29  C    0.076007
    30  C    0.034830
    31  C   -0.004264
    32  N   -0.310470
    33  C    0.080105
    34  C   -0.169554
    35  C    0.008361
    36  C    0.082351
    37  C    0.127321
    38  C    0.045791
    39  O   -0.188398
    40  C   -0.005179
    41  C    0.213233
    42  O   -0.258824
    43  O   -0.304320
    44  C    0.157810
    45  H   -0.017349
    46  H   -0.015927
    47  H   -0.040793
    48  H    0.001217
    49  H   -0.004216
    50  H    0.025664
    51  H    0.016839
    52  H    0.016960
    53  H    0.010225
    54  H    0.042707
    55  H    0.018723
    56  H    0.018138
    57  H    0.005818
    58  H    0.027433
    59  H    0.039137
    60  H    0.037529
    61  H    0.036598
    62  H    0.030718
    63  H    0.017695
    64  H    0.009613
    65  H    0.023897
    66  H    0.012334
    67  H    0.004984
    68  H    0.007153
    69  H    0.004633
    70  H    0.010527
    71  H    0.020217
    72  H    0.026831
    73  H    0.047493
    74  H    0.009697
    75  H    0.046302
    76  H    0.035543
    77  H    0.043532
    78  H    0.046348
    79  H    0.052669
    80  Mg   0.837621
    81  C   -0.016877
    82  C   -0.087812
    83  C   -0.045427
    84  C   -0.064945
    85  N   -0.254551
    86  C   -0.050011
    87  C   -0.015118
    88  C   -0.090377
    89  C    0.045456
    90  C    0.114199
    91  C    0.062602
    92  C   -0.077583
    93  H    0.034108
    94  N   -0.423630
    95  C    0.162558
    96  C   -0.173591
    97  C   -0.007820
    98  C    0.152315
    99  C    0.098536
   100  C    0.015739
   101  O   -0.253254
   102  C    0.060440
   103  N   -0.350007
   104  C    0.037647
   105  C   -0.019873
   106  C   -0.034690
   107  C    0.088734
   108  C    0.073647
   109  C    0.034818
   110  C   -0.007610
   111  N   -0.324003
   112  C    0.078179
   113  C   -0.163430
   114  C    0.002126
   115  C    0.095967
   116  C    0.131543
   117  C    0.042144
   118  O   -0.188424
   119  C    0.000999
   120  C    0.211172
   121  O   -0.251250
   122  O   -0.305555
   123  C    0.152167
   124  H   -0.017826
   125  H   -0.015668
   126  H   -0.040815
   127  H   -0.000774
   128  H   -0.004375
   129  H    0.022162
   130  H    0.015332
   131  H    0.016959
   132  H    0.013664
   133  H    0.037423
   134  H    0.020906
   135  H    0.019391
   136  H    0.010122
   137  H    0.029682
   138  H    0.038371
   139  H    0.038978
   140  H    0.037697
   141  H    0.032918
   142  H    0.014226
   143  H    0.012260
   144  H    0.024776
   145  H    0.012063
   146  H    0.005549
   147  H    0.005998
   148  H    0.003457
   149  H    0.010864
   150  H    0.017617
   151  H    0.030187
   152  H    0.045642
   153  H    0.008257
   154  H    0.046776
   155  H    0.034999
   156  H    0.043713
   157  H    0.049389
   158  H    0.053338
 Sum of Mulliken charges =  -0.00000

 Dipole moment (field-independent basis, Debye):
    X=              6.0549    Y=              2.4455    Z=              3.0765  Tot=              7.2185
 Quadrupole moment (field-independent basis, Debye-Ang):
   XX=           -558.5514   YY=           -478.3414   ZZ=           -508.0675
   XY=             16.8413   XZ=             40.8040   YZ=             45.6747

 Normal termination of Gaussian 16 at Sat Sep 11 17:52:08 2021.
