 Gaussian 16, Revision A.03,
 Gaussian 16:  ES64L-G16RevA.03 25-Dec-2016

 -----------------------------------
 #p cam-b3lyp/Def2SVP td=(nstates=5)
 -----------------------------------

 --------------------------------
 TDDFT excited states in gaussian
 --------------------------------
 Symbolic Z-matrix:
 Charge =  0 Multiplicity = 1

                         Standard orientation:
 ---------------------------------------------------------------------
 Center     Atomic      Atomic             Coordinates (Angstroms)
 Number     Number       Type             X           Y           Z
 ---------------------------------------------------------------------
      1         12           0        8.005351   -0.616841    0.659060
      2          6           0        8.382308    2.201629   -1.514955
      3          6           0        8.655056    1.492080    3.261636
      4          6           0        8.127063   -3.160984    2.548277
      5          6           0        8.511430   -2.647395   -2.127765
      6          7           0        8.445429    1.551338    0.736365
      7          6           0        8.501582    2.529130   -0.162490
      8          6           0        8.623696    3.946343    0.473097
      9          6           0        9.261854    3.538833    1.876196
     10          6           0        8.727712    2.121403    1.983471
     11          6           0       10.786264    3.489426    1.860834
     12          6           0        7.230824    4.637740    0.656422
     13          6           0        7.281038    6.137372    0.962914
     14          1           0        6.244757    6.999271    0.414644
     15          7           0        7.859224   -0.761774    2.623873
     16          6           0        8.149357    0.201854    3.530808
     17          6           0        7.878906   -0.392445    4.857589
     18          6           0        7.589767   -1.839674    4.657533
     19          6           0        7.876529   -1.986171    3.253367
     20          6           0        7.863066    0.402096    6.127314
     21          6           0        7.138346   -2.921586    5.586951
     22          8           0        7.171347   -4.157043    5.259645
     23          6           0        6.734401   -2.498930    6.940182
     24          7           0        8.496638   -2.616793    0.317792
     25          6           0        8.411686   -3.524862    1.296147
     26          6           0        8.534330   -4.919806    0.758533
     27          6           0        8.477938   -4.787215   -0.831747
     28          6           0        8.410878   -3.243660   -0.937629
     29          6           0        9.803088   -5.683510    1.162292
     30          6           0        7.403212   -5.624517   -1.569519
     31          6           0        6.024096   -5.110999   -1.221043
     32          7           0        8.205663   -0.317862   -1.481391
     33          6           0        8.432870   -1.303493   -2.452773
     34          6           0        8.603988   -0.608324   -3.741775
     35          6           0        8.480118    0.743241   -3.425906
     36          6           0        8.272586    0.884931   -2.024069
     37          6           0        8.898078   -1.226210   -4.989237
     38          6           0        8.499367    2.102025   -3.942812
     39          8           0        8.543364    2.601163   -5.068165
     40          6           0        8.558436    3.106774   -2.708788
     41          6           0        7.523330    4.173466   -2.941235
     42          8           0        6.306258    3.898024   -2.925968
     43          8           0        8.111906    5.378873   -2.907822
     44          6           0        7.135303    6.483653   -3.102406
     45          1           0        9.076207    2.006204    4.127805
     46          1           0        8.067672   -4.072735    3.146292
     47          1           0        8.588369   -3.220108   -3.053797
     48          1           0        9.291725    4.625896   -0.056401
     49          1           0        8.877311    4.151405    2.691429
     50          1           0       11.178860    3.616942    0.852107
     51          1           0       11.049534    2.505808    2.250293
     52          1           0       11.204314    4.211370    2.562836
     53          1           0        6.768128    4.276099    1.574675
     54          1           0        6.598562    4.469038   -0.215994
     55          1           0        8.269042    6.552438    0.761726
     56          1           0        7.144278    6.271423    2.036006
     57          1           0        8.274010    1.400134    5.980376
     58          1           0        8.559252   -0.080024    6.813312
     59          1           0        6.870380    0.438480    6.576293
     60          1           0        7.570999   -1.994858    7.424501
     61          1           0        6.357760   -3.393580    7.434745
     62          1           0        5.937873   -1.759066    6.855963
     63          1           0        7.706350   -5.542633    1.094630
     64          1           0        9.415822   -5.085927   -1.300597
     65          1           0        9.603074   -6.629337    1.666386
     66          1           0       10.406892   -5.026899    1.788050
     67          1           0       10.490036   -5.894072    0.343034
     68          1           0        7.448139   -6.665166   -1.250179
     69          1           0        7.512304   -5.605373   -2.653947
     70          1           0        5.808713   -5.612390   -0.278149
     71          1           0        5.305668   -5.398845   -1.989299
     72          1           0        6.036467   -4.038752   -1.024525
     73          1           0        8.257854   -0.743189   -5.727325
     74          1           0        8.718224   -2.300366   -4.951228
     75          1           0        9.955696   -0.983244   -5.090562
     76          1           0        9.568446    3.514728   -2.684786
     77          1           0        7.485880    7.076917   -3.947017
     78          1           0        7.037211    6.983837   -2.138768
     79          1           0        6.143511    6.194357   -3.451685
     80         12           0       -7.805058   -0.669673   -0.680834
     81          6           0       -9.325840    1.690421    1.554404
     82          6           0       -7.348449    1.914538   -2.859807
     83          6           0       -6.873537   -2.791974   -2.847749
     84          6           0       -9.381411   -3.193372    1.133500
     85          7           0       -8.313273    1.479312   -0.554904
     86          6           0       -8.833626    2.273820    0.368313
     87          6           0       -8.753096    3.787486    0.033828
     88          6           0       -8.656323    3.675579   -1.565227
     89          6           0       -8.034720    2.284876   -1.675758
     90          6           0      -10.012779    3.648241   -2.249792
     91          6           0       -7.475253    4.466527    0.640493
     92          6           0       -7.487833    5.996589    0.617690
     93          1           0       -6.869399    6.714361    1.728898
     94          7           0       -6.766326   -0.425302   -2.354113
     95          6           0       -6.673359    0.697144   -3.097587
     96          6           0       -5.808071    0.354546   -4.236915
     97          6           0       -5.531718   -1.107102   -4.193182
     98          6           0       -6.416091   -1.510545   -3.118379
     99          6           0       -5.265083    1.384157   -5.184805
    100          6           0       -4.631258   -1.996833   -4.995526
    101          8           0       -4.726715   -3.273970   -4.944178
    102          6           0       -3.697383   -1.328314   -5.913371
    103          7           0       -8.251974   -2.679543   -0.969024
    104          6           0       -7.670096   -3.382426   -1.956590
    105          6           0       -7.930426   -4.861636   -1.799849
    106          6           0       -8.608361   -5.028456   -0.361037
    107          6           0       -8.708399   -3.541804    0.045476
    108          6           0       -8.828721   -5.495210   -2.861948
    109          6           0       -7.932356   -6.020416    0.624716
    110          6           0       -6.579375   -5.491153    1.042708
    111          7           0       -8.965504   -0.785133    1.137982
    112          6           0       -9.551634   -1.938431    1.704055
    113          6           0      -10.336874   -1.497610    2.875174
    114          6           0      -10.170471   -0.104632    2.895801
    115          6           0       -9.356655    0.296702    1.802131
    116          6           0      -11.114005   -2.339080    3.720220
    117          6           0      -10.506926    1.118671    3.587909
    118          8           0      -11.096434    1.391676    4.632755
    119          6           0      -10.078827    2.348823    2.676959
    120          6           0       -9.333263    3.329044    3.540560
    121          8           0       -8.235618    3.024426    4.039552
    122          8           0       -9.929822    4.532203    3.457431
    123          6           0       -9.220019    5.540904    4.288401
    124          1           0       -7.362385    2.603682   -3.704662
    125          1           0       -6.489865   -3.577697   -3.502659
    126          1           0       -9.821916   -3.930313    1.808436
    127          1           0       -9.627955    4.361806    0.314104
    128          1           0       -7.985355    4.426709   -1.973863
    129          1           0      -10.822370    3.589343   -1.537596
    130          1           0      -10.003785    2.772651   -2.885648
    131          1           0      -10.114058    4.506516   -2.920184
    132          1           0       -6.620259    4.275783   -0.020824
    133          1           0       -7.298936    4.121481    1.640740
    134          1           0       -8.487358    6.397515    0.409957
    135          1           0       -6.882203    6.336053   -0.226107
    136          1           0       -5.773046    2.349021   -5.064762
    137          1           0       -5.532801    1.060261   -6.196374
    138          1           0       -4.179415    1.484063   -5.121427
    139          1           0       -4.258030   -0.720543   -6.619589
    140          1           0       -3.077925   -2.124388   -6.331008
    141          1           0       -3.070279   -0.640760   -5.334915
    142          1           0       -7.003478   -5.421563   -1.818617
    143          1           0       -9.639572   -5.403411   -0.437510
    144          1           0       -8.349768   -6.340807   -3.390750
    145          1           0       -9.122990   -4.725763   -3.563294
    146          1           0       -9.789360   -5.856315   -2.498666
    147          1           0       -7.752032   -6.979401    0.132784
    148          1           0       -8.525071   -6.219680    1.511263
    149          1           0       -5.927334   -5.805018    0.222088
    150          1           0       -6.268731   -5.936000    1.985922
    151          1           0       -6.575557   -4.395210    1.066062
    152          1           0      -10.917718   -2.025906    4.737020
    153          1           0      -10.867329   -3.388344    3.571941
    154          1           0      -12.119138   -2.099287    3.363175
    155          1           0      -10.989655    2.780510    2.260265
    156          1           0       -9.959846    5.970123    4.971131
    157          1           0       -8.735786    6.230825    3.571970
    158          1           0       -8.473136    5.179851    4.985719
 ---------------------------------------------------------------------

 SCF Done:  E(RCAM-B3LYP) =  -4069.81193690     A.U. after   19 cycles

 Excitation energies and oscillator strengths:

 Excited State   1:      Singlet-A      1.6701 eV  742.36 nm  f=0.0608  <S**2>=0.000
     309 -> 315        0.10523
     310 -> 316        0.13702
     311 -> 313        0.41682
     312 -> 314        0.54528
 This state for optimization and/or second-order correction.
 Total Energy, E(TD-HF/TD-DFT) =  -4069.75056014
 Copying the excited state density for this state as the 1-particle RhoCI density.

 Excited State   2:      Singlet-A      1.6854 eV  735.63 nm  f=0.7006  <S**2>=0.000
     309 -> 315        0.14067
     310 -> 316       -0.10702
     311 -> 313        0.54448
     312 -> 314       -0.41633

 Excited State   3:      Singlet-A      2.1867 eV  567.00 nm  f=0.0577  <S**2>=0.000
     309 -> 313        0.14149
     310 -> 314        0.62677
     312 -> 316       -0.26670

 Excited State   4:      Singlet-A      2.1933 eV  565.30 nm  f=0.1357  <S**2>=0.000
     309 -> 313        0.62500
     310 -> 314       -0.14058
     311 -> 315       -0.27183

 Excited State   5:      Singlet-A      2.7981 eV  443.11 nm  f=0.0000  <S**2>=0.000
     312 -> 313        0.70709

 The electronic state is 1-A.
 Alpha  occ. eigenvalues --  -46.87768 -46.87585 -19.26316 -19.26314 -19.19122
 Alpha  occ. eigenvalues --  -19.19047 -19.18766 -19.18604 -19.18164 -19.17990
 Alpha  occ. eigenvalues --  -14.42424 -14.42423 -14.41419 -14.41286 -14.39372
 Alpha  occ. eigenvalues --  -14.39272 -14.38561 -14.38527 -10.39103 -10.39050
 Alpha  occ. eigenvalues --  -10.35398 -10.35277 -10.34385 -10.34169 -10.31735
 Alpha  occ. eigenvalues --  -10.31725 -10.31385 -10.31241 -10.30945 -10.30884
 Alpha  occ. eigenvalues --  -10.30546 -10.30479 -10.30323 -10.30289 -10.30169
 Alpha  occ. eigenvalues --  -10.30061 -10.29892 -10.29828 -10.29602 -10.29353
 Alpha  occ. eigenvalues --  -10.29319 -10.29221 -10.28737 -10.28655 -10.28604
 Alpha  occ. eigenvalues --  -10.28543 -10.28339 -10.28327 -10.28100 -10.28074
 Alpha  occ. eigenvalues --  -10.27924 -10.27767 -10.27700 -10.27593 -10.27552
 Alpha  occ. eigenvalues --  -10.27458 -10.27452 -10.27434 -10.27411 -10.27408
 Alpha  occ. eigenvalues --  -10.27381 -10.27379 -10.27337 -10.27311 -10.27157
 Alpha  occ. eigenvalues --  -10.26995 -10.26700 -10.26631 -10.26343 -10.26255
 Alpha  occ. eigenvalues --  -10.26218 -10.26129 -10.26075 -10.25988 -10.25965
 Alpha  occ. eigenvalues --  -10.25861 -10.25829 -10.25796 -10.25396 -10.25338
 Alpha  occ. eigenvalues --  -10.24811 -10.24799 -10.24757 -10.24665 -10.24621
 Alpha  occ. eigenvalues --  -10.24616  -3.16510  -3.16335  -1.91392  -1.91217
 Alpha  occ. eigenvalues --   -1.90979  -1.90821  -1.90806  -1.90642  -1.16662
 Alpha  occ. eigenvalues --   -1.16608  -1.08625  -1.08601  -1.07166  -1.06906
 Alpha  occ. eigenvalues --   -1.06855  -1.06668  -1.04556  -1.04421  -1.03731
 Alpha  occ. eigenvalues --   -1.03588  -1.03205  -1.02964  -1.02383  -1.02037
 Alpha  occ. eigenvalues --   -0.91954  -0.91919  -0.89484  -0.89425  -0.89172
 Alpha  occ. eigenvalues --   -0.89086  -0.88250  -0.88152  -0.87849  -0.87726
 Alpha  occ. eigenvalues --   -0.87648  -0.87611  -0.87234  -0.87014  -0.84963
 Alpha  occ. eigenvalues --   -0.84931  -0.83900  -0.83811  -0.82919  -0.82825
 Alpha  occ. eigenvalues --   -0.82627  -0.82571  -0.81584  -0.81541  -0.80578
 Alpha  occ. eigenvalues --   -0.80373  -0.78764  -0.78545  -0.77191  -0.77072
 Alpha  occ. eigenvalues --   -0.76921  -0.76839  -0.75911  -0.75774  -0.74868
 Alpha  occ. eigenvalues --   -0.74738  -0.72748  -0.72626  -0.71649  -0.71513
 Alpha  occ. eigenvalues --   -0.69863  -0.69691  -0.68852  -0.68755  -0.67616
 Alpha  occ. eigenvalues --   -0.67527  -0.67198  -0.67119  -0.65271  -0.65206
 Alpha  occ. eigenvalues --   -0.64836  -0.64702  -0.64601  -0.64589  -0.64235
 Alpha  occ. eigenvalues --   -0.64136  -0.62300  -0.62226  -0.60404  -0.60247
 Alpha  occ. eigenvalues --   -0.59785  -0.59727  -0.58963  -0.58923  -0.58481
 Alpha  occ. eigenvalues --   -0.58357  -0.57582  -0.57499  -0.57281  -0.57161
 Alpha  occ. eigenvalues --   -0.56286  -0.56129  -0.55986  -0.55831  -0.55490
 Alpha  occ. eigenvalues --   -0.55369  -0.55318  -0.55187  -0.54511  -0.54431
 Alpha  occ. eigenvalues --   -0.53880  -0.53846  -0.53269  -0.53198  -0.53150
 Alpha  occ. eigenvalues --   -0.53064  -0.52902  -0.52836  -0.52720  -0.52559
 Alpha  occ. eigenvalues --   -0.52393  -0.52335  -0.51898  -0.51824  -0.51597
 Alpha  occ. eigenvalues --   -0.51580  -0.51177  -0.51137  -0.50522  -0.50356
 Alpha  occ. eigenvalues --   -0.49991  -0.49896  -0.49883  -0.49791  -0.49489
 Alpha  occ. eigenvalues --   -0.49399  -0.49194  -0.49125  -0.49081  -0.49040
 Alpha  occ. eigenvalues --   -0.48583  -0.48495  -0.48433  -0.48412  -0.48312
 Alpha  occ. eigenvalues --   -0.48240  -0.47668  -0.47517  -0.47268  -0.47036
 Alpha  occ. eigenvalues --   -0.46770  -0.46641  -0.46539  -0.46483  -0.46333
 Alpha  occ. eigenvalues --   -0.46196  -0.46143  -0.46022  -0.45816  -0.45767
 Alpha  occ. eigenvalues --   -0.45167  -0.45141  -0.44566  -0.44472  -0.44450
 Alpha  occ. eigenvalues --   -0.44404  -0.44114  -0.44067  -0.44058  -0.44004
 Alpha  occ. eigenvalues --   -0.43997  -0.43846  -0.43501  -0.43490  -0.43361
 Alpha  occ. eigenvalues --   -0.43319  -0.43005  -0.42878  -0.42838  -0.42708
 Alpha  occ. eigenvalues --   -0.42622  -0.42479  -0.41980  -0.41899  -0.41683
 Alpha  occ. eigenvalues --   -0.41602  -0.41515  -0.41391  -0.41117  -0.40921
 Alpha  occ. eigenvalues --   -0.40844  -0.40781  -0.40646  -0.40607  -0.40538
 Alpha  occ. eigenvalues --   -0.40428  -0.40220  -0.40152  -0.39393  -0.39358
 Alpha  occ. eigenvalues --   -0.38435  -0.38284  -0.37736  -0.37591  -0.37287
 Alpha  occ. eigenvalues --   -0.37246  -0.37197  -0.37129  -0.36727  -0.36720
 Alpha  occ. eigenvalues --   -0.36179  -0.36155  -0.34260  -0.34182  -0.33816
 Alpha  occ. eigenvalues --   -0.33787  -0.33162  -0.33103  -0.31297  -0.31166
 Alpha  occ. eigenvalues --   -0.31009  -0.30898  -0.30025  -0.29897  -0.29418
 Alpha  occ. eigenvalues --   -0.29298  -0.29241  -0.29137  -0.24054  -0.23963
 Alpha  occ. eigenvalues --   -0.21099  -0.21041
 Alpha virt. eigenvalues --   -0.08745  -0.08713  -0.01719  -0.01607  -0.00024
 Alpha virt. eigenvalues --    0.00063   0.02219   0.02276   0.03156   0.03308
 Alpha virt. eigenvalues --    0.04738   0.04797   0.05080   0.05209   0.06181

 Mulliken charges:
               1
     1  Mg   0.838807
     2  C   -0.003102
     3  C   -0.094098
     4  C   -0.045736
     5  C   -0.063856
     6  N   -0.256801
     7  C   -0.052569
     8  C   -0.014023
     9  C   -0.087032
    10  C    0.046383
    11  C    0.104804
    12  C    0.053454
    13  C   -0.071679
    14  H    0.035590
    15  N   -0.433180
    16  C    0.168570
    17  C   -0.177001
    18  C   -0.003796
    19  C    0.148791
    20  C    0.110145
    21  C    0.012508
    22  O   -0.249454
    23  C    0.062353
    24  N   -0.341136
    25  C    0.041308
    26  C   -0.028212
    27  C   -0.023960
    28  C    0.074815
    29  C    0.076172
    30  C    0.035097
    31  C   -0.004565
    32  N   -0.310371
    33  C    0.080269
    34  C   -0.169863
    35  C    0.008150
    36  C    0.082893
    37  C    0.127369
    38  C    0.045849
    39  O   -0.188986
    40  C   -0.005258
    41  C    0.212814
    42  O   -0.257506
    43  O   -0.304657
    44  C    0.157908
    45  H   -0.017547
    46  H   -0.016665
    47  H   -0.041501
    48  H    0.000778
    49  H   -0.003969
    50  H    0.025396
    51  H    0.016525
    52  H    0.016666
    53  H    0.011452
    54  H    0.043828
    55  H    0.017844
    56  H    0.018172
    57  H    0.005858
    58  H    0.026897
    59  H    0.040026
    60  H    0.037276
    61  H    0.035929
    62  H    0.031914
    63  H    0.016784
    64  H    0.009374
    65  H    0.023315
    66  H    0.012483
    67  H    0.004715
    68  H    0.006452
    69  H    0.004666
    70  H    0.008981
    71  H    0.018548
    72  H    0.028831
    73  H    0.047186
    74  H    0.009208
    75  H    0.045920
    76  H    0.035100
    77  H    0.042750
    78  H    0.046500
    79  H    0.053102
    80  Mg   0.837903
    81  C   -0.016885
    82  C   -0.087568
    83  C   -0.045435
    84  C   -0.064921
    85  N   -0.254569
    86  C   -0.049987
    87  C   -0.015108
    88  C   -0.090544
    89  C    0.045801
    90  C    0.114382
    91  C    0.062446
    92  C   -0.077763
    93  H    0.034406
    94  N   -0.423571
    95  C    0.163111
    96  C   -0.174301
    97  C   -0.007508
    98  C    0.152179
    99  C    0.099238
   100  C    0.015806
   101  O   -0.253328
   102  C    0.060998
   103  N   -0.350062
   104  C    0.037558
   105  C   -0.019825
   106  C   -0.034763
   107  C    0.088833
   108  C    0.073697
   109  C    0.034773
   110  C   -0.007663
   111  N   -0.324008
   112  C    0.078230
   113  C   -0.163359
   114  C    0.002085
   115  C    0.096070
   116  C    0.131537
   117  C    0.042180
   118  O   -0.188377
   119  C    0.000949
   120  C    0.211225
   121  O   -0.251140
   122  O   -0.305608
   123  C    0.152152
   124  H   -0.019504
   125  H   -0.015531
   126  H   -0.040686
   127  H   -0.000860
   128  H   -0.004147
   129  H    0.022317
   130  H    0.014454
   131  H    0.016264
   132  H    0.014296
   133  H    0.037514
   134  H    0.020648
   135  H    0.019823
   136  H    0.008749
   137  H    0.026229
   138  H    0.041229
   139  H    0.038227
   140  H    0.036708
   141  H    0.035176
   142  H    0.014458
   143  H    0.012223
   144  H    0.025098
   145  H    0.011643
   146  H    0.005525
   147  H    0.006132
   148  H    0.003469
   149  H    0.011035
   150  H    0.017835
   151  H    0.030206
   152  H    0.045723
   153  H    0.008384
   154  H    0.046725
   155  H    0.034866
   156  H    0.043683
   157  H    0.049493
   158  H    0.053330
 Sum of Mulliken charges =  -0.00000

 Dipole moment (field-independent basis, Debye):
    X=              2.0453    Y=              3.1076    Z=              0.1362  Tot=              3.7228
 Quadrupole moment (field-independent basis, Debye-Ang):
   XX=           -498.0297   YY=           -461.5741   ZZ=           -531.5856
   XY=              5.5218   XZ=             71.8657   YZ=             11.3468

 Normal termination of Gaussian 16 at Sat Sep 11 21:01:14 2021.
