 Gaussian 16, Revision A.03,
 Gaussian 16:  ES64L-G16RevA.03 25-Dec-2016

 -----------------------------------
 #p cam-b3lyp/Def2SVP td=(nstates=5)
 -----------------------------------

 --------------------------------
 TDDFT excited states in gaussian
 --------------------------------
 Symbolic Z-matrix:
 Charge =  0 Multiplicity = 1

                         Standard orientation:
 ---------------------------------------------------------------------
 Center     Atomic      Atomic             Coordinates (Angstroms)
 Number     Number       Type             X           Y           Z
 ---------------------------------------------------------------------
      1         12           0       -4.630432   -0.038870    0.335400
      2          6           0       -4.199723    3.337501    1.443020
      3          6           0       -5.602297    1.231140   -2.678836
      4          6           0       -5.450516   -2.981147   -0.517295
      5          6           0       -4.728614   -0.971566    3.691901
      6          7           0       -4.832561    2.038353   -0.402796
      7          6           0       -4.578772    3.241569    0.102213
      8          6           0       -4.680287    4.386848   -0.949170
      9          6           0       -5.655031    3.682143   -1.995718
     10          6           0       -5.319155    2.230788   -1.701305
     11          6           0       -7.133852    3.913355   -1.702238
     12          6           0       -3.294685    4.725564   -1.595009
     13          6           0       -3.244387    6.037755   -2.383031
     14          1           0       -2.022987    6.827976   -2.350165
     15          7           0       -4.940776   -0.814405   -1.454875
     16          6           0       -5.315723   -0.147070   -2.572625
     17          6           0       -5.414141   -1.164598   -3.641096
     18          6           0       -5.250761   -2.503884   -3.010451
     19          6           0       -5.233435   -2.150346   -1.613995
     20          6           0       -5.591968   -0.823110   -5.088685
     21          6           0       -5.140014   -3.884446   -3.576061
     22          8           0       -5.236903   -4.928804   -2.844963
     23          6           0       -5.001787   -3.985377   -5.040216
     24          7           0       -5.253269   -1.710146    1.420086
     25          6           0       -5.489033   -2.878316    0.812814
     26          6           0       -5.643870   -3.989693    1.808205
     27          6           0       -5.221781   -3.378954    3.221921
     28          6           0       -4.961530   -1.917842    2.779552
     29          6           0       -7.047495   -4.601575    1.915198
     30          6           0       -4.110239   -4.121573    4.005126
     31          6           0       -2.794389   -3.997970    3.270035
     32          7           0       -4.316479    0.944967    2.244468
     33          6           0       -4.430846    0.369731    3.518320
     34          6           0       -4.233353    1.451796    4.500256
     35          6           0       -4.032976    2.591803    3.724320
     36          6           0       -4.127073    2.248673    2.345298
     37          6           0       -4.310348    1.317893    5.914674
     38          6           0       -3.785741    4.024456    3.739719
     39          8           0       -3.523218    4.849761    4.615760
     40          6           0       -4.004819    4.586600    2.266007
     41          6           0       -2.831807    5.469359    1.937237
     42          8           0       -1.686847    4.990059    1.807993
     43          8           0       -3.275216    6.688666    1.594861
     44          6           0       -2.163036    7.605578    1.228144
     45          1           0       -6.145156    1.515292   -3.582442
     46          1           0       -5.627096   -4.029288   -0.767613
     47          1           0       -4.661511   -1.202624    4.756590
     48          1           0       -5.134349    5.305750   -0.577861
     49          1           0       -5.395141    3.930035   -3.024664
     50          1           0       -7.276254    4.417827   -0.746648
     51          1           0       -7.584746    2.921043   -1.679782
     52          1           0       -7.614165    4.442150   -2.525920
     53          1           0       -3.090369    4.018425   -2.398919
     54          1           0       -2.507486    4.727875   -0.840265
     55          1           0       -4.110669    6.664482   -2.169307
     56          1           0       -3.334981    5.802915   -3.443617
     57          1           0       -5.846383    0.227365   -5.224039
     58          1           0       -6.472186   -1.362880   -5.437358
     59          1           0       -4.725858   -1.106971   -5.686689
     60          1           0       -5.863527   -3.516971   -5.516188
     61          1           0       -4.846193   -5.041937   -5.255442
     62          1           0       -4.129144   -3.411210   -5.352903
     63          1           0       -4.985653   -4.823810    1.568571
     64          1           0       -6.059593   -3.343407    3.918686
     65          1           0       -7.070813   -5.677284    1.739095
     66          1           0       -7.698114   -4.076692    1.216282
     67          1           0       -7.554693   -4.419111    2.862233
     68          1           0       -4.340415   -5.184202    4.074298
     69          1           0       -3.973276   -3.745217    5.018955
     70          1           0       -2.850671   -4.798976    2.533792
     71          1           0       -1.960082   -4.154773    3.954547
     72          1           0       -2.730612   -3.056878    2.723441
     73          1           0       -3.472689    1.884790    6.320782
     74          1           0       -4.264108    0.271767    6.216479
     75          1           0       -5.285371    1.765293    6.107081
     76          1           0       -4.943153    5.140231    2.277963
     77          1           0       -2.249292    8.485738    1.865415
     78          1           0       -2.226061    7.753437    0.149919
     79          1           0       -1.157000    7.267583    1.479124
     80         12           0        4.220011   -1.432671   -0.503817
     81          6           0        6.303720    1.452526   -0.042398
     82          6           0        2.100629    0.566687   -2.277345
     83          6           0        2.148153   -3.835379   -0.546310
     84          6           0        5.868873   -2.884073    2.201804
     85          7           0        4.301118    0.715397   -1.024878
     86          6           0        5.171724    1.697674   -0.847337
     87          6           0        4.849800    2.993397   -1.639180
     88          6           0        3.267222    2.782618   -1.812088
     89          6           0        3.213996    1.258103   -1.736535
     90          6           0        2.455319    3.346669   -0.657973
     91          6           0        5.578024    3.041530   -3.028207
     92          6           0        5.557409    4.407308   -3.718134
     93          1           0        6.724502    4.811113   -4.497442
     94          7           0        2.654916   -1.758227   -1.679855
     95          6           0        1.926264   -0.833338   -2.339343
     96          6           0        0.874698   -1.579652   -3.047438
     97          6           0        0.941649   -3.003704   -2.620465
     98          6           0        1.925540   -2.915027   -1.560200
     99          6           0       -0.014356   -0.950691   -4.080590
    100          6           0        0.227708   -4.238547   -3.080550
    101          8           0        0.266873   -5.328985   -2.408072
    102          6           0       -0.594626   -4.107352   -4.292175
    103          7           0        3.885836   -3.029256    0.785206
    104          6           0        2.957291   -3.960732    0.505776
    105          6           0        3.085068   -5.151469    1.425671
    106          6           0        4.451649   -4.930946    2.226566
    107          6           0        4.849865   -3.545949    1.671044
    108          6           0        1.940144   -5.350986    2.418498
    109          6           0        5.495704   -6.079437    2.166629
    110          6           0        6.043030   -6.206653    0.763186
    111          7           0        5.918537   -0.930958    0.733657
    112          6           0        6.423121   -1.666358    1.828490
    113          6           0        7.514239   -0.867759    2.423590
    114          6           0        7.553780    0.296464    1.641606
    115          6           0        6.544314    0.237228    0.643115
    116          6           0        8.278798   -1.227173    3.569179
    117          6           0        8.212960    1.566783    1.440417
    118          8           0        9.196846    2.121746    1.927981
    119          6           0        7.350053    2.427960    0.420538
    120          6           0        8.283486    2.996965   -0.612649
    121          8           0        8.885063    2.247579   -1.402033
    122          8           0        8.145955    4.335112   -0.641439
    123          6           0        9.043524    4.944353   -1.658801
    124          1           0        1.259845    1.150525   -2.652989
    125          1           0        1.531472   -4.736373   -0.583641
    126          1           0        6.496716   -3.310813    2.986900
    127          1           0        5.045876    3.914082   -1.102827
    128          1           0        2.926641    3.128312   -2.784645
    129          1           0        3.086230    3.692565    0.147297
    130          1           0        1.821392    2.537006   -0.320890
    131          1           0        1.780151    4.128027   -1.018472
    132          1           0        5.001589    2.455073   -3.755209
    133          1           0        6.589835    2.696435   -2.940096
    134          1           0        5.255382    5.209966   -3.034429
    135          1           0        4.776506    4.398248   -4.482417
    136          1           0        0.058366    0.143724   -4.061366
    137          1           0       -1.047676   -1.159515   -3.783120
    138          1           0        0.153362   -1.353109   -5.081894
    139          1           0       -1.350174   -3.341326   -4.134640
    140          1           0       -0.952467   -5.114850   -4.512994
    141          1           0        0.042946   -3.756763   -5.111446
    142          1           0        3.154331   -6.072056    0.859250
    143          1           0        4.275548   -4.798509    3.304189
    144          1           0        1.458021   -6.343298    2.335082
    145          1           0        1.215401   -4.562149    2.266757
    146          1           0        2.208557   -5.219854    3.465380
    147          1           0        5.021326   -7.035184    2.402577
    148          1           0        6.320711   -5.949752    2.859109
    149          1           0        5.288238   -6.816991    0.258336
    150          1           0        7.010774   -6.704044    0.773048
    151          1           0        6.069010   -5.232555    0.261089
    152          1           0        9.310442   -0.995161    3.340297
    153          1           0        8.152668   -2.278956    3.817377
    154          1           0        7.827270   -0.571573    4.318560
    155          1           0        6.848638    3.208838    0.993587
    156          1           0        9.652859    5.691449   -1.140863
    157          1           0        8.378479    5.307617   -2.464715
    158          1           0        9.808660    4.312683   -2.094694
 ---------------------------------------------------------------------

 SCF Done:  E(RCAM-B3LYP) =  -4069.81173783     A.U. after   19 cycles

 Excitation energies and oscillator strengths:

 Excited State   1:      Singlet-A      1.6406 eV  755.73 nm  f=0.1287  <S**2>=0.000
     309 -> 315       -0.11474
     310 -> 316       -0.11903
     311 -> 313       -0.47589
     312 -> 314        0.49663
 This state for optimization and/or second-order correction.
 Total Energy, E(TD-HF/TD-DFT) =  -4069.75144738
 Copying the excited state density for this state as the 1-particle RhoCI density.

 Excited State   2:      Singlet-A      1.7029 eV  728.08 nm  f=0.6042  <S**2>=0.000
     309 -> 315        0.13206
     310 -> 316       -0.12420
     311 -> 313        0.49385
     312 -> 314        0.47337

 Excited State   3:      Singlet-A      2.1788 eV  569.04 nm  f=0.0076  <S**2>=0.000
     309 -> 313        0.35820
     310 -> 314        0.53733
     311 -> 315       -0.14778
     312 -> 316        0.22195

 Excited State   4:      Singlet-A      2.1952 eV  564.80 nm  f=0.1655  <S**2>=0.000
     309 -> 313        0.53209
     310 -> 314       -0.35351
     311 -> 315       -0.23474
     312 -> 316       -0.15508

 Excited State   5:      Singlet-A      2.2776 eV  544.37 nm  f=0.0000  <S**2>=0.000
     312 -> 313        0.70655

 The electronic state is 1-A.
 Alpha  occ. eigenvalues --  -46.88044 -46.87445 -19.26612 -19.26177 -19.19361
 Alpha  occ. eigenvalues --  -19.19008 -19.18985 -19.18514 -19.18422 -19.17850
 Alpha  occ. eigenvalues --  -14.42717 -14.42260 -14.41674 -14.41155 -14.39664
 Alpha  occ. eigenvalues --  -14.39144 -14.38833 -14.38387 -10.39411 -10.38909
 Alpha  occ. eigenvalues --  -10.35645 -10.35207 -10.34646 -10.34024 -10.32014
 Alpha  occ. eigenvalues --  -10.31675 -10.31611 -10.31205 -10.31058 -10.30835
 Alpha  occ. eigenvalues --  -10.30794 -10.30735 -10.30427 -10.30195 -10.30156
 Alpha  occ. eigenvalues --  -10.30105 -10.29949 -10.29890 -10.29698 -10.29510
 Alpha  occ. eigenvalues --  -10.29233 -10.29214 -10.29103 -10.29008 -10.28634
 Alpha  occ. eigenvalues --  -10.28512 -10.28441 -10.28432 -10.28192 -10.28051
 Alpha  occ. eigenvalues --  -10.27991 -10.27862 -10.27807 -10.27798 -10.27780
 Alpha  occ. eigenvalues --  -10.27666 -10.27624 -10.27542 -10.27436 -10.27435
 Alpha  occ. eigenvalues --  -10.27372 -10.27366 -10.27285 -10.27264 -10.27227
 Alpha  occ. eigenvalues --  -10.27182 -10.26833 -10.26676 -10.26502 -10.26498
 Alpha  occ. eigenvalues --  -10.26327 -10.26251 -10.26245 -10.26043 -10.26009
 Alpha  occ. eigenvalues --  -10.25738 -10.25665 -10.25520 -10.25393 -10.25281
 Alpha  occ. eigenvalues --  -10.25087 -10.24993 -10.24687 -10.24666 -10.24605
 Alpha  occ. eigenvalues --  -10.24487  -3.16787  -3.16194  -1.91668  -1.91255
 Alpha  occ. eigenvalues --   -1.91097  -1.91076  -1.90665  -1.90502  -1.16962
 Alpha  occ. eigenvalues --   -1.16469  -1.08882  -1.08458  -1.07397  -1.06977
 Alpha  occ. eigenvalues --   -1.06769  -1.06757  -1.04854  -1.04260  -1.03996
 Alpha  occ. eigenvalues --   -1.03480  -1.03449  -1.02836  -1.02652  -1.01902
 Alpha  occ. eigenvalues --   -0.92235  -0.91770  -0.89698  -0.89514  -0.89314
 Alpha  occ. eigenvalues --   -0.88846  -0.88445  -0.88110  -0.88051  -0.87945
 Alpha  occ. eigenvalues --   -0.87593  -0.87550  -0.87469  -0.86961  -0.85296
 Alpha  occ. eigenvalues --   -0.84748  -0.84083  -0.83718  -0.83195  -0.82929
 Alpha  occ. eigenvalues --   -0.82789  -0.82422  -0.81865  -0.81404  -0.80864
 Alpha  occ. eigenvalues --   -0.80248  -0.79060  -0.78459  -0.77479  -0.77198
 Alpha  occ. eigenvalues --   -0.76937  -0.76677  -0.76203  -0.75570  -0.75071
 Alpha  occ. eigenvalues --   -0.74627  -0.73011  -0.72491  -0.71908  -0.71343
 Alpha  occ. eigenvalues --   -0.70021  -0.69598  -0.69169  -0.68588  -0.67895
 Alpha  occ. eigenvalues --   -0.67560  -0.67410  -0.67011  -0.65597  -0.65107
 Alpha  occ. eigenvalues --   -0.65035  -0.64875  -0.64565  -0.64443  -0.64440
 Alpha  occ. eigenvalues --   -0.64024  -0.62570  -0.62095  -0.60676  -0.60177
 Alpha  occ. eigenvalues --   -0.60105  -0.59531  -0.59224  -0.58789  -0.58746
 Alpha  occ. eigenvalues --   -0.58227  -0.57863  -0.57520  -0.57353  -0.57061
 Alpha  occ. eigenvalues --   -0.56565  -0.56285  -0.56010  -0.55775  -0.55703
 Alpha  occ. eigenvalues --   -0.55534  -0.55268  -0.55075  -0.54737  -0.54318
 Alpha  occ. eigenvalues --   -0.54226  -0.53635  -0.53548  -0.53516  -0.53191
 Alpha  occ. eigenvalues --   -0.53073  -0.53040  -0.52933  -0.52694  -0.52543
 Alpha  occ. eigenvalues --   -0.52456  -0.52251  -0.52138  -0.51940  -0.51691
 Alpha  occ. eigenvalues --   -0.51446  -0.51433  -0.51003  -0.50853  -0.50355
 Alpha  occ. eigenvalues --   -0.50241  -0.50134  -0.49799  -0.49777  -0.49667
 Alpha  occ. eigenvalues --   -0.49483  -0.49375  -0.49258  -0.48982  -0.48864
 Alpha  occ. eigenvalues --   -0.48809  -0.48680  -0.48633  -0.48324  -0.48212
 Alpha  occ. eigenvalues --   -0.48144  -0.47949  -0.47537  -0.47389  -0.47034
 Alpha  occ. eigenvalues --   -0.46940  -0.46867  -0.46594  -0.46507  -0.46380
 Alpha  occ. eigenvalues --   -0.46298  -0.46086  -0.46082  -0.45905  -0.45616
 Alpha  occ. eigenvalues --   -0.45368  -0.45035  -0.44838  -0.44761  -0.44389
 Alpha  occ. eigenvalues --   -0.44338  -0.44320  -0.44270  -0.44239  -0.43913
 Alpha  occ. eigenvalues --   -0.43848  -0.43759  -0.43746  -0.43642  -0.43363
 Alpha  occ. eigenvalues --   -0.43264  -0.43158  -0.42989  -0.42802  -0.42748
 Alpha  occ. eigenvalues --   -0.42695  -0.42382  -0.42213  -0.41953  -0.41818
 Alpha  occ. eigenvalues --   -0.41780  -0.41454  -0.41385  -0.41238  -0.41149
 Alpha  occ. eigenvalues --   -0.41076  -0.40733  -0.40727  -0.40614  -0.40523
 Alpha  occ. eigenvalues --   -0.40474  -0.40286  -0.40017  -0.39540  -0.39272
 Alpha  occ. eigenvalues --   -0.38655  -0.38169  -0.38110  -0.37574  -0.37512
 Alpha  occ. eigenvalues --   -0.37450  -0.37074  -0.36998  -0.36967  -0.36598
 Alpha  occ. eigenvalues --   -0.36433  -0.36024  -0.34533  -0.34095  -0.34039
 Alpha  occ. eigenvalues --   -0.33679  -0.33437  -0.32966  -0.31532  -0.31276
 Alpha  occ. eigenvalues --   -0.31068  -0.30753  -0.30282  -0.29753  -0.29718
 Alpha  occ. eigenvalues --   -0.29573  -0.29133  -0.29006  -0.24326  -0.23820
 Alpha  occ. eigenvalues --   -0.21379  -0.20905
 Alpha virt. eigenvalues --   -0.09031  -0.08587  -0.01990  -0.01478  -0.00327
 Alpha virt. eigenvalues --    0.00175   0.01958   0.02383   0.02601   0.03457
 Alpha virt. eigenvalues --    0.04411   0.04752   0.04966   0.05349   0.05754

 Mulliken charges:
               1
     1  Mg   0.838169
     2  C   -0.003965
     3  C   -0.096187
     4  C   -0.043365
     5  C   -0.063257
     6  N   -0.256813
     7  C   -0.053128
     8  C   -0.013633
     9  C   -0.086582
    10  C    0.045320
    11  C    0.104696
    12  C    0.053647
    13  C   -0.071401
    14  H    0.034001
    15  N   -0.433035
    16  C    0.166672
    17  C   -0.180266
    18  C   -0.007817
    19  C    0.149671
    20  C    0.110239
    21  C    0.012311
    22  O   -0.245242
    23  C    0.063774
    24  N   -0.341272
    25  C    0.041040
    26  C   -0.028786
    27  C   -0.024328
    28  C    0.075641
    29  C    0.075837
    30  C    0.035080
    31  C   -0.006733
    32  N   -0.310702
    33  C    0.080995
    34  C   -0.169019
    35  C    0.008553
    36  C    0.083340
    37  C    0.127206
    38  C    0.046340
    39  O   -0.187675
    40  C   -0.005445
    41  C    0.213199
    42  O   -0.258582
    43  O   -0.304318
    44  C    0.157483
    45  H   -0.017566
    46  H   -0.014755
    47  H   -0.040626
    48  H    0.001654
    49  H   -0.004877
    50  H    0.025871
    51  H    0.017103
    52  H    0.016995
    53  H    0.007968
    54  H    0.042510
    55  H    0.019757
    56  H    0.017791
    57  H    0.005847
    58  H    0.028084
    59  H    0.036447
    60  H    0.037508
    61  H    0.038432
    62  H    0.025463
    63  H    0.019604
    64  H    0.009672
    65  H    0.024363
    66  H    0.012194
    67  H    0.004812
    68  H    0.007008
    69  H    0.004013
    70  H    0.013269
    71  H    0.018014
    72  H    0.029400
    73  H    0.048086
    74  H    0.009737
    75  H    0.046515
    76  H    0.035650
    77  H    0.044215
    78  H    0.045802
    79  H    0.052993
    80  Mg   0.838456
    81  C   -0.016816
    82  C   -0.087806
    83  C   -0.045791
    84  C   -0.064886
    85  N   -0.254835
    86  C   -0.048390
    87  C   -0.015175
    88  C   -0.091155
    89  C    0.046776
    90  C    0.115263
    91  C    0.062749
    92  C   -0.077095
    93  H    0.033562
    94  N   -0.423448
    95  C    0.162929
    96  C   -0.174915
    97  C   -0.008512
    98  C    0.151445
    99  C    0.096634
   100  C    0.017498
   101  O   -0.251044
   102  C    0.057331
   103  N   -0.349840
   104  C    0.037413
   105  C   -0.019925
   106  C   -0.034832
   107  C    0.088974
   108  C    0.073097
   109  C    0.034885
   110  C   -0.007591
   111  N   -0.324149
   112  C    0.078692
   113  C   -0.163153
   114  C    0.002476
   115  C    0.096369
   116  C    0.131400
   117  C    0.042426
   118  O   -0.188232
   119  C    0.000875
   120  C    0.211074
   121  O   -0.251509
   122  O   -0.305274
   123  C    0.152279
   124  H   -0.019230
   125  H   -0.015406
   126  H   -0.040945
   127  H   -0.000290
   128  H   -0.006818
   129  H    0.023774
   130  H    0.019676
   131  H    0.018404
   132  H    0.013070
   133  H    0.037143
   134  H    0.020936
   135  H    0.018528
   136  H    0.007706
   137  H    0.029565
   138  H    0.036752
   139  H    0.037887
   140  H    0.038991
   141  H    0.031851
   142  H    0.014197
   143  H    0.012102
   144  H    0.024341
   145  H    0.013164
   146  H    0.004517
   147  H    0.005680
   148  H    0.003438
   149  H    0.010804
   150  H    0.017522
   151  H    0.030368
   152  H    0.045556
   153  H    0.008020
   154  H    0.047475
   155  H    0.036375
   156  H    0.043636
   157  H    0.049207
   158  H    0.053156
 Sum of Mulliken charges =  -0.00000

 Dipole moment (field-independent basis, Debye):
    X=             -6.5691    Y=              1.4579    Z=             -4.8482  Tot=              8.2936
 Quadrupole moment (field-independent basis, Debye-Ang):
   XX=           -546.5544   YY=           -504.8255   ZZ=           -483.7304
   XY=            -18.3511   XZ=             10.0095   YZ=            -58.9424

 Normal termination of Gaussian 16 at Fri Sep 10 05:23:40 2021.
