 Gaussian 16, Revision A.03,
 Gaussian 16:  ES64L-G16RevA.03 25-Dec-2016

 -----------------------------------
 #p cam-b3lyp/Def2SVP td=(nstates=5)
 -----------------------------------

 --------------------------------
 TDDFT excited states in gaussian
 --------------------------------
 Symbolic Z-matrix:
 Charge =  0 Multiplicity = 1

                         Standard orientation:
 ---------------------------------------------------------------------
 Center     Atomic      Atomic             Coordinates (Angstroms)
 Number     Number       Type             X           Y           Z
 ---------------------------------------------------------------------
      1         12           0        7.816786    0.755000    0.438933
      2          6           0        8.352506   -2.407927   -1.148868
      3          6           0        8.568443    2.215817   -2.551734
      4          6           0        7.794805    3.556249    1.925250
      5          6           0        8.224154   -0.875146    3.492183
      6          7           0        8.372030   -0.094727   -1.528378
      7          6           0        8.483928   -1.324562   -2.020471
      8          6           0        8.679301   -1.356244   -3.565852
      9          6           0        9.289307    0.102257   -3.772416
     10          6           0        8.679622    0.793679   -2.565708
     11          6           0       10.808932    0.150031   -3.650106
     12          6           0        7.324753   -1.524630   -4.333039
     13          6           0        7.454013   -1.890686   -5.814474
     14          1           0        6.467494   -2.783246   -6.403934
     15          7           0        7.655531    2.586986   -0.282644
     16          6           0        7.993347    2.999506   -1.528033
     17          6           0        7.686346    4.445242   -1.575784
     18          6           0        7.320901    4.878535   -0.198540
     19          6           0        7.604821    3.681529    0.551090
     20          6           0        7.708177    5.249753   -2.839126
     21          6           0        6.808613    6.170195    0.355815
     22          8           0        6.776674    6.406211    1.611940
     23          6           0        6.422663    7.199510   -0.626323
     24          7           0        8.201589    1.318897    2.411642
     25          6           0        8.064363    2.589788    2.805329
     26          6           0        8.114209    2.706835    4.299904
     27          6           0        8.071131    1.212866    4.862001
     28          6           0        8.087228    0.452592    3.512930
     29          6           0        9.338685    3.432939    4.873874
     30          6           0        6.955965    0.877989    5.884098
     31          6           0        5.604991    0.935441    5.206849
     32          7           0        8.041074   -1.300255    1.099741
     33          6           0        8.218923   -1.747783    2.416845
     34          6           0        8.431990   -3.205372    2.352771
     35          6           0        8.379452   -3.503988    0.992656
     36          6           0        8.174400   -2.304920    0.252059
     37          6           0        8.697381   -4.058278    3.460269
     38          6           0        8.473426   -4.553647   -0.008964
     39          8           0        8.548427   -5.782691    0.027333
     40          6           0        8.581451   -3.869654   -1.442948
     41          6           0        7.605853   -4.565047   -2.352863
     42          8           0        6.375728   -4.465243   -2.167936
     43          8           0        8.257997   -5.036970   -3.426427
     44          6           0        7.342711   -5.712991   -4.384238
     45          1           0        9.013176    2.788063   -3.368244
     46          1           0        7.684371    4.486070    2.487101
     47          1           0        8.273886   -1.463059    4.410518
     48          1           0        9.384798   -2.108352   -3.919449
     49          1           0        8.934976    0.564878   -4.693368
     50          1           0       11.211680   -0.804890   -3.312704
     51          1           0       11.017651    0.931012   -2.918670
     52          1           0       11.262329    0.484749   -4.583472
     53          1           0        6.839818   -0.552686   -4.423723
     54          1           0        6.687734   -2.256463   -3.835090
     55          1           0        8.463595   -2.224358   -6.055965
     56          1           0        7.320490   -0.983215   -6.403429
     57          1           0        8.172537    4.699379   -3.656441
     58          1           0        8.374897    6.094516   -2.667169
     59          1           0        6.717139    5.613093   -3.111449
     60          1           0        7.283178    7.442398   -1.250077
     61          1           0        5.996752    8.020189   -0.050185
     62          1           0        5.667226    6.784613   -1.294247
     63          1           0        7.252776    3.255759    4.678112
     64          1           0        8.993475    0.942799    5.376801
     65          1           0        9.086369    4.288885    5.500291
     66          1           0        9.974364    3.731818    4.040883
     67          1           0       10.016527    2.802051    5.448267
     68          1           0        6.943872    1.614378    6.686925
     69          1           0        7.070107   -0.106242    6.338534
     70          1           0        5.359435    1.996206    5.243089
     71          1           0        4.875149    0.346517    5.763364
     72          1           0        5.674002    0.652661    4.156249
     73          1           0        8.086792   -4.948964    3.312526
     74          1           0        8.460122   -3.567414    4.403860
     75          1           0        9.766875   -4.226045    3.334204
     76          1           0        9.611757   -3.996412   -1.773895
     77          1           0        7.727808   -6.720908   -4.539280
     78          1           0        7.267827   -5.060543   -5.254358
     79          1           0        6.338206   -5.930335   -4.019451
     80         12           0       -7.984687   -0.844353    0.336182
     81          6           0       -8.067997    2.147759   -1.643566
     82          6           0       -7.322670    1.136770    3.032757
     83          6           0       -7.459657   -3.481926    2.019913
     84          6           0       -7.515115   -2.623581   -2.623475
     85          7           0       -7.750396    1.345449    0.541488
     86          6           0       -7.864673    2.387173   -0.268511
     87          6           0       -7.835026    3.764458    0.446862
     88          6           0       -7.036288    3.330637    1.770764
     89          6           0       -7.416698    1.852049    1.812246
     90          6           0       -5.527176    3.431606    1.623361
     91          6           0       -9.272802    4.290823    0.790034
     92          6           0       -9.336476    5.761621    1.207707
     93          1           0      -10.500863    6.548232    0.810330
     94          7           0       -7.952865   -1.129347    2.299934
     95          6           0       -7.688107   -0.209693    3.251466
     96          6           0       -7.769693   -0.923852    4.535006
     97          6           0       -7.941777   -2.375152    4.254195
     98          6           0       -7.766749   -2.387866    2.815695
     99          6           0       -7.764156   -0.218810    5.860263
    100          6           0       -8.205807   -3.557842    5.136075
    101          8           0       -8.081747   -4.759074    4.706565
    102          6           0       -8.522929   -3.269217    6.542353
    103          7           0       -7.339964   -2.749101   -0.191645
    104          6           0       -7.247141   -3.726763    0.726774
    105          6           0       -7.031394   -5.070747    0.072891
    106          6           0       -7.241102   -4.825090   -1.493399
    107          6           0       -7.463688   -3.296786   -1.482290
    108          6           0       -5.664704   -5.713422    0.308479
    109          6           0       -8.288268   -5.719350   -2.212023
    110          6           0       -9.677321   -5.387799   -1.716052
    111          7           0       -8.001552   -0.384032   -1.774721
    112          6           0       -7.755503   -1.273355   -2.843667
    113          6           0       -7.763748   -0.473815   -4.085879
    114          6           0       -7.992977    0.839215   -3.647820
    115          6           0       -8.098606    0.859758   -2.230819
    116          6           0       -7.528076   -0.972849   -5.397960
    117          6           0       -8.159023    2.214119   -4.061072
    118          8           0       -8.252391    2.790461   -5.144048
    119          6           0       -8.088992    3.141243   -2.771914
    120          6           0       -9.239274    4.108570   -2.832413
    121          8           0      -10.411926    3.701775   -2.754932
    122          8           0       -8.763405    5.364588   -2.752816
    123          6           0       -9.867585    6.359877   -2.797573
    124          1           0       -6.888658    1.640238    3.897068
    125          1           0       -7.378166   -4.437490    2.543120
    126          1           0       -7.473816   -3.118995   -3.595858
    127          1           0       -7.289414    4.538229   -0.079781
    128          1           0       -7.416449    3.846931    2.648417
    129          1           0       -5.236131    3.666495    0.610320
    130          1           0       -5.137846    2.464752    1.914329
    131          1           0       -5.125006    4.148128    2.345304
    132          1           0       -9.615431    3.816756    1.718805
    133          1           0       -9.946879    4.117457   -0.026164
    134          1           0       -8.410338    6.298415    0.968807
    135          1           0       -9.401068    5.810421    2.297412
    136          1           0       -7.459814    0.830017    5.756647
    137          1           0       -6.969618   -0.674068    6.461350
    138          1           0       -8.711815   -0.317727    6.393960
    139          1           0       -7.703083   -2.713014    6.990625
    140          1           0       -8.767507   -4.234107    6.990746
    141          1           0       -9.401907   -2.615845    6.575795
    142          1           0       -7.764168   -5.790293    0.416961
    143          1           0       -6.316234   -5.003833   -2.061288
    144          1           0       -5.728329   -6.720542    0.762050
    145          1           0       -5.079308   -5.051520    0.932758
    146          1           0       -5.039754   -5.807710   -0.577945
    147          1           0       -8.116026   -6.771496   -1.972302
    148          1           0       -8.265767   -5.627438   -3.292786
    149          1           0       -9.756361   -5.972282   -0.794512
    150          1           0      -10.426872   -5.693854   -2.443057
    151          1           0       -9.755334   -4.329114   -1.442645
    152          1           0       -8.265167   -0.513250   -6.042913
    153          1           0       -7.593853   -2.058454   -5.428194
    154          1           0       -6.506593   -0.618817   -5.560718
    155          1           0       -7.124619    3.650503   -2.786638
    156          1           0       -9.646407    7.045619   -3.621301
    157          1           0       -9.920120    6.793703   -1.781305
    158          1           0      -10.852195    6.003885   -3.077327
 ---------------------------------------------------------------------

 SCF Done:  E(RCAM-B3LYP) =  -4069.81183654     A.U. after   19 cycles

 Excitation energies and oscillator strengths:

 Excited State   1:      Singlet-A      1.6731 eV  741.05 nm  f=0.2090  <S**2>=0.000
     310 -> 316        0.15149
     311 -> 313        0.33235
     312 -> 314        0.60032
 This state for optimization and/or second-order correction.
 Total Energy, E(TD-HF/TD-DFT) =  -4069.75035146
 Copying the excited state density for this state as the 1-particle RhoCI density.

 Excited State   2:      Singlet-A      1.6818 eV  737.23 nm  f=0.5423  <S**2>=0.000
     309 -> 315        0.15392
     311 -> 313        0.59976
     312 -> 314       -0.33208

 Excited State   3:      Singlet-A      2.1857 eV  567.25 nm  f=0.0866  <S**2>=0.000
     310 -> 314        0.63611
     312 -> 316       -0.26999

 Excited State   4:      Singlet-A      2.1927 eV  565.45 nm  f=0.1111  <S**2>=0.000
     309 -> 313        0.63410
     311 -> 315       -0.27549

 Excited State   5:      Singlet-A      2.7661 eV  448.23 nm  f=0.0000  <S**2>=0.000
     312 -> 313        0.70710

 The electronic state is 1-A.
 Alpha  occ. eigenvalues --  -46.87836 -46.87592 -19.26323 -19.26308 -19.19129
 Alpha  occ. eigenvalues --  -19.19047 -19.18862 -19.18645 -19.18202 -19.18005
 Alpha  occ. eigenvalues --  -14.42486 -14.42431 -14.41491 -14.41286 -14.39442
 Alpha  occ. eigenvalues --  -14.39284 -14.38625 -14.38534 -10.39107 -10.39057
 Alpha  occ. eigenvalues --  -10.35495 -10.35322 -10.34422 -10.34182 -10.31739
 Alpha  occ. eigenvalues --  -10.31699 -10.31438 -10.31247 -10.30959 -10.30942
 Alpha  occ. eigenvalues --  -10.30606 -10.30549 -10.30331 -10.30299 -10.30251
 Alpha  occ. eigenvalues --  -10.30063 -10.29965 -10.29820 -10.29669 -10.29366
 Alpha  occ. eigenvalues --  -10.29338 -10.29293 -10.28772 -10.28666 -10.28618
 Alpha  occ. eigenvalues --  -10.28545 -10.28401 -10.28341 -10.28139 -10.28081
 Alpha  occ. eigenvalues --  -10.27938 -10.27829 -10.27762 -10.27623 -10.27602
 Alpha  occ. eigenvalues --  -10.27558 -10.27508 -10.27506 -10.27440 -10.27425
 Alpha  occ. eigenvalues --  -10.27420 -10.27405 -10.27401 -10.27276 -10.27189
 Alpha  occ. eigenvalues --  -10.27005 -10.26721 -10.26648 -10.26454 -10.26349
 Alpha  occ. eigenvalues --  -10.26255 -10.26255 -10.26061 -10.26055 -10.25959
 Alpha  occ. eigenvalues --  -10.25879 -10.25863 -10.25802 -10.25490 -10.25261
 Alpha  occ. eigenvalues --  -10.24869 -10.24830 -10.24812 -10.24771 -10.24658
 Alpha  occ. eigenvalues --  -10.24617  -3.16579  -3.16342  -1.91460  -1.91224
 Alpha  occ. eigenvalues --   -1.91047  -1.90889  -1.90813  -1.90650  -1.16657
 Alpha  occ. eigenvalues --   -1.16616  -1.08659  -1.08615  -1.07264  -1.06914
 Alpha  occ. eigenvalues --   -1.06896  -1.06669  -1.04616  -1.04430  -1.03801
 Alpha  occ. eigenvalues --   -1.03595  -1.03273  -1.02968  -1.02451  -1.02043
 Alpha  occ. eigenvalues --   -0.92007  -0.91928  -0.89570  -0.89420  -0.89213
 Alpha  occ. eigenvalues --   -0.89093  -0.88338  -0.88137  -0.87906  -0.87735
 Alpha  occ. eigenvalues --   -0.87708  -0.87618  -0.87311  -0.87055  -0.85011
 Alpha  occ. eigenvalues --   -0.84940  -0.83991  -0.83794  -0.83011  -0.82861
 Alpha  occ. eigenvalues --   -0.82681  -0.82593  -0.81617  -0.81549  -0.80631
 Alpha  occ. eigenvalues --   -0.80386  -0.78833  -0.78572  -0.77257  -0.77082
 Alpha  occ. eigenvalues --   -0.76966  -0.76837  -0.75953  -0.75783  -0.74944
 Alpha  occ. eigenvalues --   -0.74718  -0.72813  -0.72634  -0.71709  -0.71509
 Alpha  occ. eigenvalues --   -0.69967  -0.69675  -0.68904  -0.68768  -0.67679
 Alpha  occ. eigenvalues --   -0.67538  -0.67247  -0.67144  -0.65316  -0.65216
 Alpha  occ. eigenvalues --   -0.64891  -0.64707  -0.64658  -0.64595  -0.64317
 Alpha  occ. eigenvalues --   -0.64128  -0.62330  -0.62230  -0.60483  -0.60270
 Alpha  occ. eigenvalues --   -0.59833  -0.59737  -0.59026  -0.58926  -0.58542
 Alpha  occ. eigenvalues --   -0.58363  -0.57617  -0.57508  -0.57351  -0.57167
 Alpha  occ. eigenvalues --   -0.56345  -0.56145  -0.56006  -0.55841  -0.55557
 Alpha  occ. eigenvalues --   -0.55396  -0.55385  -0.55178  -0.54565  -0.54424
 Alpha  occ. eigenvalues --   -0.53920  -0.53855  -0.53338  -0.53254  -0.53163
 Alpha  occ. eigenvalues --   -0.53084  -0.52951  -0.52847  -0.52790  -0.52606
 Alpha  occ. eigenvalues --   -0.52499  -0.52326  -0.51951  -0.51832  -0.51645
 Alpha  occ. eigenvalues --   -0.51604  -0.51234  -0.51144  -0.50610  -0.50408
 Alpha  occ. eigenvalues --   -0.50082  -0.49955  -0.49914  -0.49784  -0.49547
 Alpha  occ. eigenvalues --   -0.49427  -0.49249  -0.49146  -0.49124  -0.49048
 Alpha  occ. eigenvalues --   -0.48625  -0.48507  -0.48504  -0.48483  -0.48298
 Alpha  occ. eigenvalues --   -0.48273  -0.47731  -0.47532  -0.47334  -0.47048
 Alpha  occ. eigenvalues --   -0.46837  -0.46642  -0.46582  -0.46494  -0.46399
 Alpha  occ. eigenvalues --   -0.46204  -0.46202  -0.46017  -0.45854  -0.45770
 Alpha  occ. eigenvalues --   -0.45250  -0.45120  -0.44612  -0.44545  -0.44458
 Alpha  occ. eigenvalues --   -0.44416  -0.44189  -0.44118  -0.44068  -0.44053
 Alpha  occ. eigenvalues --   -0.44010  -0.43882  -0.43528  -0.43504  -0.43422
 Alpha  occ. eigenvalues --   -0.43322  -0.43064  -0.42886  -0.42840  -0.42740
 Alpha  occ. eigenvalues --   -0.42698  -0.42477  -0.42055  -0.41898  -0.41741
 Alpha  occ. eigenvalues --   -0.41609  -0.41563  -0.41398  -0.41176  -0.40920
 Alpha  occ. eigenvalues --   -0.40905  -0.40865  -0.40660  -0.40635  -0.40618
 Alpha  occ. eigenvalues --   -0.40415  -0.40255  -0.40175  -0.39504  -0.39345
 Alpha  occ. eigenvalues --   -0.38517  -0.38268  -0.37773  -0.37601  -0.37366
 Alpha  occ. eigenvalues --   -0.37292  -0.37193  -0.37140  -0.36747  -0.36728
 Alpha  occ. eigenvalues --   -0.36230  -0.36149  -0.34324  -0.34187  -0.33823
 Alpha  occ. eigenvalues --   -0.33800  -0.33224  -0.33109  -0.31392  -0.31203
 Alpha  occ. eigenvalues --   -0.31074  -0.30906  -0.30061  -0.29910  -0.29488
 Alpha  occ. eigenvalues --   -0.29359  -0.29262  -0.29151  -0.24119  -0.23969
 Alpha  occ. eigenvalues --   -0.21166  -0.21049
 Alpha virt. eigenvalues --   -0.08812  -0.08727  -0.01791  -0.01613  -0.00096
 Alpha virt. eigenvalues --    0.00035   0.02163   0.02265   0.03075   0.03289
 Alpha virt. eigenvalues --    0.04686   0.04794   0.05070   0.05201   0.06157

 Mulliken charges:
               1
     1  Mg   0.838658
     2  C   -0.002928
     3  C   -0.093914
     4  C   -0.046025
     5  C   -0.064011
     6  N   -0.256777
     7  C   -0.052403
     8  C   -0.014047
     9  C   -0.087004
    10  C    0.046294
    11  C    0.104777
    12  C    0.053405
    13  C   -0.071912
    14  H    0.036282
    15  N   -0.433159
    16  C    0.168383
    17  C   -0.177030
    18  C   -0.004076
    19  C    0.148685
    20  C    0.110102
    21  C    0.012129
    22  O   -0.249932
    23  C    0.062519
    24  N   -0.341136
    25  C    0.041249
    26  C   -0.028160
    27  C   -0.023917
    28  C    0.074740
    29  C    0.076184
    30  C    0.035178
    31  C   -0.004444
    32  N   -0.310482
    33  C    0.080368
    34  C   -0.169735
    35  C    0.008405
    36  C    0.082951
    37  C    0.127321
    38  C    0.046122
    39  O   -0.188334
    40  C   -0.005327
    41  C    0.212898
    42  O   -0.257155
    43  O   -0.304748
    44  C    0.157687
    45  H   -0.017418
    46  H   -0.017024
    47  H   -0.041561
    48  H    0.001014
    49  H   -0.003828
    50  H    0.025490
    51  H    0.016409
    52  H    0.016822
    53  H    0.011306
    54  H    0.044050
    55  H    0.017902
    56  H    0.018165
    57  H    0.006084
    58  H    0.026882
    59  H    0.039745
    60  H    0.037544
    61  H    0.035423
    62  H    0.031579
    63  H    0.016220
    64  H    0.009524
    65  H    0.023046
    66  H    0.012689
    67  H    0.004800
    68  H    0.006160
    69  H    0.004811
    70  H    0.008397
    71  H    0.017838
    72  H    0.029152
    73  H    0.047623
    74  H    0.009025
    75  H    0.046076
    76  H    0.035250
    77  H    0.043002
    78  H    0.046517
    79  H    0.053609
    80  Mg   0.837985
    81  C   -0.016948
    82  C   -0.087831
    83  C   -0.045323
    84  C   -0.064620
    85  N   -0.254588
    86  C   -0.049864
    87  C   -0.015100
    88  C   -0.090513
    89  C    0.045836
    90  C    0.114345
    91  C    0.062534
    92  C   -0.077799
    93  H    0.034634
    94  N   -0.423560
    95  C    0.163035
    96  C   -0.174520
    97  C   -0.007668
    98  C    0.152200
    99  C    0.099330
   100  C    0.015623
   101  O   -0.252938
   102  C    0.061199
   103  N   -0.350030
   104  C    0.037751
   105  C   -0.020028
   106  C   -0.034754
   107  C    0.088891
   108  C    0.073354
   109  C    0.034701
   110  C   -0.007651
   111  N   -0.324069
   112  C    0.078403
   113  C   -0.163203
   114  C    0.002070
   115  C    0.096237
   116  C    0.131521
   117  C    0.042209
   118  O   -0.188393
   119  C    0.000968
   120  C    0.211205
   121  O   -0.251037
   122  O   -0.305692
   123  C    0.152095
   124  H   -0.019606
   125  H   -0.015282
   126  H   -0.040483
   127  H   -0.000852
   128  H   -0.004415
   129  H    0.022308
   130  H    0.014799
   131  H    0.016363
   132  H    0.013927
   133  H    0.037580
   134  H    0.020720
   135  H    0.019610
   136  H    0.008730
   137  H    0.026282
   138  H    0.039685
   139  H    0.038298
   140  H    0.036416
   141  H    0.033745
   142  H    0.014302
   143  H    0.012824
   144  H    0.025335
   145  H    0.012210
   146  H    0.006437
   147  H    0.006448
   148  H    0.003498
   149  H    0.010959
   150  H    0.017712
   151  H    0.029961
   152  H    0.045716
   153  H    0.008535
   154  H    0.046796
   155  H    0.034779
   156  H    0.043631
   157  H    0.049517
   158  H    0.053521
 Sum of Mulliken charges =  -0.00000

 Dipole moment (field-independent basis, Debye):
    X=              3.6254    Y=              4.2978    Z=              1.1532  Tot=              5.7397
 Quadrupole moment (field-independent basis, Debye-Ang):
   XX=           -520.1532   YY=           -524.9414   ZZ=           -473.4269
   XY=             17.8767   XZ=            -59.7815   YZ=             23.2055

 Normal termination of Gaussian 16 at Sun Sep 12 00:53:50 2021.
