 Gaussian 16, Revision A.03,
 Gaussian 16:  ES64L-G16RevA.03 25-Dec-2016

 -----------------------------------
 #p cam-b3lyp/Def2SVP td=(nstates=5)
 -----------------------------------

 --------------------------------
 TDDFT excited states in gaussian
 --------------------------------
 Symbolic Z-matrix:
 Charge =  0 Multiplicity = 1

                         Standard orientation:
 ---------------------------------------------------------------------
 Center     Atomic      Atomic             Coordinates (Angstroms)
 Number     Number       Type             X           Y           Z
 ---------------------------------------------------------------------
      1         12           0        7.529169    0.946992    0.558766
      2          6           0        7.953329   -2.381455   -0.687724
      3          6           0        8.504097    2.062836   -2.514908
      4          6           0        7.600968    3.878553    1.766003
      5          6           0        7.697206   -0.392902    3.771570
      6          7           0        8.125506   -0.121449   -1.286081
      7          6           0        8.188424   -1.398107   -1.651260
      8          6           0        8.453835   -1.592746   -3.174101
      9          6           0        9.156880   -0.196513   -3.487565
     10          6           0        8.532672    0.642377   -2.386406
     11          6           0       10.669299   -0.218216   -3.291043
     12          6           0        7.129222   -1.763444   -3.991410
     13          6           0        7.306206   -2.280485   -5.422039
     14          1           0        6.298022   -3.172888   -5.973880
     15          7           0        7.509038    2.704697   -0.342854
     16          6           0        7.928340    2.973475   -1.602707
     17          6           0        7.708761    4.421754   -1.805079
     18          6           0        7.305060    5.007941   -0.496834
     19          6           0        7.483232    3.877408    0.378111
     20          6           0        7.836669    5.095164   -3.136960
     21          6           0        6.843562    6.373595   -0.096660
     22          8           0        6.766602    6.733952    1.127592
     23          6           0        6.564763    7.319979   -1.191955
     24          7           0        7.853320    1.681679    2.485628
     25          6           0        7.772150    2.990764    2.747722
     26          6           0        7.758631    3.252094    4.224700
     27          6           0        7.602191    1.825433    4.924643
     28          6           0        7.637133    0.935801    3.657518
     29          6           0        8.995123    3.964840    4.789583
     30          6           0        6.422713    1.653310    5.914402
     31          6           0        5.110621    1.715718    5.164991
     32          7           0        7.601981   -1.041943    1.424723
     33          6           0        7.691495   -1.365995    2.786211
     34          6           0        7.821953   -2.832079    2.873651
     35          6           0        7.815896   -3.260397    1.547622
     36          6           0        7.716067   -2.131141    0.685586
     37          6           0        7.984944   -3.584336    4.070303
     38          6           0        7.895331   -4.407412    0.657732
     39          8           0        7.896736   -5.629098    0.815766
     40          6           0        8.110161   -3.875229   -0.827683
     41          6           0        7.139387   -4.603965   -1.716418
     42          8           0        5.909864   -4.420738   -1.606568
     43          8           0        7.812496   -5.213859   -2.704090
     44          6           0        6.905241   -5.931302   -3.639138
     45          1           0        9.019231    2.526991   -3.358198
     46          1           0        7.518742    4.863911    2.229409
     47          1           0        7.669465   -0.889004    4.743458
     48          1           0        9.130060   -2.412760   -3.416426
     49          1           0        8.873691    0.191121   -4.465965
     50          1           0       10.999408   -1.155286   -2.842882
     51          1           0       10.888701    0.618937   -2.628072
     52          1           0       11.184696   -0.002095   -4.227224
     53          1           0        6.706586   -0.780684   -4.200270
     54          1           0        6.427965   -2.407373   -3.459508
     55          1           0        8.304814   -2.689894   -5.577199
     56          1           0        7.253591   -1.429819   -6.101597
     57          1           0        8.305935    4.442679   -3.872214
     58          1           0        8.542732    5.915917   -3.012266
     59          1           0        6.882365    5.482288   -3.494411
     60          1           0        7.466268    7.453676   -1.790255
     61          1           0        6.160908    8.215169   -0.720377
     62          1           0        5.818551    6.882103   -1.855566
     63          1           0        6.913902    3.880980    4.502839
     64          1           0        8.482069    1.558626    5.510563
     65          1           0        8.764076    4.890758    5.316838
     66          1           0        9.685495    4.145519    3.966157
     67          1           0        9.607345    3.358459    5.456594
     68          1           0        6.415975    2.465016    6.641061
     69          1           0        6.457829    0.714114    6.466605
     70          1           0        4.925924    2.786477    5.086293
     71          1           0        4.322391    1.224543    5.736526
     72          1           0        5.212188    1.327220    4.151462
     73          1           0        7.331042   -4.451330    3.977025
     74          1           0        7.732753   -2.990650    4.948676
     75          1           0        9.047564   -3.820689    4.017081
     76          1           0        9.145696   -4.088982   -1.090547
     77          1           0        7.237738   -6.968751   -3.676301
     78          1           0        6.909405   -5.364964   -4.570615
     79          1           0        5.873777   -6.057508   -3.308241
     80         12           0       -8.304977    0.185820   -0.230473
     81          6           0       -5.770898   -2.325825    0.155684
     82          6           0       -5.836739    2.306214   -1.253364
     83          6           0      -10.430943    2.539831   -0.150782
     84          6           0      -10.326827   -1.729712    1.864412
     85          7           0       -6.124330   -0.090940   -0.476314
     86          6           0       -5.282402   -1.106627   -0.358468
     87          6           0       -3.852982   -0.822492   -0.892882
     88          6           0       -3.859990    0.777810   -0.759259
     89          6           0       -5.362873    1.025836   -0.871031
     90          6           0       -3.394496    1.270189    0.600973
     91          6           0       -3.672017   -1.273546   -2.384798
     92          6           0       -2.222498   -1.311317   -2.873903
     93          1           0       -1.834049   -2.353775   -3.819874
     94          7           0       -8.272430    1.975276   -1.088012
     95          6           0       -7.182971    2.680905   -1.457373
     96          6           0       -7.691810    3.940533   -2.021816
     97          6           0       -9.163220    3.991197   -1.804826
     98          6           0       -9.346917    2.821400   -0.969409
     99          6           0       -6.817928    4.913841   -2.758315
    100          6           0      -10.226915    4.943074   -2.261658
    101          8           0      -11.405410    4.928079   -1.757918
    102          6           0       -9.821743    5.954151   -3.249096
    103          7           0      -10.034371    0.486717    0.883535
    104          6           0      -10.804413    1.571022    0.685434
    105          6           0      -12.129135    1.436822    1.397809
    106          6           0      -12.185420   -0.073981    1.919250
    107          6           0      -10.783568   -0.547041    1.476047
    108          6           0      -12.352211    2.389015    2.572525
    109          6           0      -13.418450   -0.918836    1.496748
    110          6           0      -13.387640   -1.167078    0.005837
    111          7           0       -8.188603   -1.769325    0.681608
    112          6           0       -9.134356   -2.365907    1.544019
    113          6           0       -8.561134   -3.649761    1.997390
    114          6           0       -7.301980   -3.700713    1.380612
    115          6           0       -7.096074   -2.521847    0.614205
    116          6           0       -9.173946   -4.560641    2.903420
    117          6           0       -6.095809   -4.478821    1.212114
    118          8           0       -5.733565   -5.604394    1.552134
    119          6           0       -4.998807   -3.565525    0.512933
    120          6           0       -4.383505   -4.355511   -0.609494
    121          8           0       -5.064006   -4.687024   -1.596219
    122          8           0       -3.049918   -4.401236   -0.436768
    123          6           0       -2.393613   -5.164919   -1.531227
    124          1           0       -5.113537    3.114127   -1.368059
    125          1           0      -11.242436    3.270846   -0.174904
    126          1           0      -10.935353   -2.430005    2.440576
    127          1           0       -3.052775   -1.242032   -0.295024
    128          1           0       -3.333713    1.245610   -1.587235
    129          1           0       -3.247727    0.456355    1.295438
    130          1           0       -4.171953    1.934326    0.955266
    131          1           0       -2.497801    1.886944    0.491997
    132          1           0       -4.073034   -0.494276   -3.045609
    133          1           0       -4.135323   -2.226135   -2.553711
    134          1           0       -1.506254   -1.258302   -2.044961
    135          1           0       -2.028345   -0.405994   -3.454167
    136          1           0       -5.754112    4.688305   -2.613991
    137          1           0       -6.955499    5.890735   -2.282272
    138          1           0       -7.077592    4.996350   -3.815881
    139          1           0       -9.010920    6.552891   -2.841018
    140          1           0      -10.737987    6.483080   -3.518561
    141          1           0       -9.421397    5.441361   -4.130794
    142          1           0      -12.953700    1.604131    0.715756
    143          1           0      -12.201693   -0.125515    3.017844
    144          1           0      -13.261031    3.010583    2.464050
    145          1           0      -11.474813    3.013318    2.677243
    146          1           0      -12.413757    1.911384    3.548894
    147          1           0      -14.341302   -0.370432    1.701063
    148          1           0      -13.487937   -1.870084    2.013755
    149          1           0      -13.826709   -0.253289   -0.405618
    150          1           0      -13.983645   -2.040963   -0.249411
    151          1           0      -12.356723   -1.231676   -0.361172
    152          1           0       -9.023963   -5.552115    2.497227
    153          1           0      -10.231155   -4.339800    3.035000
    154          1           0       -8.595828   -4.354443    3.808153
    155          1           0       -4.265102   -3.294691    1.273132
    156          1           0       -1.806324   -5.958700   -1.059323
    157          1           0       -1.840137   -4.415750   -2.128025
    158          1           0       -3.030761   -5.738735   -2.193967
 ---------------------------------------------------------------------

 SCF Done:  E(RCAM-B3LYP) =  -4069.81180267     A.U. after   19 cycles

 Excitation energies and oscillator strengths:

 Excited State   1:      Singlet-A      1.6690 eV  742.87 nm  f=0.0122  <S**2>=0.000
     309 -> 315       -0.10737
     310 -> 316        0.13447
     311 -> 313       -0.42648
     312 -> 314        0.53786
 This state for optimization and/or second-order correction.
 Total Energy, E(TD-HF/TD-DFT) =  -4069.75046845
 Copying the excited state density for this state as the 1-particle RhoCI density.

 Excited State   2:      Singlet-A      1.6856 eV  735.54 nm  f=0.7407  <S**2>=0.000
     309 -> 315        0.13868
     310 -> 316        0.10926
     311 -> 313        0.53695
     312 -> 314        0.42586

 Excited State   3:      Singlet-A      2.1853 eV  567.35 nm  f=0.0977  <S**2>=0.000
     310 -> 314        0.64006
     312 -> 316       -0.27135

 Excited State   4:      Singlet-A      2.1926 eV  565.47 nm  f=0.1033  <S**2>=0.000
     309 -> 313        0.63806
     311 -> 315       -0.27726

 Excited State   5:      Singlet-A      2.7179 eV  456.18 nm  f=0.0000  <S**2>=0.000
     312 -> 313        0.70695

 The electronic state is 1-A.
 Alpha  occ. eigenvalues --  -46.87947 -46.87561 -19.26413 -19.26103 -19.19159
 Alpha  occ. eigenvalues --  -19.18977 -19.18960 -19.18638 -19.18294 -19.17920
 Alpha  occ. eigenvalues --  -14.42596 -14.42391 -14.41594 -14.41262 -14.39554
 Alpha  occ. eigenvalues --  -14.39254 -14.38732 -14.38498 -10.39217 -10.38890
 Alpha  occ. eigenvalues --  -10.35611 -10.35317 -10.34514 -10.34092 -10.31800
 Alpha  occ. eigenvalues --  -10.31543 -10.31449 -10.31194 -10.31058 -10.30910
 Alpha  occ. eigenvalues --  -10.30710 -10.30651 -10.30353 -10.30299 -10.30255
 Alpha  occ. eigenvalues --  -10.30058 -10.30055 -10.29798 -10.29774 -10.29402
 Alpha  occ. eigenvalues --  -10.29345 -10.29303 -10.28892 -10.28686 -10.28567
 Alpha  occ. eigenvalues --  -10.28511 -10.28452 -10.28299 -10.28253 -10.28005
 Alpha  occ. eigenvalues --  -10.27932 -10.27901 -10.27870 -10.27732 -10.27638
 Alpha  occ. eigenvalues --  -10.27633 -10.27582 -10.27567 -10.27547 -10.27443
 Alpha  occ. eigenvalues --  -10.27397 -10.27372 -10.27371 -10.27300 -10.27289
 Alpha  occ. eigenvalues --  -10.26892 -10.26864 -10.26589 -10.26531 -10.26359
 Alpha  occ. eigenvalues --  -10.26355 -10.26314 -10.26159 -10.26071 -10.25944
 Alpha  occ. eigenvalues --  -10.25883 -10.25841 -10.25756 -10.25554 -10.25330
 Alpha  occ. eigenvalues --  -10.24970 -10.24932 -10.24838 -10.24768 -10.24667
 Alpha  occ. eigenvalues --  -10.24593  -3.16690  -3.16311  -1.91572  -1.91193
 Alpha  occ. eigenvalues --   -1.91158  -1.91000  -1.90782  -1.90619  -1.16763
 Alpha  occ. eigenvalues --   -1.16408  -1.08750  -1.08518  -1.07379  -1.06892
 Alpha  occ. eigenvalues --   -1.06779  -1.06740  -1.04726  -1.04387  -1.03905
 Alpha  occ. eigenvalues --   -1.03562  -1.03379  -1.02942  -1.02555  -1.02011
 Alpha  occ. eigenvalues --   -0.92111  -0.91867  -0.89658  -0.89402  -0.89328
 Alpha  occ. eigenvalues --   -0.89014  -0.88424  -0.88134  -0.87998  -0.87816
 Alpha  occ. eigenvalues --   -0.87692  -0.87575  -0.87428  -0.87037  -0.85125
 Alpha  occ. eigenvalues --   -0.84870  -0.84072  -0.83786  -0.83125  -0.82855
 Alpha  occ. eigenvalues --   -0.82792  -0.82528  -0.81719  -0.81428  -0.80738
 Alpha  occ. eigenvalues --   -0.80303  -0.78943  -0.78544  -0.77357  -0.77071
 Alpha  occ. eigenvalues --   -0.77032  -0.76755  -0.76057  -0.75692  -0.75031
 Alpha  occ. eigenvalues --   -0.74700  -0.72911  -0.72598  -0.71808  -0.71467
 Alpha  occ. eigenvalues --   -0.70045  -0.69677  -0.69016  -0.68701  -0.67784
 Alpha  occ. eigenvalues --   -0.67490  -0.67371  -0.67070  -0.65428  -0.65133
 Alpha  occ. eigenvalues --   -0.64993  -0.64760  -0.64656  -0.64513  -0.64408
 Alpha  occ. eigenvalues --   -0.64107  -0.62431  -0.62103  -0.60591  -0.60253
 Alpha  occ. eigenvalues --   -0.59945  -0.59670  -0.59126  -0.58882  -0.58643
 Alpha  occ. eigenvalues --   -0.58309  -0.57718  -0.57448  -0.57401  -0.57132
 Alpha  occ. eigenvalues --   -0.56448  -0.56113  -0.56098  -0.55707  -0.55665
 Alpha  occ. eigenvalues --   -0.55472  -0.55327  -0.55127  -0.54657  -0.54347
 Alpha  occ. eigenvalues --   -0.54037  -0.53776  -0.53444  -0.53366  -0.53123
 Alpha  occ. eigenvalues --   -0.53056  -0.53015  -0.52909  -0.52762  -0.52576
 Alpha  occ. eigenvalues --   -0.52571  -0.52319  -0.52034  -0.51781  -0.51762
 Alpha  occ. eigenvalues --   -0.51528  -0.51330  -0.51075  -0.50734  -0.50400
 Alpha  occ. eigenvalues --   -0.50170  -0.50069  -0.49877  -0.49781  -0.49660
 Alpha  occ. eigenvalues --   -0.49379  -0.49353  -0.49229  -0.49081  -0.48970
 Alpha  occ. eigenvalues --   -0.48725  -0.48607  -0.48583  -0.48419  -0.48283
 Alpha  occ. eigenvalues --   -0.48232  -0.47837  -0.47477  -0.47437  -0.47014
 Alpha  occ. eigenvalues --   -0.46935  -0.46698  -0.46601  -0.46499  -0.46422
 Alpha  occ. eigenvalues --   -0.46295  -0.46167  -0.45966  -0.45946  -0.45675
 Alpha  occ. eigenvalues --   -0.45336  -0.45115  -0.44710  -0.44655  -0.44383
 Alpha  occ. eigenvalues --   -0.44356  -0.44287  -0.44227  -0.44157  -0.44009
 Alpha  occ. eigenvalues --   -0.43974  -0.43821  -0.43626  -0.43526  -0.43389
 Alpha  occ. eigenvalues --   -0.43257  -0.43163  -0.42834  -0.42800  -0.42790
 Alpha  occ. eigenvalues --   -0.42714  -0.42468  -0.42148  -0.41856  -0.41841
 Alpha  occ. eigenvalues --   -0.41676  -0.41549  -0.41332  -0.41278  -0.41013
 Alpha  occ. eigenvalues --   -0.40981  -0.40876  -0.40707  -0.40622  -0.40582
 Alpha  occ. eigenvalues --   -0.40392  -0.40387  -0.40077  -0.39581  -0.39347
 Alpha  occ. eigenvalues --   -0.38607  -0.38256  -0.37895  -0.37510  -0.37459
 Alpha  occ. eigenvalues --   -0.37409  -0.37167  -0.37072  -0.36848  -0.36587
 Alpha  occ. eigenvalues --   -0.36330  -0.36086  -0.34429  -0.34148  -0.33912
 Alpha  occ. eigenvalues --   -0.33682  -0.33330  -0.33069  -0.31506  -0.31196
 Alpha  occ. eigenvalues --   -0.31179  -0.30867  -0.30153  -0.29819  -0.29598
 Alpha  occ. eigenvalues --   -0.29460  -0.29234  -0.29108  -0.24225  -0.23932
 Alpha  occ. eigenvalues --   -0.21271  -0.21017
 Alpha virt. eigenvalues --   -0.08919  -0.08692  -0.01896  -0.01586  -0.00209
 Alpha virt. eigenvalues --    0.00067   0.02066   0.02319   0.02925   0.03318
 Alpha virt. eigenvalues --    0.04575   0.04851   0.04962   0.05357   0.06034

 Mulliken charges:
               1
     1  Mg   0.837822
     2  C   -0.003207
     3  C   -0.094283
     4  C   -0.046002
     5  C   -0.063840
     6  N   -0.256804
     7  C   -0.052473
     8  C   -0.013926
     9  C   -0.086936
    10  C    0.046072
    11  C    0.104747
    12  C    0.053517
    13  C   -0.071822
    14  H    0.035997
    15  N   -0.433133
    16  C    0.168070
    17  C   -0.177380
    18  C   -0.004265
    19  C    0.148405
    20  C    0.110164
    21  C    0.011812
    22  O   -0.249642
    23  C    0.062714
    24  N   -0.341096
    25  C    0.041158
    26  C   -0.028158
    27  C   -0.024101
    28  C    0.074801
    29  C    0.076083
    30  C    0.035108
    31  C   -0.004547
    32  N   -0.310564
    33  C    0.080391
    34  C   -0.169378
    35  C    0.008605
    36  C    0.082857
    37  C    0.127236
    38  C    0.046257
    39  O   -0.187735
    40  C   -0.005354
    41  C    0.213124
    42  O   -0.257700
    43  O   -0.304600
    44  C    0.157678
    45  H   -0.017450
    46  H   -0.016820
    47  H   -0.041050
    48  H    0.001267
    49  H   -0.004098
    50  H    0.025676
    51  H    0.016551
    52  H    0.016886
    53  H    0.010660
    54  H    0.043700
    55  H    0.018338
    56  H    0.017930
    57  H    0.005994
    58  H    0.027068
    59  H    0.038868
    60  H    0.037723
    61  H    0.035526
    62  H    0.030644
    63  H    0.016339
    64  H    0.009845
    65  H    0.023314
    66  H    0.012657
    67  H    0.005055
    68  H    0.006640
    69  H    0.005222
    70  H    0.008436
    71  H    0.018400
    72  H    0.028440
    73  H    0.048117
    74  H    0.009392
    75  H    0.046337
    76  H    0.035504
    77  H    0.043521
    78  H    0.046376
    79  H    0.053320
    80  Mg   0.837615
    81  C   -0.016812
    82  C   -0.087869
    83  C   -0.045696
    84  C   -0.065150
    85  N   -0.254565
    86  C   -0.049776
    87  C   -0.015099
    88  C   -0.090419
    89  C    0.045761
    90  C    0.114453
    91  C    0.062626
    92  C   -0.078078
    93  H    0.035230
    94  N   -0.423447
    95  C    0.162801
    96  C   -0.174772
    97  C   -0.008030
    98  C    0.152049
    99  C    0.099457
   100  C    0.015410
   101  O   -0.253428
   102  C    0.061270
   103  N   -0.350092
   104  C    0.037451
   105  C   -0.019763
   106  C   -0.034811
   107  C    0.089025
   108  C    0.073728
   109  C    0.034790
   110  C   -0.007644
   111  N   -0.324143
   112  C    0.078572
   113  C   -0.163266
   114  C    0.002452
   115  C    0.096138
   116  C    0.131498
   117  C    0.042301
   118  O   -0.187207
   119  C    0.001144
   120  C    0.211295
   121  O   -0.251674
   122  O   -0.305059
   123  C    0.151944
   124  H   -0.019825
   125  H   -0.015847
   126  H   -0.040623
   127  H    0.000618
   128  H   -0.004595
   129  H    0.022879
   130  H    0.014027
   131  H    0.016437
   132  H    0.013149
   133  H    0.037629
   134  H    0.022754
   135  H    0.018478
   136  H    0.008576
   137  H    0.025903
   138  H    0.039345
   139  H    0.038126
   140  H    0.036112
   141  H    0.033710
   142  H    0.014211
   143  H    0.012308
   144  H    0.024911
   145  H    0.011630
   146  H    0.005533
   147  H    0.006066
   148  H    0.003598
   149  H    0.010813
   150  H    0.017794
   151  H    0.030233
   152  H    0.046088
   153  H    0.008296
   154  H    0.047000
   155  H    0.035722
   156  H    0.045747
   157  H    0.050433
   158  H    0.052553
 Sum of Mulliken charges =  -0.00000

 Dipole moment (field-independent basis, Debye):
    X=              4.4096    Y=              6.5255    Z=             -3.3046  Tot=              8.5409
 Quadrupole moment (field-independent basis, Debye-Ang):
   XX=           -494.4218   YY=           -562.0633   ZZ=           -464.2519
   XY=             12.5795   XZ=            -41.2690   YZ=             -7.6049

 Normal termination of Gaussian 16 at Sun Sep 12 03:21:24 2021.
