 Gaussian 16, Revision A.03,
 Gaussian 16:  ES64L-G16RevA.03 25-Dec-2016

 -----------------------------------
 #p cam-b3lyp/Def2SVP td=(nstates=5)
 -----------------------------------

 --------------------------------
 TDDFT excited states in gaussian
 --------------------------------
 Symbolic Z-matrix:
 Charge =  0 Multiplicity = 1

                         Standard orientation:
 ---------------------------------------------------------------------
 Center     Atomic      Atomic             Coordinates (Angstroms)
 Number     Number       Type             X           Y           Z
 ---------------------------------------------------------------------
      1         12           0        4.259191    0.112757    0.452788
      2          6           0        4.223366   -3.050448   -1.222045
      3          6           0        5.427589    1.469635   -2.451828
      4          6           0        4.729955    2.820795    2.034411
      5          6           0        4.188088   -1.645557    3.460933
      6          7           0        4.724139   -0.779690   -1.519015
      7          6           0        4.610010   -1.993454   -2.049037
      8          6           0        4.867125   -2.023396   -3.585386
      9          6           0        5.766221   -0.713191   -3.715727
     10          6           0        5.251827    0.055204   -2.511198
     11          6           0        7.257134   -0.976444   -3.530319
     12          6           0        3.543724   -1.894649   -4.412287
     13          6           0        3.666092   -2.240289   -5.899201
     14          1           0        2.549285   -2.899514   -6.559134
     15          7           0        4.502550    1.957850   -0.209977
     16          6           0        4.974107    2.326180   -1.425400
     17          6           0        4.965864    3.804870   -1.434775
     18          6           0        4.630731    4.266758   -0.059116
     19          6           0        4.633442    3.017843    0.658924
     20          6           0        5.207664    4.621251   -2.667174
     21          6           0        4.362538    5.620260    0.519018
     22          8           0        4.319864    5.824843    1.780326
     23          6           0        4.237229    6.731694   -0.441218
     24          7           0        4.656566    0.535420    2.458052
     25          6           0        4.758745    1.797075    2.890223
     26          6           0        4.761090    1.862415    4.388777
     27          6           0        4.393027    0.393696    4.895875
     28          6           0        4.319406   -0.318528    3.522709
     29          6           0        6.078095    2.311032    5.037044
     30          6           0        3.186797    0.264189    5.859543
     31          6           0        1.907979    0.610965    5.130523
     32          7           0        4.035580   -1.962062    1.049589
     33          6           0        4.058258   -2.470661    2.356297
     34          6           0        3.977434   -3.939059    2.249784
     35          6           0        3.929752   -4.185147    0.879014
     36          6           0        4.004210   -2.950374    0.173263
     37          6           0        4.014284   -4.856725    3.336506
     38          6           0        3.858051   -5.205529   -0.154203
     39          8           0        3.683260   -6.424925   -0.158063
     40          6           0        4.168009   -4.520072   -1.557735
     41          6           0        3.116419   -4.980062   -2.530297
     42          8           0        1.924027   -4.638829   -2.391996
     43          8           0        3.710155   -5.545619   -3.592448
     44          6           0        2.723711   -5.997564   -4.609713
     45          1           0        6.015745    1.961512   -3.229047
     46          1           0        4.782084    3.738704    2.623617
     47          1           0        4.075894   -2.255278    4.359324
     48          1           0        5.423202   -2.892922   -3.936280
     49          1           0        5.555340   -0.164570   -4.633478
     50          1           0        7.443959   -2.001528   -3.210599
     51          1           0        7.583794   -0.273143   -2.764059
     52          1           0        7.811599   -0.715805   -4.432213
     53          1           0        3.268349   -0.842774   -4.488379
     54          1           0        2.750298   -2.495593   -3.966567
     55          1           0        4.598411   -2.764478   -6.111135
     56          1           0        3.744973   -1.309423   -6.460865
     57          1           0        5.589921    4.010080   -3.483810
     58          1           0        6.021469    5.309196   -2.438784
     59          1           0        4.323473    5.184216   -2.966521
     60          1           0        5.157186    6.812109   -1.020668
     61          1           0        3.958087    7.606069    0.145636
     62          1           0        3.446017    6.495528   -1.153367
     63          1           0        4.010518    2.563851    4.750793
     64          1           0        5.217361   -0.070438    5.437841
     65          1           0        5.973548    3.183566    5.682380
     66          1           0        6.799052    2.497146    4.241511
     67          1           0        6.588016    1.541436    5.615940
     68          1           0        3.285096    0.966543    6.686574
     69          1           0        3.079848   -0.734389    6.283401
     70          1           0        1.878728    1.698139    5.193995
     71          1           0        1.049641    0.167141    5.635980
     72          1           0        1.967939    0.347723    4.074306
     73          1           0        3.245065   -5.601600    3.132959
     74          1           0        3.836419   -4.352982    4.286354
     75          1           0        5.033105   -5.233608    3.248085
     76          1           0        5.166289   -4.843519   -1.850891
     77          1           0        2.905666   -7.058056   -4.784304
     78          1           0        2.821980   -5.320846   -5.458713
     79          1           0        1.680085   -6.017107   -4.293798
     80         12           0       -3.634012    0.929196    0.055522
     81          6           0       -6.425104   -1.320763    0.218531
     82          6           0       -5.592421    2.984256   -1.835507
     83          6           0       -1.067076    2.714324   -0.484470
     84          6           0       -1.597281   -1.753196    0.951168
     85          7           0       -5.722431    0.746035   -0.649613
     86          6           0       -6.705280   -0.124300   -0.473877
     87          6           0       -8.085425    0.348328   -1.004318
     88          6           0       -7.573042    1.404716   -2.099935
     89          6           0       -6.225550    1.766871   -1.478822
     90          6           0       -7.318958    0.782687   -3.462971
     91          6           0       -8.946177    1.045338    0.107119
     92          6           0      -10.418056    1.254123   -0.255816
     93          1           0      -11.419231    1.133763    0.800420
     94          7           0       -3.483680    2.805165   -0.574327
     95          6           0       -4.381987    3.490088   -1.312704
     96          6           0       -3.794056    4.821218   -1.528553
     97          6           0       -2.403901    4.811753   -0.997427
     98          6           0       -2.253874    3.406527   -0.676575
     99          6           0       -4.568090    5.967882   -2.111178
    100          6           0       -1.374758    5.886884   -0.820921
    101          8           0       -0.150292    5.610837   -0.561512
    102          6           0       -1.822881    7.267785   -1.052838
    103          7           0       -1.601278    0.496200    0.002239
    104          6           0       -0.692929    1.466272   -0.202160
    105          6           0        0.706305    0.970512    0.074892
    106          6           0        0.526797   -0.470953    0.743872
    107          6           0       -1.009289   -0.602952    0.652196
    108          6           0        1.624526    0.855888   -1.141712
    109          6           0        1.207179   -0.697006    2.121779
    110          6           0        0.536343    0.155513    3.174672
    111          7           0       -3.941272   -1.114056    0.687003
    112          6           0       -2.948632   -2.072473    0.987293
    113          6           0       -3.642686   -3.348634    1.255866
    114          6           0       -5.000207   -3.047321    1.069204
    115          6           0       -5.140646   -1.684984    0.689977
    116          6           0       -3.015022   -4.586480    1.571918
    117          6           0       -6.345524   -3.574654    1.096384
    118          8           0       -6.852873   -4.643704    1.433238
    119          6           0       -7.318233   -2.512764    0.423638
    120          6           0       -8.514727   -2.345801    1.319770
    121          8           0       -8.390646   -1.851810    2.454314
    122          8           0       -9.632585   -2.592979    0.612897
    123          6           0      -10.846873   -2.429427    1.455842
    124          1           0       -6.042069    3.592161   -2.621101
    125          1           0       -0.155850    3.313276   -0.550805
    126          1           0       -1.040342   -2.611687    1.332591
    127          1           0       -8.677637   -0.423759   -1.480714
    128          1           0       -8.220633    2.276658   -2.141004
    129          1           0       -7.412177   -0.292888   -3.438679
    130          1           0       -6.311136    1.069077   -3.733765
    131          1           0       -7.973113    1.237114   -4.212570
    132          1           0       -8.626538    2.090850    0.204489
    133          1           0       -8.874961    0.511624    1.034868
    134          1           0      -10.713353    0.667038   -1.133937
    135          1           0      -10.554346    2.292040   -0.569148
    136          1           0       -5.511047    5.630504   -2.558843
    137          1           0       -3.986575    6.348942   -2.957640
    138          1           0       -4.723184    6.778188   -1.395612
    139          1           0       -2.207935    7.357179   -2.065852
    140          1           0       -0.971419    7.899118   -0.791480
    141          1           0       -2.659243    7.482157   -0.378183
    142          1           0        1.215835    1.621645    0.774541
    143          1           0        0.948832   -1.267854    0.114046
    144          1           0        2.557696    1.441653   -1.040982
    145          1           0        1.071625    1.169072   -2.017364
    146          1           0        1.918206   -0.158907   -1.404663
    147          1           0        2.252139   -0.379452    2.084815
    148          1           0        1.196605   -1.732904    2.443957
    149          1           0        1.023515    1.127522    3.052361
    150          1           0        0.713283   -0.252480    4.167783
    151          1           0       -0.528563    0.290205    2.952213
    152          1           0       -3.584732   -5.027258    2.379161
    153          1           0       -1.973126   -4.444072    1.851120
    154          1           0       -3.116319   -5.106325    0.615478
    155          1           0       -7.593377   -2.897146   -0.559270
    156          1           0      -11.406861   -3.367714    1.394888
    157          1           0      -11.349503   -1.517649    1.081975
    158          1           0      -10.705172   -2.336857    2.526264
 ---------------------------------------------------------------------

 SCF Done:  E(RCAM-B3LYP) =  -4069.73030082     A.U. after   19 cycles

 Excitation energies and oscillator strengths:

 Excited State   1:      Singlet-A      1.6204 eV  765.13 nm  f=0.0011  <S**2>=0.000
     309 -> 315        0.11808
     310 -> 316       -0.10737
     311 -> 313        0.50363
     312 -> 314       -0.46493
 This state for optimization and/or second-order correction.
 Total Energy, E(TD-HF/TD-DFT) =  -4069.67075124
 Copying the excited state density for this state as the 1-particle RhoCI density.

 Excited State   2:      Singlet-A      1.7082 eV  725.82 nm  f=0.6585  <S**2>=0.000
     309 -> 315        0.12421
     310 -> 316        0.13124
     311 -> 313        0.45982
     312 -> 314        0.50160

 Excited State   3:      Singlet-A      2.1688 eV  571.67 nm  f=0.0467  <S**2>=0.000
     309 -> 313        0.44076
     310 -> 314       -0.18453
     311 -> 315       -0.18680
     312 -> 313        0.46859

 Excited State   4:      Singlet-A      2.1806 eV  568.58 nm  f=0.1185  <S**2>=0.000
     309 -> 313        0.15006
     310 -> 314        0.61579
     312 -> 313        0.11769
     312 -> 316       -0.25328

 Excited State   5:      Singlet-A      2.1969 eV  564.37 nm  f=0.0417  <S**2>=0.000
     309 -> 313       -0.44298
     311 -> 315        0.18690
     312 -> 313        0.50695

 The electronic state is 1-A.
 Alpha  occ. eigenvalues --  -46.87992 -46.87370 -19.26433 -19.26160 -19.19218
 Alpha  occ. eigenvalues --  -19.18961 -19.18637 -19.18527 -19.18290 -19.17800
 Alpha  occ. eigenvalues --  -14.42550 -14.42212 -14.41522 -14.41056 -14.39415
 Alpha  occ. eigenvalues --  -14.39078 -14.38666 -14.38295 -10.39261 -10.38883
 Alpha  occ. eigenvalues --  -10.35301 -10.35151 -10.34518 -10.33974 -10.31787
 Alpha  occ. eigenvalues --  -10.31604 -10.31593 -10.31009 -10.31000 -10.30803
 Alpha  occ. eigenvalues --  -10.30743 -10.30644 -10.30266 -10.30085 -10.30077
 Alpha  occ. eigenvalues --  -10.30027 -10.29844 -10.29711 -10.29627 -10.29314
 Alpha  occ. eigenvalues --  -10.29164 -10.29093 -10.28872 -10.28645 -10.28511
 Alpha  occ. eigenvalues --  -10.28501 -10.28461 -10.28244 -10.28160 -10.27940
 Alpha  occ. eigenvalues --  -10.27914 -10.27882 -10.27729 -10.27614 -10.27584
 Alpha  occ. eigenvalues --  -10.27462 -10.27457 -10.27382 -10.27361 -10.27306
 Alpha  occ. eigenvalues --  -10.27303 -10.27287 -10.27206 -10.27196 -10.27091
 Alpha  occ. eigenvalues --  -10.26849 -10.26807 -10.26512 -10.26369 -10.26341
 Alpha  occ. eigenvalues --  -10.26095 -10.25976 -10.25819 -10.25803 -10.25667
 Alpha  occ. eigenvalues --  -10.25647 -10.25520 -10.25418 -10.25325 -10.25019
 Alpha  occ. eigenvalues --  -10.24953 -10.24854 -10.24593 -10.24431 -10.23489
 Alpha  occ. eigenvalues --  -10.22678  -3.16687  -3.16119  -1.91575  -1.91155
 Alpha  occ. eigenvalues --   -1.91001  -1.90999  -1.90590  -1.90426  -1.16787
 Alpha  occ. eigenvalues --   -1.16451  -1.08756  -1.08407  -1.06905  -1.06880
 Alpha  occ. eigenvalues --   -1.06826  -1.06744  -1.04726  -1.04222  -1.03901
 Alpha  occ. eigenvalues --   -1.03388  -1.03376  -1.02741  -1.02540  -1.01827
 Alpha  occ. eigenvalues --   -0.92131  -0.91712  -0.89845  -0.89352  -0.89183
 Alpha  occ. eigenvalues --   -0.88929  -0.88435  -0.88109  -0.87975  -0.87807
 Alpha  occ. eigenvalues --   -0.87465  -0.87389  -0.87190  -0.86912  -0.85212
 Alpha  occ. eigenvalues --   -0.84905  -0.84671  -0.83632  -0.82986  -0.82671
 Alpha  occ. eigenvalues --   -0.82537  -0.82413  -0.81710  -0.81366  -0.80671
 Alpha  occ. eigenvalues --   -0.80224  -0.78861  -0.78413  -0.77869  -0.77177
 Alpha  occ. eigenvalues --   -0.76832  -0.76653  -0.76030  -0.75651  -0.75184
 Alpha  occ. eigenvalues --   -0.74531  -0.72913  -0.72480  -0.71783  -0.71417
 Alpha  occ. eigenvalues --   -0.71091  -0.69125  -0.68721  -0.68442  -0.67723
 Alpha  occ. eigenvalues --   -0.67362  -0.67229  -0.67006  -0.65487  -0.65191
 Alpha  occ. eigenvalues --   -0.64976  -0.64833  -0.64577  -0.64435  -0.64277
 Alpha  occ. eigenvalues --   -0.63611  -0.62450  -0.62029  -0.60445  -0.60141
 Alpha  occ. eigenvalues --   -0.59937  -0.59551  -0.59094  -0.58767  -0.58607
 Alpha  occ. eigenvalues --   -0.58201  -0.57760  -0.57441  -0.57302  -0.57090
 Alpha  occ. eigenvalues --   -0.56594  -0.56149  -0.55966  -0.55808  -0.55701
 Alpha  occ. eigenvalues --   -0.55667  -0.55457  -0.55241  -0.54847  -0.54719
 Alpha  occ. eigenvalues --   -0.54050  -0.53693  -0.53617  -0.53395  -0.53161
 Alpha  occ. eigenvalues --   -0.53010  -0.52943  -0.52775  -0.52683  -0.52565
 Alpha  occ. eigenvalues --   -0.52480  -0.52318  -0.52075  -0.51629  -0.51518
 Alpha  occ. eigenvalues --   -0.51450  -0.51376  -0.50947  -0.50472  -0.50269
 Alpha  occ. eigenvalues --   -0.50161  -0.49976  -0.49739  -0.49671  -0.49417
 Alpha  occ. eigenvalues --   -0.49327  -0.49295  -0.49167  -0.48967  -0.48876
 Alpha  occ. eigenvalues --   -0.48764  -0.48517  -0.48357  -0.48305  -0.48301
 Alpha  occ. eigenvalues --   -0.48110  -0.47570  -0.47397  -0.47320  -0.47164
 Alpha  occ. eigenvalues --   -0.47018  -0.46862  -0.46591  -0.46487  -0.46368
 Alpha  occ. eigenvalues --   -0.46219  -0.46027  -0.45847  -0.45726  -0.45563
 Alpha  occ. eigenvalues --   -0.45466  -0.45116  -0.44687  -0.44571  -0.44464
 Alpha  occ. eigenvalues --   -0.44310  -0.44225  -0.44096  -0.43996  -0.43939
 Alpha  occ. eigenvalues --   -0.43811  -0.43716  -0.43588  -0.43508  -0.43252
 Alpha  occ. eigenvalues --   -0.43091  -0.43044  -0.42818  -0.42733  -0.42666
 Alpha  occ. eigenvalues --   -0.42443  -0.42254  -0.41826  -0.41720  -0.41626
 Alpha  occ. eigenvalues --   -0.41434  -0.41354  -0.41133  -0.40998  -0.40923
 Alpha  occ. eigenvalues --   -0.40775  -0.40600  -0.40573  -0.40414  -0.40328
 Alpha  occ. eigenvalues --   -0.40254  -0.40037  -0.39933  -0.39167  -0.38455
 Alpha  occ. eigenvalues --   -0.38054  -0.37813  -0.37486  -0.37346  -0.37239
 Alpha  occ. eigenvalues --   -0.36991  -0.36950  -0.36809  -0.36576  -0.36392
 Alpha  occ. eigenvalues --   -0.36112  -0.34415  -0.34049  -0.33954  -0.33729
 Alpha  occ. eigenvalues --   -0.33592  -0.33198  -0.32851  -0.31186  -0.31157
 Alpha  occ. eigenvalues --   -0.30981  -0.30683  -0.30151  -0.29699  -0.29477
 Alpha  occ. eigenvalues --   -0.29354  -0.29078  -0.28912  -0.24198  -0.23728
 Alpha  occ. eigenvalues --   -0.21267  -0.20818
 Alpha virt. eigenvalues --   -0.08888  -0.08510  -0.01863  -0.01404  -0.00004
 Alpha virt. eigenvalues --    0.00167   0.02073   0.02508   0.03512   0.04510
 Alpha virt. eigenvalues --    0.04899   0.05001   0.05367   0.05514   0.06196

 Mulliken charges:
               1
     1  Mg   0.664419
     2  C   -0.002170
     3  C   -0.078458
     4  C   -0.045999
     5  C   -0.057725
     6  N   -0.242932
     7  C   -0.057491
     8  C   -0.013317
     9  C   -0.085675
    10  C    0.041454
    11  C    0.104491
    12  C    0.049976
    13  C   -0.071644
    14  H    0.036635
    15  N   -0.440623
    16  C    0.159757
    17  C   -0.170734
    18  C   -0.003035
    19  C    0.156355
    20  C    0.111300
    21  C    0.024935
    22  O   -0.249112
    23  C    0.058935
    24  N   -0.322418
    25  C    0.038984
    26  C   -0.025397
    27  C   -0.021607
    28  C    0.058711
    29  C    0.078026
    30  C    0.079424
    31  C   -0.024289
    32  N   -0.302032
    33  C    0.071323
    34  C   -0.172482
    35  C    0.009642
    36  C    0.075302
    37  C    0.127940
    38  C    0.042606
    39  O   -0.187715
    40  C   -0.007570
    41  C    0.212889
    42  O   -0.259058
    43  O   -0.304329
    44  C    0.157346
    45  H   -0.018085
    46  H   -0.016505
    47  H   -0.045324
    48  H    0.000366
    49  H   -0.003755
    50  H    0.026014
    51  H    0.018077
    52  H    0.016972
    53  H    0.013059
    54  H    0.044064
    55  H    0.018290
    56  H    0.018382
    57  H    0.004554
    58  H    0.026836
    59  H    0.044784
    60  H    0.032299
    61  H    0.035511
    62  H    0.044111
    63  H    0.016647
    64  H    0.008819
    65  H    0.023574
    66  H    0.012936
    67  H    0.004991
    68  H   -0.005093
    69  H   -0.005093
    70  H    0.011012
    71  H    0.027165
    72  H   -0.005534
    73  H    0.045806
    74  H    0.008752
    75  H    0.046769
    76  H    0.036116
    77  H    0.043666
    78  H    0.046701
    79  H    0.053900
    80  Mg   0.839263
    81  C   -0.017727
    82  C   -0.088531
    83  C   -0.046045
    84  C   -0.064281
    85  N   -0.254641
    86  C   -0.049305
    87  C   -0.015167
    88  C   -0.090365
    89  C    0.045410
    90  C    0.114670
    91  C    0.062627
    92  C   -0.077511
    93  H    0.034251
    94  N   -0.422871
    95  C    0.162125
    96  C   -0.176014
    97  C   -0.009705
    98  C    0.150808
    99  C    0.099913
   100  C    0.015686
   101  O   -0.257016
   102  C    0.061222
   103  N   -0.351598
   104  C    0.043393
   105  C   -0.051517
   106  C   -0.035200
   107  C    0.103863
   108  C    0.039813
   109  C   -0.022373
   110  C    0.111722
   111  N   -0.324578
   112  C    0.077107
   113  C   -0.161076
   114  C    0.001731
   115  C    0.097185
   116  C    0.132925
   117  C    0.042858
   118  O   -0.187712
   119  C    0.000912
   120  C    0.211122
   121  O   -0.251385
   122  O   -0.305600
   123  C    0.152210
   124  H   -0.021107
   125  H   -0.017119
   126  H   -0.032617
   127  H   -0.000947
   128  H   -0.005095
   129  H    0.022392
   130  H    0.014227
   131  H    0.015204
   132  H    0.013884
   133  H    0.037558
   134  H    0.020584
   135  H    0.019239
   136  H    0.008245
   137  H    0.023923
   138  H    0.038793
   139  H    0.037164
   140  H    0.034319
   141  H    0.035106
   142  H    0.037566
   143  H    0.037679
   144  H    0.106548
   145  H    0.003935
   146  H    0.050563
   147  H    0.041248
   148  H    0.014859
   149  H   -0.009658
   150  H   -0.002850
   151  H    0.002061
   152  H    0.044116
   153  H    0.012156
   154  H    0.051017
   155  H    0.034880
   156  H    0.043625
   157  H    0.049182
   158  H    0.053299
 Sum of Mulliken charges =  -0.00000

 Dipole moment (field-independent basis, Debye):
    X=              1.6262    Y=              5.9500    Z=             -5.8929  Tot=              8.5307
 Quadrupole moment (field-independent basis, Debye-Ang):
   XX=           -470.4672   YY=           -544.0568   ZZ=           -473.4865
   XY=            -31.7487   XZ=             10.4118   YZ=            -12.2737

 Normal termination of Gaussian 16 at Thu Sep  9 11:31:49 2021.
