 Gaussian 16, Revision A.03,
 Gaussian 16:  ES64L-G16RevA.03 25-Dec-2016

 -----------------------------------
 #p cam-b3lyp/Def2SVP td=(nstates=5)
 -----------------------------------

 --------------------------------
 TDDFT excited states in gaussian
 --------------------------------
 Symbolic Z-matrix:
 Charge =  0 Multiplicity = 1

                         Standard orientation:
 ---------------------------------------------------------------------
 Center     Atomic      Atomic             Coordinates (Angstroms)
 Number     Number       Type             X           Y           Z
 ---------------------------------------------------------------------
      1         12           0        4.759087    0.006690    0.060740
      2          6           0        4.463094   -3.349994   -1.146438
      3          6           0        5.621402    0.914097   -3.113546
      4          6           0        5.466369    2.883716    1.191710
      5          6           0        4.989462   -1.325600    3.272840
      6          7           0        4.977802   -1.160608   -1.807475
      7          6           0        4.777259   -2.429625   -2.148868
      8          6           0        4.858132   -2.676320   -3.685089
      9          6           0        5.765835   -1.430542   -4.092653
     10          6           0        5.408400   -0.487761   -2.957167
     11          6           0        7.261878   -1.722398   -4.036266
     12          6           0        3.452878   -2.610537   -4.372596
     13          6           0        3.398424   -3.158062   -5.801794
     14          1           0        2.199622   -3.857732   -6.238465
     15          7           0        4.967168    1.734949   -0.873429
     16          6           0        5.306294    1.917823   -2.172212
     17          6           0        5.330179    3.380968   -2.385090
     18          6           0        5.163305    4.036602   -1.058293
     19          6           0        5.219265    2.896818   -0.179010
     20          6           0        5.449200    4.013845   -3.737515
     21          6           0        4.992655    5.464889   -0.647189
     22          8           0        5.097580    5.839295    0.570754
     23          6           0        4.784427    6.440485   -1.732499
     24          7           0        5.390198    0.680836    1.932867
     25          6           0        5.568871    1.984515    2.172617
     26          6           0        5.742242    2.251374    3.638451
     27          6           0        5.401109    0.879468    4.380917
     28          6           0        5.156631   -0.008280    3.135765
     29          6           0        7.133867    2.733390    4.070947
     30          6           0        4.309078    0.926788    5.478937
     31          6           0        2.964073    1.219977    4.852761
     32          7           0        4.558010   -1.958676    0.959600
     33          6           0        4.717008   -2.286753    2.313764
     34          6           0        4.591766   -3.751989    2.420852
     35          6           0        4.383770   -4.178856    1.110750
     36          6           0        4.405537   -3.054326    0.237108
     37          6           0        4.730781   -4.515321    3.613510
     38          6           0        4.172762   -5.325912    0.242652
     39          8           0        3.971378   -6.527205    0.426588
     40          6           0        4.337187   -4.848334   -1.267550
     41          6           0        3.172254   -5.395389   -2.046634
     42          8           0        2.011119   -4.993891   -1.827703
     43          8           0        3.629159   -6.121109   -3.078676
     44          6           0        2.524058   -6.668688   -3.909979
     45          1           0        6.128703    1.274043   -4.010778
     46          1           0        5.605395    3.870123    1.639048
     47          1           0        4.966017   -1.803823    4.253761
     48          1           0        5.351304   -3.605595   -3.970839
     49          1           0        5.464803   -1.003244   -5.048958
     50          1           0        7.460664   -2.701262   -3.600111
     51          1           0        7.688827   -0.934938   -3.414886
     52          1           0        7.716422   -1.606965   -5.020564
     53          1           0        3.194302   -1.568927   -4.562983
     54          1           0        2.701721   -3.115474   -3.764215
     55          1           0        4.288790   -3.740841   -6.039545
     56          1           0        3.434079   -2.315160   -6.492045
     57          1           0        5.722799    3.284072   -4.498515
     58          1           0        6.298833    4.695136   -3.696580
     59          1           0        4.549653    4.564198   -4.013664
     60          1           0        5.634473    6.407208   -2.414307
     61          1           0        4.593150    7.395963   -1.245339
     62          1           0        3.912617    6.140372   -2.314589
     63          1           0        5.053366    3.023053    3.979604
     64          1           0        6.270868    0.461972    4.888746
     65          1           0        7.122597    3.688355    4.596894
     66          1           0        7.764158    2.783111    3.183505
     67          1           0        7.688647    2.030289    4.691660
     68          1           0        4.516047    1.730125    6.185167
     69          1           0        4.228431   -0.000697    6.045964
     70          1           0        2.966561    2.306093    4.768040
     71          1           0        2.158717    0.881121    5.505287
     72          1           0        2.898211    0.814520    3.842933
     73          1           0        3.926971   -5.251308    3.600043
     74          1           0        4.672876   -3.881645    4.498216
     75          1           0        5.724349   -4.938841    3.467534
     76          1           0        5.288381   -5.245803   -1.620214
     77          1           0        2.661278   -7.749141   -3.954979
     78          1           0        2.540762   -6.116938   -4.850031
     79          1           0        1.522711   -6.606044   -3.482523
     80         12           0       -4.158552    1.197093    0.460791
     81          6           0       -6.612571   -1.415445    0.283221
     82          6           0       -5.656779    2.585666   -2.270838
     83          6           0       -1.753127    3.261028    0.314166
     84          6           0       -2.217588   -0.948255    2.403936
     85          7           0       -5.902686    0.572637   -0.747644
     86          6           0       -6.794482   -0.404574   -0.683472
     87          6           0       -7.990445   -0.249099   -1.660749
     88          6           0       -7.284637    0.688003   -2.757357
     89          6           0       -6.235568    1.355014   -1.870092
     90          6           0       -6.564425   -0.093901   -3.843293
     91          6           0       -9.216696    0.468863   -0.995286
     92          6           0      -10.522404    0.379229   -1.788287
     93          1           0      -11.778269    0.269630   -1.051207
     94          7           0       -4.023798    2.948777   -0.462261
     95          6           0       -4.722871    3.355104   -1.542754
     96          6           0       -4.241683    4.711720   -1.846424
     97          6           0       -3.085531    5.009196   -0.957861
     98          6           0       -2.891958    3.715105   -0.335010
     99          6           0       -4.919284    5.612538   -2.837798
    100          6           0       -2.278505    6.249283   -0.718949
    101          8           0       -1.168519    6.217380   -0.078836
    102          6           0       -2.778750    7.486135   -1.336541
    103          7           0       -2.171684    1.091870    1.063775
    104          6           0       -1.352290    2.149785    0.932060
    105          6           0       -0.058896    1.934582    1.681191
    106          6           0       -0.279204    0.607768    2.546415
    107          6           0       -1.691934    0.218926    2.058176
    108          6           0        1.191986    1.776491    0.817078
    109          6           0       -0.029210    0.715218    4.075677
    110          6           0       -1.074332    1.605768    4.708164
    111          7           0       -4.424692   -0.742400    1.374901
    112          6           0       -3.474326   -1.469691    2.124529
    113          6           0       -4.077849   -2.781348    2.437201
    114          6           0       -5.338577   -2.734549    1.823306
    115          6           0       -5.500796   -1.489981    1.156811
    116          6           0       -3.448284   -3.836749    3.155451
    117          6           0       -6.564854   -3.459160    1.578583
    118          8           0       -7.034242   -4.528325    1.966257
    119          6           0       -7.394256   -2.687020    0.463997
    120          6           0       -8.816914   -2.573362    0.939002
    121          8           0       -9.096108   -1.892022    1.941219
    122          8           0       -9.634685   -3.105248    0.012340
    123          6           0      -11.057700   -3.006207    0.433103
    124          1           0       -5.908525    2.981208   -3.255247
    125          1           0       -0.933596    3.979756    0.386804
    126          1           0       -1.715017   -1.634992    3.088399
    127          1           0       -8.324805   -1.171702   -2.119863
    128          1           0       -7.977775    1.427416   -3.150029
    129          1           0       -6.546109   -1.152843   -3.632478
    130          1           0       -5.558265    0.303292   -3.873621
    131          1           0       -7.004484    0.125143   -4.820384
    132          1           0       -9.054355    1.554055   -1.022687
    133          1           0       -9.374297    0.107644    0.002370
    134          1           0      -10.473295   -0.379464   -2.578805
    135          1           0      -10.666330    1.318858   -2.327161
    136          1           0       -5.640557    5.061919   -3.454218
    137          1           0       -4.152090    5.942326   -3.546677
    138          1           0       -5.369187    6.490847   -2.370000
    139          1           0       -2.845368    7.350732   -2.413425
    140          1           0       -2.118702    8.278907   -0.979153
    141          1           0       -3.798201    7.668407   -0.978604
    142          1           0        0.142236    2.761582    2.351052
    143          1           0        0.396024   -0.201178    2.230956
    144          1           0        1.982982    2.512423    1.055417
    145          1           0        0.901030    1.854092   -0.222086
    146          1           0        1.657408    0.793018    0.853851
    147          1           0        0.937857    1.185858    4.269178
    148          1           0       -0.027257   -0.244532    4.581511
    149          1           0       -0.678895    2.611236    4.535718
    150          1           0       -1.164982    1.394326    5.771700
    151          1           0       -2.029460    1.531340    4.175379
    152          1           0       -4.186059   -4.229065    3.842671
    153          1           0       -2.561532   -3.487022    3.679988
    154          1           0       -3.198820   -4.511349    2.332067
    155          1           0       -7.315726   -3.261649   -0.459696
    156          1           0      -11.470050   -4.019588    0.406352
    157          1           0      -11.516772   -2.257665   -0.239716
    158          1           0      -11.258222   -2.723320    1.459861
 ---------------------------------------------------------------------

 SCF Done:  E(RCAM-B3LYP) =  -4069.80400822     A.U. after   19 cycles

 Excitation energies and oscillator strengths:

 Excited State   1:      Singlet-A      1.6438 eV  754.26 nm  f=0.0019  <S**2>=0.000
     309 -> 315       -0.11289
     310 -> 316        0.12109
     311 -> 313       -0.46715
     312 -> 314        0.50452
 This state for optimization and/or second-order correction.
 Total Energy, E(TD-HF/TD-DFT) =  -4069.74360040
 Copying the excited state density for this state as the 1-particle RhoCI density.

 Excited State   2:      Singlet-A      1.7057 eV  726.90 nm  f=0.6885  <S**2>=0.000
     309 -> 315        0.13397
     310 -> 316        0.12271
     311 -> 313        0.50205
     312 -> 314        0.46474

 Excited State   3:      Singlet-A      2.1816 eV  568.33 nm  f=0.0811  <S**2>=0.000
     309 -> 313       -0.20446
     310 -> 314        0.61051
     312 -> 316       -0.25532

 Excited State   4:      Singlet-A      2.1968 eV  564.40 nm  f=0.1139  <S**2>=0.000
     309 -> 313        0.60592
     310 -> 314        0.20077
     311 -> 315       -0.26661

 Excited State   5:      Singlet-A      2.3220 eV  533.96 nm  f=0.0002  <S**2>=0.000
     312 -> 313        0.70541

 The electronic state is 1-A.
 Alpha  occ. eigenvalues --  -46.87933 -46.87406 -19.26326 -19.26168 -19.19072
 Alpha  occ. eigenvalues --  -19.18970 -19.18740 -19.18517 -19.18233 -19.17812
 Alpha  occ. eigenvalues --  -14.42550 -14.42251 -14.41572 -14.41100 -14.39475
 Alpha  occ. eigenvalues --  -14.39108 -14.38706 -14.38336 -10.39134 -10.38894
 Alpha  occ. eigenvalues --  -10.35366 -10.35202 -10.34456 -10.33987 -10.31704
 Alpha  occ. eigenvalues --  -10.31599 -10.31518 -10.31049 -10.30974 -10.30818
 Alpha  occ. eigenvalues --  -10.30680 -10.30623 -10.30331 -10.30124 -10.30083
 Alpha  occ. eigenvalues --  -10.30082 -10.29859 -10.29708 -10.29632 -10.29339
 Alpha  occ. eigenvalues --  -10.29199 -10.29130 -10.28814 -10.28592 -10.28530
 Alpha  occ. eigenvalues --  -10.28515 -10.28444 -10.28192 -10.28178 -10.27941
 Alpha  occ. eigenvalues --  -10.27869 -10.27822 -10.27758 -10.27728 -10.27649
 Alpha  occ. eigenvalues --  -10.27642 -10.27492 -10.27486 -10.27426 -10.27305
 Alpha  occ. eigenvalues --  -10.27240 -10.27224 -10.27224 -10.27218 -10.27169
 Alpha  occ. eigenvalues --  -10.26821 -10.26761 -10.26527 -10.26496 -10.26303
 Alpha  occ. eigenvalues --  -10.26295 -10.26204 -10.26165 -10.25953 -10.25838
 Alpha  occ. eigenvalues --  -10.25631 -10.25586 -10.25568 -10.25446 -10.25257
 Alpha  occ. eigenvalues --  -10.25228 -10.24928 -10.24914 -10.24619 -10.24452
 Alpha  occ. eigenvalues --  -10.24378  -3.16626  -3.16156  -1.91510  -1.91096
 Alpha  occ. eigenvalues --   -1.91038  -1.90937  -1.90627  -1.90464  -1.16677
 Alpha  occ. eigenvalues --   -1.16460  -1.08692  -1.08418  -1.07129  -1.06777
 Alpha  occ. eigenvalues --   -1.06753  -1.06694  -1.04673  -1.04254  -1.03875
 Alpha  occ. eigenvalues --   -1.03411  -1.03334  -1.02779  -1.02520  -1.01859
 Alpha  occ. eigenvalues --   -0.92062  -0.91742  -0.89760  -0.89268  -0.89193
 Alpha  occ. eigenvalues --   -0.88943  -0.88494  -0.87980  -0.87966  -0.87771
 Alpha  occ. eigenvalues --   -0.87507  -0.87440  -0.87282  -0.86911  -0.85061
 Alpha  occ. eigenvalues --   -0.84795  -0.84260  -0.83636  -0.83015  -0.82748
 Alpha  occ. eigenvalues --   -0.82674  -0.82450  -0.81668  -0.81367  -0.80670
 Alpha  occ. eigenvalues --   -0.80218  -0.78851  -0.78397  -0.77418  -0.77057
 Alpha  occ. eigenvalues --   -0.76912  -0.76691  -0.76017  -0.75619  -0.75104
 Alpha  occ. eigenvalues --   -0.74675  -0.72914  -0.72440  -0.71778  -0.71397
 Alpha  occ. eigenvalues --   -0.70610  -0.69344  -0.68943  -0.68600  -0.67715
 Alpha  occ. eigenvalues --   -0.67378  -0.67254  -0.67008  -0.65437  -0.65112
 Alpha  occ. eigenvalues --   -0.64999  -0.64818  -0.64558  -0.64483  -0.64366
 Alpha  occ. eigenvalues --   -0.63807  -0.62389  -0.62053  -0.60505  -0.60124
 Alpha  occ. eigenvalues --   -0.59882  -0.59577  -0.59102  -0.58756  -0.58608
 Alpha  occ. eigenvalues --   -0.58192  -0.57664  -0.57425  -0.57322  -0.57020
 Alpha  occ. eigenvalues --   -0.56385  -0.56041  -0.55975  -0.55723  -0.55639
 Alpha  occ. eigenvalues --   -0.55507  -0.55241  -0.55038  -0.54718  -0.54267
 Alpha  occ. eigenvalues --   -0.53971  -0.53713  -0.53495  -0.53234  -0.53101
 Alpha  occ. eigenvalues --   -0.52997  -0.52929  -0.52845  -0.52717  -0.52683
 Alpha  occ. eigenvalues --   -0.52493  -0.52028  -0.51975  -0.51650  -0.51543
 Alpha  occ. eigenvalues --   -0.51459  -0.51332  -0.50990  -0.50565  -0.50342
 Alpha  occ. eigenvalues --   -0.50230  -0.49942  -0.49786  -0.49704  -0.49498
 Alpha  occ. eigenvalues --   -0.49291  -0.49276  -0.49159  -0.48985  -0.48886
 Alpha  occ. eigenvalues --   -0.48693  -0.48586  -0.48425  -0.48354  -0.48240
 Alpha  occ. eigenvalues --   -0.48138  -0.47781  -0.47386  -0.47371  -0.47019
 Alpha  occ. eigenvalues --   -0.46935  -0.46628  -0.46499  -0.46454  -0.46354
 Alpha  occ. eigenvalues --   -0.46295  -0.46043  -0.45922  -0.45901  -0.45589
 Alpha  occ. eigenvalues --   -0.45416  -0.45096  -0.44756  -0.44588  -0.44336
 Alpha  occ. eigenvalues --   -0.44309  -0.44271  -0.44159  -0.44065  -0.44019
 Alpha  occ. eigenvalues --   -0.43895  -0.43732  -0.43618  -0.43497  -0.43468
 Alpha  occ. eigenvalues --   -0.43267  -0.43092  -0.43023  -0.42745  -0.42720
 Alpha  occ. eigenvalues --   -0.42630  -0.42380  -0.42102  -0.41811  -0.41674
 Alpha  occ. eigenvalues --   -0.41574  -0.41409  -0.41244  -0.41158  -0.40936
 Alpha  occ. eigenvalues --   -0.40806  -0.40759  -0.40724  -0.40540  -0.40392
 Alpha  occ. eigenvalues --   -0.40304  -0.40236  -0.40052  -0.39493  -0.38923
 Alpha  occ. eigenvalues --   -0.38625  -0.38101  -0.37814  -0.37485  -0.37458
 Alpha  occ. eigenvalues --   -0.37335  -0.36999  -0.36974  -0.36707  -0.36537
 Alpha  occ. eigenvalues --   -0.36233  -0.35872  -0.34389  -0.33978  -0.33829
 Alpha  occ. eigenvalues --   -0.33659  -0.33283  -0.32919  -0.31295  -0.31111
 Alpha  occ. eigenvalues --   -0.31076  -0.30730  -0.30096  -0.29713  -0.29501
 Alpha  occ. eigenvalues --   -0.29399  -0.29090  -0.28944  -0.24193  -0.23777
 Alpha  occ. eigenvalues --   -0.21233  -0.20864
 Alpha virt. eigenvalues --   -0.08856  -0.08541  -0.01859  -0.01461  -0.00069
 Alpha virt. eigenvalues --    0.00183   0.02110   0.02470   0.03339   0.03598
 Alpha virt. eigenvalues --    0.04608   0.04946   0.05041   0.05366   0.06065

 Mulliken charges:
               1
     1  Mg   0.807586
     2  C   -0.001037
     3  C   -0.092994
     4  C   -0.051942
     5  C   -0.063774
     6  N   -0.255096
     7  C   -0.053264
     8  C   -0.013823
     9  C   -0.086924
    10  C    0.047573
    11  C    0.104785
    12  C    0.053300
    13  C   -0.071828
    14  H    0.036194
    15  N   -0.430706
    16  C    0.170216
    17  C   -0.176786
    18  C   -0.002674
    19  C    0.148207
    20  C    0.110362
    21  C    0.016242
    22  O   -0.248570
    23  C    0.061563
    24  N   -0.335463
    25  C    0.043191
    26  C   -0.028133
    27  C   -0.029699
    28  C    0.072160
    29  C    0.076605
    30  C    0.104500
    31  C   -0.079907
    32  N   -0.306702
    33  C    0.075997
    34  C   -0.171105
    35  C    0.008216
    36  C    0.080649
    37  C    0.127651
    38  C    0.046029
    39  O   -0.188034
    40  C   -0.005767
    41  C    0.212962
    42  O   -0.257177
    43  O   -0.304784
    44  C    0.157494
    45  H   -0.017332
    46  H   -0.016855
    47  H   -0.043365
    48  H    0.001084
    49  H   -0.003878
    50  H    0.025687
    51  H    0.016567
    52  H    0.016900
    53  H    0.011453
    54  H    0.044336
    55  H    0.017975
    56  H    0.017860
    57  H    0.005498
    58  H    0.027166
    59  H    0.041086
    60  H    0.035507
    61  H    0.037951
    62  H    0.034904
    63  H    0.015897
    64  H    0.010834
    65  H    0.023943
    66  H    0.013661
    67  H    0.004945
    68  H    0.003166
    69  H    0.002386
    70  H    0.018995
    71  H    0.038206
    72  H    0.043487
    73  H    0.047136
    74  H    0.008215
    75  H    0.046512
    76  H    0.035464
    77  H    0.043315
    78  H    0.046309
    79  H    0.054072
    80  Mg   0.838485
    81  C   -0.017210
    82  C   -0.088383
    83  C   -0.047598
    84  C   -0.062316
    85  N   -0.254564
    86  C   -0.049311
    87  C   -0.015146
    88  C   -0.090489
    89  C    0.045654
    90  C    0.114621
    91  C    0.062643
    92  C   -0.077546
    93  H    0.034359
    94  N   -0.423033
    95  C    0.162423
    96  C   -0.175988
    97  C   -0.008726
    98  C    0.151443
    99  C    0.100012
   100  C    0.014063
   101  O   -0.253060
   102  C    0.061318
   103  N   -0.349945
   104  C    0.038178
   105  C   -0.012612
   106  C   -0.038467
   107  C    0.093016
   108  C    0.042089
   109  C    0.024006
   110  C   -0.003989
   111  N   -0.324570
   112  C    0.078478
   113  C   -0.160940
   114  C    0.002302
   115  C    0.096919
   116  C    0.131929
   117  C    0.043024
   118  O   -0.187613
   119  C    0.000732
   120  C    0.211119
   121  O   -0.251313
   122  O   -0.305572
   123  C    0.152180
   124  H   -0.020947
   125  H   -0.015487
   126  H   -0.038048
   127  H   -0.000832
   128  H   -0.005049
   129  H    0.022782
   130  H    0.014345
   131  H    0.015143
   132  H    0.013814
   133  H    0.037625
   134  H    0.020593
   135  H    0.019215
   136  H    0.008135
   137  H    0.024188
   138  H    0.039025
   139  H    0.036778
   140  H    0.035831
   141  H    0.034002
   142  H    0.014426
   143  H    0.018367
   144  H    0.048521
   145  H    0.016269
   146  H    0.013295
   147  H   -0.004079
   148  H    0.000260
   149  H    0.008948
   150  H    0.013175
   151  H    0.027738
   152  H    0.044815
   153  H    0.008815
   154  H    0.051850
   155  H    0.035302
   156  H    0.043688
   157  H    0.049159
   158  H    0.053358
 Sum of Mulliken charges =  -0.00000

 Dipole moment (field-independent basis, Debye):
    X=              2.3595    Y=              4.6236    Z=             -7.0147  Tot=              8.7264
 Quadrupole moment (field-independent basis, Debye-Ang):
   XX=           -480.4553   YY=           -555.0970   ZZ=           -458.5420
   XY=            -25.3629   XZ=             25.8830   YZ=             -4.5908

 Normal termination of Gaussian 16 at Fri Sep 10 06:17:53 2021.
