 Gaussian 16, Revision A.03,
 Gaussian 16:  ES64L-G16RevA.03 25-Dec-2016

 -----------------------------------
 #p cam-b3lyp/Def2SVP td=(nstates=5)
 -----------------------------------

 --------------------------------
 TDDFT excited states in gaussian
 --------------------------------
 Symbolic Z-matrix:
 Charge =  0 Multiplicity = 1

                         Standard orientation:
 ---------------------------------------------------------------------
 Center     Atomic      Atomic             Coordinates (Angstroms)
 Number     Number       Type             X           Y           Z
 ---------------------------------------------------------------------
      1         12           0        4.258174    1.157638    0.483675
      2          6           0        5.294513   -1.713304   -1.386059
      3          6           0        4.676104    2.981800   -2.369539
      4          6           0        3.787775    3.772060    2.215767
      5          6           0        5.012242   -0.636365    3.374799
      6          7           0        4.905529    0.592123   -1.556366
      7          6           0        5.216491   -0.551869   -2.157828
      8          6           0        5.378145   -0.414354   -3.701308
      9          6           0        5.722207    1.140410   -3.780848
     10          6           0        5.030755    1.607416   -2.512100
     11          6           0        7.213213    1.441076   -3.666815
     12          6           0        4.055407   -0.748434   -4.469738
     13          6           0        4.211178   -0.955975   -5.979048
     14          1           0        3.380016   -1.951816   -6.638455
     15          7           0        3.766232    2.989381   -0.069100
     16          6           0        3.998496    3.561268   -1.275037
     17          6           0        3.445498    4.930096   -1.190274
     18          6           0        3.043105    5.171560    0.223186
     19          6           0        3.546879    3.981562    0.859970
     20          6           0        3.298521    5.833053   -2.376366
     21          6           0        2.328662    6.301093    0.895390
     22          8           0        2.285893    6.417640    2.167853
     23          6           0        1.747919    7.329101    0.012791
     24          7           0        4.585960    1.605913    2.495948
     25          6           0        4.240664    2.794338    3.003293
     26          6           0        4.304552    2.787656    4.501897
     27          6           0        4.533200    1.265798    4.927832
     28          6           0        4.648693    0.640354    3.515829
     29          6           0        5.398405    3.662983    5.129034
     30          6           0        3.516838    0.654236    5.924536
     31          6           0        2.160740    0.534466    5.265938
     32          7           0        4.849304   -0.876844    0.955370
     33          6           0        5.132541   -1.399574    2.225489
     34          6           0        5.592469   -2.786637    2.029038
     35          6           0        5.560423   -2.970231    0.648056
     36          6           0        5.134166   -1.765272    0.019828
     37          6           0        6.026979   -3.673506    3.053292
     38          6           0        5.810695   -3.896235   -0.444527
     39          8           0        6.097567   -5.091891   -0.519388
     40          6           0        5.765403   -3.081630   -1.812077
     41          6           0        4.903451   -3.854264   -2.773007
     42          8           0        3.679240   -3.986549   -2.570097
     43          8           0        5.601941   -4.110174   -3.889772
     44          6           0        4.794914   -4.849137   -4.897142
     45          1           0        4.996124    3.691614   -3.134844
     46          1           0        3.531679    4.615953    2.859737
     47          1           0        5.184216   -1.284363    4.236180
     48          1           0        6.194405   -0.998512   -4.126636
     49          1           0        5.271860    1.612732   -4.653672
     50          1           0        7.782552    0.545116   -3.419774
     51          1           0        7.301056    2.179746   -2.869856
     52          1           0        7.580033    1.929588   -4.569908
     53          1           0        3.407979    0.128434   -4.468884
     54          1           0        3.566127   -1.620503   -4.034504
     55          1           0        5.257266   -1.086540   -6.257550
     56          1           0        3.909247   -0.037797   -6.483017
     57          1           0        3.831644    5.445195   -3.243482
     58          1           0        3.813246    6.762717   -2.134514
     59          1           0        2.253536    6.040695   -2.607066
     60          1           0        2.538735    7.771422   -0.593436
     61          1           0        1.200346    8.009792    0.663692
     62          1           0        1.060010    6.848839   -0.683684
     63          1           0        3.370392    3.143233    4.934720
     64          1           0        5.500120    1.116573    5.408946
     65          1           0        5.016862    4.404098    5.831798
     66          1           0        5.953257    4.139320    4.321238
     67          1           0        6.188245    3.112094    5.639024
     68          1           0        3.396616    1.304522    6.790342
     69          1           0        3.809784   -0.330892    6.287793
     70          1           0        1.736671    1.529061    5.399278
     71          1           0        1.556759   -0.218680    5.773076
     72          1           0        2.252901    0.360601    4.193668
     73          1           0        5.576022   -4.640556    2.830984
     74          1           0        5.730716   -3.315496    4.039020
     75          1           0        7.106128   -3.640965    2.904175
     76          1           0        6.794083   -2.997840   -2.161246
     77          1           0        5.344484   -5.757264   -5.145159
     78          1           0        4.588163   -4.146414   -5.704507
     79          1           0        3.851833   -5.268908   -4.545389
     80         12           0       -4.407920   -1.282182    0.416501
     81          6           0       -4.945465    1.446721   -1.851371
     82          6           0       -4.170576    1.032783    2.910336
     83          6           0       -3.487587   -3.615569    2.359625
     84          6           0       -3.557867   -3.228869   -2.346380
     85          7           0       -4.557201    0.924596    0.406002
     86          6           0       -4.824921    1.848368   -0.504676
     87          6           0       -5.051288    3.272187    0.070710
     88          6           0       -4.227839    3.111897    1.440055
     89          6           0       -4.350987    1.600703    1.623859
     90          6           0       -2.754641    3.457587    1.300393
     91          6           0       -6.566969    3.572554    0.343680
     92          6           0       -6.892816    5.043375    0.612502
     93          1           0       -8.162831    5.575120    0.125875
     94          7           0       -4.383302   -1.367808    2.399087
     95          6           0       -4.306560   -0.329313    3.257528
     96          6           0       -4.301082   -0.920441    4.604634
     97          6           0       -4.214617   -2.399770    4.467385
     98          6           0       -3.999478   -2.519881    3.039323
     99          6           0       -4.453520   -0.101301    5.853314
    100          6           0       -4.297423   -3.520222    5.459309
    101          8           0       -3.957824   -4.717496    5.152615
    102          6           0       -4.698766   -3.157299    6.826307
    103          7           0       -3.432529   -3.088517    0.087719
    104          6           0       -3.199956   -3.942806    1.099659
    105          6           0       -2.739329   -5.285668    0.584932
    106          6           0       -2.943653   -5.231268   -1.000274
    107          6           0       -3.424375   -3.770516   -1.143479
    108          6           0       -1.290107   -5.656855    0.898570
    109          6           0       -3.801882   -6.357765   -1.638323
    110          6           0       -5.240597   -6.225292   -1.193412
    111          7           0       -4.443644   -1.036218   -1.729724
    112          6           0       -4.019159   -1.967933   -2.702249
    113          6           0       -4.128862   -1.304683   -4.017721
    114          6           0       -4.591383   -0.015179   -3.714814
    115          6           0       -4.738916    0.122539   -2.308132
    116          6           0       -3.774445   -1.878918   -5.271016
    117          6           0       -4.978232    1.264288   -4.264385
    118          8           0       -5.138119    1.709297   -5.400223
    119          6           0       -5.104072    2.308813   -3.072946
    120          6           0       -6.400575    3.052430   -3.242160
    121          8           0       -7.488175    2.458408   -3.137907
    122          8           0       -6.148806    4.373555   -3.282319
    123          6           0       -7.405118    5.154075   -3.438123
    124          1           0       -3.853564    1.684203    3.725219
    125          1           0       -3.258787   -4.488027    2.976011
    126          1           0       -3.405085   -3.800591   -3.264243
    127          1           0       -4.631301    4.074512   -0.523981
    128          1           0       -4.715250    3.636432    2.257765
    129          1           0       -2.479550    3.641037    0.272377
    130          1           0       -2.214169    2.604991    1.690296
    131          1           0       -2.501376    4.298688    1.952112
    132          1           0       -6.849617    3.137658    1.310999
    133          1           0       -7.178194    3.207853   -0.458832
    134          1           0       -6.065679    5.706756    0.331943
    135          1           0       -6.995529    5.184505    1.691177
    136          1           0       -4.330094    0.969506    5.649500
    137          1           0       -3.610149   -0.352633    6.505553
    138          1           0       -5.385006   -0.310910    6.383471
    139          1           0       -3.999010   -2.427385    7.226353
    140          1           0       -4.787396   -4.102439    7.365502
    141          1           0       -5.677057   -2.665535    6.784797
    142          1           0       -3.347774   -6.084697    0.990458
    143          1           0       -1.986191   -5.301062   -1.537143
    144          1           0       -1.193458   -6.611623    1.449152
    145          1           0       -0.844301   -4.846982    1.460612
    146          1           0       -0.633475   -5.726242    0.032991
    147          1           0       -3.459200   -7.336407   -1.293381
    148          1           0       -3.764942   -6.367374   -2.722542
    149          1           0       -5.244559   -6.723562   -0.219351
    150          1           0       -5.906001   -6.724559   -1.894852
    151          1           0       -5.506074   -5.174773   -1.027377
    152          1           0       -4.560732   -1.617618   -5.966698
    153          1           0       -3.652848   -2.957371   -5.194051
    154          1           0       -2.824314   -1.370913   -5.456600
    155          1           0       -4.240901    2.973299   -3.127289
    156          1           0       -7.281226    5.785550   -4.323323
    157          1           0       -7.559678    5.667674   -2.470610
    158          1           0       -8.306116    4.608099   -3.692237
 ---------------------------------------------------------------------

 SCF Done:  E(RCAM-B3LYP) =  -4069.81236984     A.U. after   19 cycles

 Excitation energies and oscillator strengths:

 Excited State   1:      Singlet-A      1.6642 eV  745.03 nm  f=0.2209  <S**2>=0.000
     309 -> 315       -0.10066
     310 -> 316       -0.13830
     311 -> 313        0.40525
     312 -> 314        0.55416
 This state for optimization and/or second-order correction.
 Total Energy, E(TD-HF/TD-DFT) =  -4069.75121328
 Copying the excited state density for this state as the 1-particle RhoCI density.

 Excited State   2:      Singlet-A      1.6821 eV  737.10 nm  f=0.4545  <S**2>=0.000
     309 -> 315       -0.14169
     310 -> 316        0.10311
     311 -> 313        0.55298
     312 -> 314       -0.40443

 Excited State   3:      Singlet-A      2.1825 eV  568.09 nm  f=0.0805  <S**2>=0.000
     309 -> 313        0.21896
     310 -> 314        0.60532
     312 -> 316        0.25380

 Excited State   4:      Singlet-A      2.1926 eV  565.46 nm  f=0.1137  <S**2>=0.000
     309 -> 313        0.60218
     310 -> 314       -0.21714
     311 -> 315        0.26155

 Excited State   5:      Singlet-A      2.3451 eV  528.70 nm  f=0.0000  <S**2>=0.000
     312 -> 313        0.70707

 The electronic state is 1-A.
 Alpha  occ. eigenvalues --  -46.87916 -46.87443 -19.26419 -19.26305 -19.19172
 Alpha  occ. eigenvalues --  -19.19088 -19.19000 -19.18543 -19.18292 -19.17932
 Alpha  occ. eigenvalues --  -14.42560 -14.42286 -14.41576 -14.41109 -14.39528
 Alpha  occ. eigenvalues --  -14.39144 -14.38705 -14.38395 -10.39226 -10.39015
 Alpha  occ. eigenvalues --  -10.35634 -10.35224 -10.34512 -10.34111 -10.31811
 Alpha  occ. eigenvalues --  -10.31737 -10.31504 -10.31113 -10.31020 -10.30833
 Alpha  occ. eigenvalues --  -10.30680 -10.30640 -10.30341 -10.30189 -10.30168
 Alpha  occ. eigenvalues --  -10.30056 -10.29863 -10.29756 -10.29628 -10.29377
 Alpha  occ. eigenvalues --  -10.29218 -10.29215 -10.28825 -10.28568 -10.28567
 Alpha  occ. eigenvalues --  -10.28557 -10.28485 -10.28217 -10.28186 -10.27948
 Alpha  occ. eigenvalues --  -10.27911 -10.27831 -10.27817 -10.27714 -10.27658
 Alpha  occ. eigenvalues --  -10.27618 -10.27567 -10.27523 -10.27455 -10.27315
 Alpha  occ. eigenvalues --  -10.27288 -10.27282 -10.27280 -10.27112 -10.26961
 Alpha  occ. eigenvalues --  -10.26944 -10.26761 -10.26605 -10.26566 -10.26366
 Alpha  occ. eigenvalues --  -10.26298 -10.26285 -10.26140 -10.25934 -10.25803
 Alpha  occ. eigenvalues --  -10.25794 -10.25705 -10.25682 -10.25593 -10.24951
 Alpha  occ. eigenvalues --  -10.24924 -10.24903 -10.24778 -10.24697 -10.24453
 Alpha  occ. eigenvalues --  -10.24451  -3.16659  -3.16193  -1.91540  -1.91127
 Alpha  occ. eigenvalues --   -1.91075  -1.90969  -1.90663  -1.90501  -1.16770
 Alpha  occ. eigenvalues --   -1.16592  -1.08751  -1.08551  -1.07408  -1.06875
 Alpha  occ. eigenvalues --   -1.06796  -1.06790  -1.04692  -1.04293  -1.03885
 Alpha  occ. eigenvalues --   -1.03445  -1.03358  -1.02804  -1.02534  -1.01888
 Alpha  occ. eigenvalues --   -0.92092  -0.91810  -0.89666  -0.89266  -0.89229
 Alpha  occ. eigenvalues --   -0.88965  -0.88435  -0.87978  -0.87900  -0.87779
 Alpha  occ. eigenvalues --   -0.87616  -0.87462  -0.87406  -0.86948  -0.85077
 Alpha  occ. eigenvalues --   -0.84814  -0.84094  -0.83565  -0.83127  -0.82764
 Alpha  occ. eigenvalues --   -0.82730  -0.82467  -0.81708  -0.81460  -0.80721
 Alpha  occ. eigenvalues --   -0.80277  -0.78916  -0.78454  -0.77338  -0.77039
 Alpha  occ. eigenvalues --   -0.76949  -0.76689  -0.76027  -0.75669  -0.75038
 Alpha  occ. eigenvalues --   -0.74466  -0.72892  -0.72490  -0.71790  -0.71327
 Alpha  occ. eigenvalues --   -0.70071  -0.69433  -0.68977  -0.68646  -0.67770
 Alpha  occ. eigenvalues --   -0.67402  -0.67315  -0.67046  -0.65384  -0.65104
 Alpha  occ. eigenvalues --   -0.64977  -0.64744  -0.64575  -0.64465  -0.64411
 Alpha  occ. eigenvalues --   -0.63916  -0.62430  -0.62131  -0.60579  -0.60126
 Alpha  occ. eigenvalues --   -0.59897  -0.59616  -0.59111  -0.58773  -0.58630
 Alpha  occ. eigenvalues --   -0.58225  -0.57710  -0.57450  -0.57432  -0.57004
 Alpha  occ. eigenvalues --   -0.56427  -0.56100  -0.56032  -0.55759  -0.55652
 Alpha  occ. eigenvalues --   -0.55487  -0.55307  -0.55003  -0.54669  -0.54243
 Alpha  occ. eigenvalues --   -0.53979  -0.53733  -0.53434  -0.53338  -0.53048
 Alpha  occ. eigenvalues --   -0.53032  -0.52968  -0.52881  -0.52736  -0.52609
 Alpha  occ. eigenvalues --   -0.52509  -0.52110  -0.52021  -0.51724  -0.51717
 Alpha  occ. eigenvalues --   -0.51506  -0.51319  -0.51020  -0.50711  -0.50300
 Alpha  occ. eigenvalues --   -0.50177  -0.50052  -0.49791  -0.49632  -0.49545
 Alpha  occ. eigenvalues --   -0.49336  -0.49315  -0.49189  -0.49043  -0.48932
 Alpha  occ. eigenvalues --   -0.48709  -0.48613  -0.48587  -0.48400  -0.48183
 Alpha  occ. eigenvalues --   -0.48053  -0.47816  -0.47421  -0.47395  -0.46918
 Alpha  occ. eigenvalues --   -0.46889  -0.46647  -0.46488  -0.46485  -0.46352
 Alpha  occ. eigenvalues --   -0.46291  -0.46061  -0.45933  -0.45834  -0.45655
 Alpha  occ. eigenvalues --   -0.45346  -0.44865  -0.44699  -0.44638  -0.44345
 Alpha  occ. eigenvalues --   -0.44285  -0.44281  -0.44186  -0.44143  -0.43955
 Alpha  occ. eigenvalues --   -0.43847  -0.43788  -0.43619  -0.43498  -0.43409
 Alpha  occ. eigenvalues --   -0.43169  -0.43148  -0.42846  -0.42822  -0.42806
 Alpha  occ. eigenvalues --   -0.42683  -0.42275  -0.42146  -0.41829  -0.41734
 Alpha  occ. eigenvalues --   -0.41627  -0.41474  -0.41257  -0.41256  -0.40996
 Alpha  occ. eigenvalues --   -0.40968  -0.40756  -0.40707  -0.40555  -0.40500
 Alpha  occ. eigenvalues --   -0.40306  -0.40184  -0.40086  -0.39615  -0.39107
 Alpha  occ. eigenvalues --   -0.38608  -0.38036  -0.37832  -0.37488  -0.37456
 Alpha  occ. eigenvalues --   -0.37358  -0.37038  -0.36975  -0.36855  -0.36649
 Alpha  occ. eigenvalues --   -0.36327  -0.35959  -0.34405  -0.34042  -0.33919
 Alpha  occ. eigenvalues --   -0.33762  -0.33311  -0.32960  -0.31529  -0.31161
 Alpha  occ. eigenvalues --   -0.31096  -0.30760  -0.30151  -0.29840  -0.29580
 Alpha  occ. eigenvalues --   -0.29441  -0.29145  -0.29033  -0.24200  -0.23820
 Alpha  occ. eigenvalues --   -0.21247  -0.20899
 Alpha virt. eigenvalues --   -0.08898  -0.08593  -0.01880  -0.01453  -0.00197
 Alpha virt. eigenvalues --    0.00145   0.02071   0.02374   0.02832   0.03493
 Alpha virt. eigenvalues --    0.04618   0.04946   0.04959   0.05250   0.06103

 Mulliken charges:
               1
     1  Mg   0.838889
     2  C   -0.002996
     3  C   -0.093177
     4  C   -0.046696
     5  C   -0.063748
     6  N   -0.256826
     7  C   -0.052074
     8  C   -0.014179
     9  C   -0.087136
    10  C    0.046321
    11  C    0.104696
    12  C    0.053227
    13  C   -0.072111
    14  H    0.036034
    15  N   -0.433099
    16  C    0.168286
    17  C   -0.176819
    18  C   -0.004572
    19  C    0.148575
    20  C    0.109944
    21  C    0.011020
    22  O   -0.251013
    23  C    0.062750
    24  N   -0.341083
    25  C    0.041409
    26  C   -0.027998
    27  C   -0.023911
    28  C    0.074660
    29  C    0.076179
    30  C    0.035211
    31  C   -0.004358
    32  N   -0.310525
    33  C    0.080582
    34  C   -0.169400
    35  C    0.008281
    36  C    0.082982
    37  C    0.127343
    38  C    0.045815
    39  O   -0.188368
    40  C   -0.005285
    41  C    0.213145
    42  O   -0.258326
    43  O   -0.304382
    44  C    0.157976
    45  H   -0.017019
    46  H   -0.017661
    47  H   -0.041228
    48  H    0.001044
    49  H   -0.003169
    50  H    0.025456
    51  H    0.016348
    52  H    0.017173
    53  H    0.012188
    54  H    0.043415
    55  H    0.017904
    56  H    0.019190
    57  H    0.006810
    58  H    0.026885
    59  H    0.040147
    60  H    0.038411
    61  H    0.034511
    62  H    0.031115
    63  H    0.015054
    64  H    0.009814
    65  H    0.022697
    66  H    0.012939
    67  H    0.005087
    68  H    0.005631
    69  H    0.005688
    70  H    0.005957
    71  H    0.018574
    72  H    0.030059
    73  H    0.047816
    74  H    0.009501
    75  H    0.046170
    76  H    0.035556
    77  H    0.043237
    78  H    0.047029
    79  H    0.052375
    80  Mg   0.837807
    81  C   -0.017469
    82  C   -0.088418
    83  C   -0.045427
    84  C   -0.062305
    85  N   -0.254745
    86  C   -0.050120
    87  C   -0.014932
    88  C   -0.090374
    89  C    0.045658
    90  C    0.114086
    91  C    0.062606
    92  C   -0.077510
    93  H    0.034041
    94  N   -0.423554
    95  C    0.163202
    96  C   -0.174942
    97  C   -0.007954
    98  C    0.152369
    99  C    0.099613
   100  C    0.015110
   101  O   -0.252788
   102  C    0.061385
   103  N   -0.350143
   104  C    0.038899
   105  C   -0.020953
   106  C   -0.035116
   107  C    0.089296
   108  C    0.071207
   109  C    0.034486
   110  C   -0.007448
   111  N   -0.324002
   112  C    0.078111
   113  C   -0.163180
   114  C    0.001384
   115  C    0.096443
   116  C    0.131883
   117  C    0.041525
   118  O   -0.189755
   119  C    0.001279
   120  C    0.211203
   121  O   -0.250867
   122  O   -0.306192
   123  C    0.152122
   124  H   -0.019268
   125  H   -0.015023
   126  H   -0.039996
   127  H   -0.002278
   128  H   -0.004378
   129  H    0.019800
   130  H    0.015181
   131  H    0.019821
   132  H    0.014035
   133  H    0.037345
   134  H    0.020215
   135  H    0.019879
   136  H    0.008944
   137  H    0.025196
   138  H    0.039360
   139  H    0.037484
   140  H    0.036078
   141  H    0.033770
   142  H    0.013321
   143  H    0.017579
   144  H    0.024025
   145  H    0.012589
   146  H    0.015011
   147  H    0.006897
   148  H    0.003023
   149  H    0.010723
   150  H    0.016884
   151  H    0.029298
   152  H    0.045006
   153  H    0.008876
   154  H    0.046021
   155  H    0.032945
   156  H    0.042965
   157  H    0.049584
   158  H    0.053613
 Sum of Mulliken charges =  -0.00000

 Dipole moment (field-independent basis, Debye):
    X=              2.9344    Y=              5.1451    Z=              1.2733  Tot=              6.0584
 Quadrupole moment (field-independent basis, Debye-Ang):
   XX=           -522.4879   YY=           -514.1575   ZZ=           -483.2456
   XY=              8.1738   XZ=            -37.2835   YZ=             10.7816

 Normal termination of Gaussian 16 at Fri Sep  3 21:38:34 2021.
