 Gaussian 16, Revision A.03,
 Gaussian 16:  ES64L-G16RevA.03 25-Dec-2016

 -----------------------------------
 #p cam-b3lyp/Def2SVP td=(nstates=5)
 -----------------------------------

 --------------------------------
 TDDFT excited states in gaussian
 --------------------------------
 Symbolic Z-matrix:
 Charge =  0 Multiplicity = 1

                         Standard orientation:
 ---------------------------------------------------------------------
 Center     Atomic      Atomic             Coordinates (Angstroms)
 Number     Number       Type             X           Y           Z
 ---------------------------------------------------------------------
      1         12           0        4.194828   -1.429207    0.195277
      2          6           0        5.223857    1.379105   -1.771114
      3          6           0        5.739790    0.053777    2.851763
      4          6           0        3.694177   -4.096266    1.836244
      5          6           0        3.745926   -3.168461   -2.791216
      6          7           0        5.305167    0.475954    0.390601
      7          6           0        5.577147    1.490286   -0.424463
      8          6           0        6.206063    2.716016    0.303153
      9          6           0        6.820701    1.968474    1.570196
     10          6           0        5.878417    0.779234    1.631301
     11          6           0        8.240949    1.458878    1.347244
     12          6           0        5.130436    3.771983    0.727054
     13          6           0        5.684359    5.136899    1.146012
     14          1           0        4.924961    6.332820    0.813692
     15          7           0        4.210059   -1.756786    2.143433
     16          6           0        4.881060   -1.043327    3.079392
     17          6           0        4.571948   -1.681208    4.377174
     18          6           0        3.820122   -2.936511    4.099564
     19          6           0        3.901872   -2.994273    2.662428
     20          6           0        4.937550   -1.077651    5.698463
     21          6           0        3.145496   -3.932371    4.989100
     22          8           0        2.751704   -5.070563    4.560125
     23          6           0        3.035658   -3.571860    6.414235
     24          7           0        3.989350   -3.427774   -0.371421
     25          6           0        3.720375   -4.376964    0.531725
     26          6           0        3.339242   -5.668002   -0.130014
     27          6           0        3.167058   -5.335174   -1.682216
     28          6           0        3.582561   -3.843642   -1.651255
     29          6           0        4.334360   -6.824722    0.036566
     30          6           0        1.813399   -5.710323   -2.335890
     31          6           0        0.711063   -4.846386   -1.765305
     32          7           0        4.261753   -0.951576   -1.920954
     33          6           0        4.065083   -1.835834   -2.991507
     34          6           0        4.316340   -1.076884   -4.230431
     35          6           0        4.660105    0.200084   -3.791087
     36          6           0        4.651307    0.229429   -2.367235
     37          6           0        4.271392   -1.601025   -5.552433
     38          6           0        5.056778    1.539924   -4.192753
     39          8           0        5.142575    2.132823   -5.269138
     40          6           0        5.556058    2.323529   -2.899498
     41          6           0        4.894693    3.674784   -2.903267
     42          8           0        3.661235    3.783761   -2.748120
     43          8           0        5.835320    4.630260   -2.850085
     44          6           0        5.245034    5.995133   -2.821154
     45          1           0        6.387671    0.307463    3.693092
     46          1           0        3.409619   -5.011201    2.360036
     47          1           0        3.543088   -3.622193   -3.763038
     48          1           0        6.997857    3.217803   -0.253351
     49          1           0        6.734897    2.566909    2.476968
     50          1           0        8.549434    1.580414    0.308983
     51          1           0        8.216742    0.402634    1.616046
     52          1           0        8.935181    1.929518    2.043892
     53          1           0        4.672445    3.461437    1.666132
     54          1           0        4.392384    3.909775   -0.063907
     55          1           0        6.727259    5.251936    0.849307
     56          1           0        5.706582    5.176800    2.235101
     57          1           0        5.626655   -0.242362    5.580261
     58          1           0        5.510624   -1.827543    6.243401
     59          1           0        4.058483   -0.794374    6.277538
     60          1           0        4.033434   -3.408622    6.822091
     61          1           0        2.446889   -4.361533    6.879656
     62          1           0        2.510638   -2.619885    6.498177
     63          1           0        2.395021   -6.044276    0.261509
     64          1           0        3.909250   -5.847223   -2.295103
     65          1           0        3.896882   -7.717739    0.483598
     66          1           0        5.175313   -6.463317    0.627731
     67          1           0        4.832393   -7.135036   -0.881631
     68          1           0        1.558115   -6.745492   -2.111835
     69          1           0        1.812517   -5.595686   -3.419914
     70          1           0        0.444462   -5.367322   -0.846402
     71          1           0       -0.135472   -4.807364   -2.451648
     72          1           0        1.082641   -3.860579   -1.484948
     73          1           0        3.746098   -0.861110   -6.156222
     74          1           0        3.765029   -2.565648   -5.578937
     75          1           0        5.335477   -1.681773   -5.773926
     76          1           0        6.640259    2.398182   -2.977323
     77          1           0        5.678206    6.549893   -3.653523
     78          1           0        5.408736    6.382285   -1.815311
     79          1           0        4.182697    6.065976   -3.057287
     80         12           0       -4.352144    1.366579    0.632578
     81          6           0       -5.201628   -1.606089   -1.189707
     82          6           0       -3.163229    2.643814   -2.298257
     83          6           0       -3.185746    3.810599    2.285962
     84          6           0       -4.540156   -0.533844    3.547840
     85          7           0       -4.251649    0.530918   -1.412866
     86          6           0       -4.661327   -0.584393   -1.998187
     87          6           0       -4.555802   -0.574241   -3.546847
     88          6           0       -3.401989    0.531885   -3.701995
     89          6           0       -3.635593    1.311688   -2.409708
     90          6           0       -1.999437   -0.051626   -3.660846
     91          6           0       -5.889204   -0.113644   -4.233806
     92          6           0       -5.959888   -0.374115   -5.740095
     93          1           0       -7.248229   -0.737061   -6.323984
     94          7           0       -3.777699    3.167844    0.029253
     95          6           0       -3.346270    3.514529   -1.201588
     96          6           0       -3.026005    4.948394   -1.126578
     97          6           0       -3.147131    5.382520    0.291719
     98          6           0       -3.359274    4.104604    0.941348
     99          6           0       -2.727010    5.779933   -2.340074
    100          6           0       -3.070327    6.724169    0.955252
    101          8           0       -2.966795    6.841244    2.227423
    102          6           0       -3.025799    7.893890    0.065735
    103          7           0       -3.716939    1.561174    2.602592
    104          6           0       -3.304375    2.747734    3.081937
    105          6           0       -3.160560    2.708800    4.584662
    106          6           0       -3.797333    1.314643    5.041214
    107          6           0       -4.133187    0.723611    3.654385
    108          6           0       -1.732516    2.815093    5.119249
    109          6           0       -4.920795    1.371232    6.112325
    110          6           0       -6.150956    2.034060    5.535468
    111          7           0       -4.965585   -0.641049    1.143647
    112          6           0       -4.939862   -1.241578    2.421459
    113          6           0       -5.342449   -2.652308    2.247697
    114          6           0       -5.553890   -2.781640    0.866738
    115          6           0       -5.281418   -1.544572    0.222593
    116          6           0       -5.423057   -3.627742    3.281207
    117          6           0       -5.935371   -3.686229   -0.193879
    118          8           0       -6.359285   -4.840276   -0.240845
    119          6           0       -5.602131   -2.999477   -1.588058
    120          6           0       -6.802384   -3.155168   -2.481187
    121          8           0       -7.875218   -2.591456   -2.202160
    122          8           0       -6.426778   -3.760778   -3.622466
    123          6           0       -7.580847   -3.927679   -4.545555
    124          1           0       -2.558278    3.049378   -3.109700
    125          1           0       -2.890640    4.651270    2.918158
    126          1           0       -4.717745   -1.165875    4.420572
    127          1           0       -4.234475   -1.510892   -3.986403
    128          1           0       -3.576766    1.166306   -4.567060
    129          1           0       -2.007579   -1.103071   -3.414802
    130          1           0       -1.469212    0.510171   -2.903023
    131          1           0       -1.480251    0.148160   -4.602581
    132          1           0       -5.933418    0.983060   -4.230496
    133          1           0       -6.739017   -0.555046   -3.750483
    134          1           0       -5.177326   -1.065239   -6.076066
    135          1           0       -5.737058    0.558370   -6.264336
    136          1           0       -2.547823    5.153620   -3.222698
    137          1           0       -1.767089    6.275689   -2.159397
    138          1           0       -3.487896    6.540620   -2.527361
    139          1           0       -2.164766    7.813659   -0.593540
    140          1           0       -3.063028    8.763626    0.724563
    141          1           0       -3.914828    7.880481   -0.574636
    142          1           0       -3.714536    3.516409    5.047231
    143          1           0       -3.044694    0.651019    5.491732
    144          1           0       -1.591069    3.658005    5.821792
    145          1           0       -1.058707    2.904480    4.277498
    146          1           0       -1.359368    1.923456    5.620198
    147          1           0       -4.605752    1.985387    6.959512
    148          1           0       -5.193201    0.397053    6.504449
    149          1           0       -5.934809    3.100169    5.652810
    150          1           0       -7.038790    1.747364    6.095455
    151          1           0       -6.239971    1.831993    4.461740
    152          1           0       -6.339766   -4.178785    3.118433
    153          1           0       -5.405511   -3.165796    4.266127
    154          1           0       -4.513750   -4.200480    3.080184
    155          1           0       -4.721147   -3.496617   -1.995846
    156          1           0       -7.642776   -4.992538   -4.790344
    157          1           0       -7.397377   -3.228221   -5.382727
    158          1           0       -8.571874   -3.744263   -4.147206
 ---------------------------------------------------------------------

 SCF Done:  E(RCAM-B3LYP) =  -4069.81246968     A.U. after   19 cycles

 Excitation energies and oscillator strengths:

 Excited State   1:      Singlet-A      1.6613 eV  746.32 nm  f=0.1948  <S**2>=0.000
     309 -> 315        0.11388
     310 -> 316        0.12575
     311 -> 313        0.45715
     312 -> 314        0.51219
 This state for optimization and/or second-order correction.
 Total Energy, E(TD-HF/TD-DFT) =  -4069.75141867
 Copying the excited state density for this state as the 1-particle RhoCI density.

 Excited State   2:      Singlet-A      1.6879 eV  734.56 nm  f=0.4799  <S**2>=0.000
     309 -> 315        0.13230
     310 -> 316       -0.11748
     311 -> 313        0.51097
     312 -> 314       -0.45630

 Excited State   3:      Singlet-A      2.1858 eV  567.22 nm  f=0.0756  <S**2>=0.000
     309 -> 313        0.20316
     310 -> 314        0.60986
     312 -> 316       -0.25776

 Excited State   4:      Singlet-A      2.1927 eV  565.43 nm  f=0.1178  <S**2>=0.000
     309 -> 313        0.60798
     310 -> 314       -0.20132
     311 -> 315       -0.26381

 Excited State   5:      Singlet-A      2.3378 eV  530.35 nm  f=0.0000  <S**2>=0.000
     312 -> 313        0.70707

 The electronic state is 1-A.
 Alpha  occ. eigenvalues --  -46.87920 -46.87433 -19.26521 -19.26205 -19.19277
 Alpha  occ. eigenvalues --  -19.19001 -19.18926 -19.18526 -19.18360 -19.17849
 Alpha  occ. eigenvalues --  -14.42570 -14.42251 -14.41565 -14.41148 -14.39526
 Alpha  occ. eigenvalues --  -14.39117 -14.38727 -14.38376 -10.39323 -10.38929
 Alpha  occ. eigenvalues --  -10.35559 -10.35204 -10.34580 -10.34029 -10.31926
 Alpha  occ. eigenvalues --  -10.31631 -10.31540 -10.31041 -10.31027 -10.30766
 Alpha  occ. eigenvalues --  -10.30714 -10.30641 -10.30307 -10.30191 -10.30115
 Alpha  occ. eigenvalues --  -10.30041 -10.29930 -10.29772 -10.29719 -10.29377
 Alpha  occ. eigenvalues --  -10.29190 -10.29176 -10.28857 -10.28610 -10.28502
 Alpha  occ. eigenvalues --  -10.28451 -10.28439 -10.28223 -10.28164 -10.27939
 Alpha  occ. eigenvalues --  -10.27848 -10.27806 -10.27759 -10.27719 -10.27597
 Alpha  occ. eigenvalues --  -10.27572 -10.27538 -10.27514 -10.27411 -10.27371
 Alpha  occ. eigenvalues --  -10.27341 -10.27288 -10.27258 -10.27231 -10.27098
 Alpha  occ. eigenvalues --  -10.26863 -10.26796 -10.26523 -10.26457 -10.26335
 Alpha  occ. eigenvalues --  -10.26232 -10.26230 -10.26142 -10.26056 -10.26043
 Alpha  occ. eigenvalues --  -10.25721 -10.25634 -10.25576 -10.25483 -10.25397
 Alpha  occ. eigenvalues --  -10.24988 -10.24903 -10.24737 -10.24642 -10.24639
 Alpha  occ. eigenvalues --  -10.24488  -3.16663  -3.16183  -1.91544  -1.91130
 Alpha  occ. eigenvalues --   -1.91065  -1.90973  -1.90654  -1.90490  -1.16872
 Alpha  occ. eigenvalues --   -1.16495  -1.08827  -1.08464  -1.07325  -1.06894
 Alpha  occ. eigenvalues --   -1.06786  -1.06782  -1.04705  -1.04247  -1.03878
 Alpha  occ. eigenvalues --   -1.03437  -1.03364  -1.02824  -1.02539  -1.01889
 Alpha  occ. eigenvalues --   -0.92121  -0.91766  -0.89621  -0.89324  -0.89296
 Alpha  occ. eigenvalues --   -0.88860  -0.88377  -0.88079  -0.88031  -0.87790
 Alpha  occ. eigenvalues --   -0.87566  -0.87437  -0.87399  -0.86867  -0.85094
 Alpha  occ. eigenvalues --   -0.84745  -0.84031  -0.83755  -0.83077  -0.82771
 Alpha  occ. eigenvalues --   -0.82731  -0.82413  -0.81757  -0.81405  -0.80740
 Alpha  occ. eigenvalues --   -0.80233  -0.78931  -0.78384  -0.77334  -0.77060
 Alpha  occ. eigenvalues --   -0.76918  -0.76689  -0.76063  -0.75583  -0.74998
 Alpha  occ. eigenvalues --   -0.74659  -0.72906  -0.72469  -0.71792  -0.71364
 Alpha  occ. eigenvalues --   -0.69983  -0.69632  -0.68992  -0.68581  -0.67775
 Alpha  occ. eigenvalues --   -0.67391  -0.67327  -0.66970  -0.65409  -0.65031
 Alpha  occ. eigenvalues --   -0.64998  -0.64746  -0.64559  -0.64443  -0.64371
 Alpha  occ. eigenvalues --   -0.64038  -0.62478  -0.62102  -0.60559  -0.60124
 Alpha  occ. eigenvalues --   -0.59924  -0.59528  -0.59116  -0.58781  -0.58641
 Alpha  occ. eigenvalues --   -0.58219  -0.57771  -0.57434  -0.57362  -0.57054
 Alpha  occ. eigenvalues --   -0.56457  -0.56160  -0.55970  -0.55694  -0.55654
 Alpha  occ. eigenvalues --   -0.55469  -0.55237  -0.55102  -0.54670  -0.54346
 Alpha  occ. eigenvalues --   -0.54007  -0.53638  -0.53429  -0.53354  -0.53072
 Alpha  occ. eigenvalues --   -0.53023  -0.52922  -0.52873  -0.52681  -0.52518
 Alpha  occ. eigenvalues --   -0.52413  -0.52277  -0.52096  -0.51742  -0.51667
 Alpha  occ. eigenvalues --   -0.51411  -0.51335  -0.50998  -0.50686  -0.50235
 Alpha  occ. eigenvalues --   -0.50119  -0.50033  -0.49769  -0.49662  -0.49641
 Alpha  occ. eigenvalues --   -0.49366  -0.49251  -0.49223  -0.48959  -0.48848
 Alpha  occ. eigenvalues --   -0.48749  -0.48587  -0.48561  -0.48332  -0.48232
 Alpha  occ. eigenvalues --   -0.48122  -0.47815  -0.47421  -0.47365  -0.46916
 Alpha  occ. eigenvalues --   -0.46894  -0.46672  -0.46496  -0.46494  -0.46301
 Alpha  occ. eigenvalues --   -0.46300  -0.46052  -0.45993  -0.45913  -0.45625
 Alpha  occ. eigenvalues --   -0.45296  -0.45071  -0.44742  -0.44614  -0.44317
 Alpha  occ. eigenvalues --   -0.44272  -0.44227  -0.44201  -0.44157  -0.43904
 Alpha  occ. eigenvalues --   -0.43875  -0.43713  -0.43671  -0.43491  -0.43374
 Alpha  occ. eigenvalues --   -0.43165  -0.43159  -0.42904  -0.42760  -0.42751
 Alpha  occ. eigenvalues --   -0.42704  -0.42383  -0.42119  -0.41839  -0.41788
 Alpha  occ. eigenvalues --   -0.41640  -0.41463  -0.41257  -0.41233  -0.40970
 Alpha  occ. eigenvalues --   -0.40927  -0.40758  -0.40664  -0.40514  -0.40483
 Alpha  occ. eigenvalues --   -0.40327  -0.40310  -0.39997  -0.39507  -0.39304
 Alpha  occ. eigenvalues --   -0.38553  -0.38201  -0.37854  -0.37422  -0.37420
 Alpha  occ. eigenvalues --   -0.37386  -0.37082  -0.36950  -0.36910  -0.36619
 Alpha  occ. eigenvalues --   -0.36333  -0.36042  -0.34418  -0.34032  -0.34008
 Alpha  occ. eigenvalues --   -0.33690  -0.33324  -0.32947  -0.31455  -0.31163
 Alpha  occ. eigenvalues --   -0.31087  -0.30750  -0.30222  -0.29758  -0.29586
 Alpha  occ. eigenvalues --   -0.29473  -0.29089  -0.28981  -0.24209  -0.23806
 Alpha  occ. eigenvalues --   -0.21256  -0.20883
 Alpha virt. eigenvalues --   -0.08908  -0.08556  -0.01868  -0.01467  -0.00186
 Alpha virt. eigenvalues --    0.00209   0.02040   0.02402   0.02837   0.03493
 Alpha virt. eigenvalues --    0.04606   0.04869   0.04982   0.05334   0.06075

 Mulliken charges:
               1
     1  Mg   0.838972
     2  C   -0.003315
     3  C   -0.093906
     4  C   -0.045486
     5  C   -0.064222
     6  N   -0.256942
     7  C   -0.052227
     8  C   -0.014208
     9  C   -0.087125
    10  C    0.046726
    11  C    0.104731
    12  C    0.053405
    13  C   -0.072065
    14  H    0.036443
    15  N   -0.433257
    16  C    0.168830
    17  C   -0.177018
    18  C   -0.003716
    19  C    0.149127
    20  C    0.110140
    21  C    0.012415
    22  O   -0.248708
    23  C    0.062521
    24  N   -0.341222
    25  C    0.041523
    26  C   -0.028497
    27  C   -0.023996
    28  C    0.074881
    29  C    0.075988
    30  C    0.034975
    31  C   -0.004998
    32  N   -0.310096
    33  C    0.079845
    34  C   -0.171245
    35  C    0.007660
    36  C    0.082268
    37  C    0.127721
    38  C    0.044728
    39  O   -0.189738
    40  C   -0.004879
    41  C    0.212938
    42  O   -0.259195
    43  O   -0.304138
    44  C    0.158325
    45  H   -0.017220
    46  H   -0.016110
    47  H   -0.041756
    48  H    0.000778
    49  H   -0.003531
    50  H    0.025446
    51  H    0.016535
    52  H    0.017036
    53  H    0.012136
    54  H    0.043378
    55  H    0.017664
    56  H    0.018824
    57  H    0.006306
    58  H    0.027268
    59  H    0.039436
    60  H    0.037662
    61  H    0.036019
    62  H    0.030714
    63  H    0.017645
    64  H    0.009585
    65  H    0.024077
    66  H    0.012399
    67  H    0.004939
    68  H    0.007982
    69  H    0.003945
    70  H    0.011237
    71  H    0.017437
    72  H    0.027867
    73  H    0.045514
    74  H    0.008989
    75  H    0.046497
    76  H    0.035542
    77  H    0.042981
    78  H    0.047426
    79  H    0.051419
    80  Mg   0.837506
    81  C   -0.016677
    82  C   -0.085894
    83  C   -0.045761
    84  C   -0.065092
    85  N   -0.254584
    86  C   -0.049952
    87  C   -0.015030
    88  C   -0.090248
    89  C    0.044446
    90  C    0.113132
    91  C    0.062508
    92  C   -0.077539
    93  H    0.033782
    94  N   -0.423928
    95  C    0.162174
    96  C   -0.171085
    97  C   -0.008450
    98  C    0.153134
    99  C    0.098611
   100  C    0.015548
   101  O   -0.254577
   102  C    0.061188
   103  N   -0.350042
   104  C    0.037500
   105  C   -0.019583
   106  C   -0.034528
   107  C    0.088572
   108  C    0.074422
   109  C    0.034984
   110  C   -0.007519
   111  N   -0.323951
   112  C    0.077859
   113  C   -0.163300
   114  C    0.002031
   115  C    0.095875
   116  C    0.131493
   117  C    0.042033
   118  O   -0.189012
   119  C    0.000977
   120  C    0.211342
   121  O   -0.251103
   122  O   -0.305908
   123  C    0.152136
   124  H   -0.013777
   125  H   -0.016764
   126  H   -0.041247
   127  H   -0.001804
   128  H   -0.003714
   129  H    0.019979
   130  H    0.019121
   131  H    0.019436
   132  H    0.013980
   133  H    0.037042
   134  H    0.020505
   135  H    0.020191
   136  H    0.011482
   137  H    0.029181
   138  H    0.038462
   139  H    0.038968
   140  H    0.035139
   141  H    0.033878
   142  H    0.013933
   143  H    0.011082
   144  H    0.023767
   145  H    0.011857
   146  H    0.003177
   147  H    0.004987
   148  H    0.003443
   149  H    0.010536
   150  H    0.017555
   151  H    0.030828
   152  H    0.045253
   153  H    0.007796
   154  H    0.047781
   155  H    0.034119
   156  H    0.043192
   157  H    0.049686
   158  H    0.053431
 Sum of Mulliken charges =  -0.00000

 Dipole moment (field-independent basis, Debye):
    X=              5.3229    Y=              2.5105    Z=              1.2495  Tot=              6.0164
 Quadrupole moment (field-independent basis, Debye-Ang):
   XX=           -522.4452   YY=           -519.9766   ZZ=           -477.5085
   XY=            -11.9196   XZ=             36.7175   YZ=             12.9910

 Normal termination of Gaussian 16 at Thu Sep  9 13:50:44 2021.
