 Gaussian 16, Revision A.03,
 Gaussian 16:  ES64L-G16RevA.03 25-Dec-2016

 -----------------------------------
 #p cam-b3lyp/Def2SVP td=(nstates=5)
 -----------------------------------

 --------------------------------
 TDDFT excited states in gaussian
 --------------------------------
 Symbolic Z-matrix:
 Charge =  0 Multiplicity = 1

                         Standard orientation:
 ---------------------------------------------------------------------
 Center     Atomic      Atomic             Coordinates (Angstroms)
 Number     Number       Type             X           Y           Z
 ---------------------------------------------------------------------
      1         12           0        7.726806    0.668609    0.071277
      2          6           0        8.076096   -2.683626   -1.134016
      3          6           0        8.665157    1.724787   -3.034693
      4          6           0        7.866346    3.615492    1.234476
      5          6           0        7.929987   -0.628023    3.299764
      6          7           0        8.273590   -0.435422   -1.767958
      7          6           0        8.309803   -1.717990   -2.115634
      8          6           0        8.545286   -1.938508   -3.639869
      9          6           0        9.264792   -0.558391   -3.985682
     10          6           0        8.673431    0.306022   -2.886134
     11          6           0       10.779896   -0.601687   -3.815128
     12          6           0        7.203971   -2.099420   -4.431520
     13          6           0        7.347553   -2.639529   -5.857360
     14          1           0        6.315784   -3.523310   -6.378640
     15          7           0        7.718742    2.413418   -0.855236
     16          6           0        8.120052    2.657466   -2.125935
     17          6           0        7.919972    4.106075   -2.345435
     18          6           0        7.548683    4.717231   -1.039018
     19          6           0        7.724233    3.596521   -0.151002
     20          6           0        8.035128    4.758337   -3.688954
     21          6           0        7.116029    6.095700   -0.650732
     22          8           0        7.066328    6.474614    0.569320
     23          6           0        6.833085    7.030795   -1.754626
     24          7           0        8.096395    1.425284    1.981377
     25          6           0        8.040638    2.739100    2.225841
     26          6           0        8.057230    3.021580    3.698889
     27          6           0        7.890485    1.607720    4.422041
     28          6           0        7.889022    0.699721    3.167527
     29          6           0        9.314618    3.722248    4.231852
     30          6           0        6.725999    1.468725    5.434500
     31          6           0        5.402095    1.541628    4.707134
     32          7           0        7.783240   -1.308733    0.964573
     33          6           0        7.891511   -1.614803    2.328858
     34          6           0        8.000193   -3.081410    2.435258
     35          6           0        7.964032   -3.528378    1.115881
     36          6           0        7.867011   -2.410024    0.239431
     37          6           0        8.172226   -3.819114    3.639679
     38          6           0        8.009595   -4.689056    0.241463
     39          8           0        7.994381   -5.908236    0.417137
     40          6           0        8.206708   -4.181573   -1.255011
     41          6           0        7.209017   -4.907115   -2.116121
     42          8           0        5.984678   -4.702541   -1.987627
     43          8           0        7.854896   -5.541761   -3.106376
     44          6           0        6.920071   -6.257697   -4.015052
     45          1           0        9.172695    2.168542   -3.893429
     46          1           0        7.807931    4.608535    1.684910
     47          1           0        7.911459   -1.109751    4.279074
     48          1           0        9.204044   -2.772682   -3.881977
     49          1           0        8.970642   -0.180186   -4.964537
     50          1           0       11.102911   -1.537495   -3.359227
     51          1           0       11.024179    0.241156   -3.168264
     52          1           0       11.282127   -0.407234   -4.763142
     53          1           0        6.793385   -1.113040   -4.647238
     54          1           0        6.502035   -2.724331   -3.878258
     55          1           0        8.336654   -3.067153   -6.023868
     56          1           0        7.296515   -1.797869   -6.548160
     57          1           0        8.480981    4.087985   -4.422703
     58          1           0        8.756215    5.569286   -3.588432
     59          1           0        7.080955    5.155682   -4.035371
     60          1           0        7.725944    7.141418   -2.370348
     61          1           0        6.451843    7.938993   -1.289137
     62          1           0        6.068466    6.595622   -2.398779
     63          1           0        7.227611    3.667897    3.982495
     64          1           0        8.776177    1.335111    4.996418
     65          1           0        9.107603    4.659173    4.749560
     66          1           0        9.993194    3.880049    3.394042
     67          1           0        9.928764    3.115614    4.896860
     68          1           0        6.744921    2.290680    6.149328
     69          1           0        6.755899    0.537028    5.999564
     70          1           0        5.233067    2.614000    4.616143
     71          1           0        4.616333    1.071402    5.299314
     72          1           0        5.479653    1.137177    3.697733
     73          1           0        7.503103   -4.676689    3.570332
     74          1           0        7.944969   -3.209015    4.513599
     75          1           0        9.229860   -4.073307    3.571465
     76          1           0        9.233939   -4.415713   -1.532672
     77          1           0        7.235351   -7.300796   -4.042938
     78          1           0        6.916855   -5.704795   -4.954571
     79          1           0        5.892708   -6.362535   -3.664520
     80         12           0       -8.122690    0.156781   -0.422032
     81          6           0       -6.889951   -1.059998    2.721033
     82          6           0       -7.644709    3.312181    0.781960
     83          6           0       -9.618701    1.257963   -2.994341
     84          6           0       -9.546376   -2.984718   -0.921830
     85          7           0       -7.359428    0.901194    1.515891
     86          6           0       -6.862993    0.345932    2.611147
     87          6           0       -6.232921    1.350622    3.612724
     88          6           0       -7.037801    2.667938    3.170344
     89          6           0       -7.340367    2.294217    1.720696
     90          6           0       -8.357161    2.841866    3.904093
     91          6           0       -4.688280    1.521401    3.396062
     92          6           0       -3.956301    2.245605    4.528098
     93          1           0       -2.599092    1.822587    4.862020
     94          7           0       -8.126653    1.970617   -1.227369
     95          6           0       -7.889448    3.140771   -0.598272
     96          6           0       -8.031142    4.185219   -1.624532
     97          6           0       -8.532931    3.550545   -2.873578
     98          6           0       -8.804612    2.209242   -2.396958
     99          6           0       -7.627104    5.612494   -1.394165
    100          6           0       -8.746548    4.068943   -4.263482
    101          8           0       -9.415655    3.407078   -5.133569
    102          6           0       -8.229325    5.415499   -4.547658
    103          7           0       -9.573490   -0.660069   -1.667137
    104          6           0      -10.014431    0.009193   -2.746760
    105          6           0      -10.845168   -0.881806   -3.639157
    106          6           0      -10.668809   -2.359895   -3.054566
    107          6           0       -9.800161   -2.040966   -1.817987
    108          6           0      -12.333017   -0.540990   -3.720096
    109          6           0      -10.176107   -3.453072   -4.041912
    110          6           0       -8.748709   -3.171903   -4.452858
    111          7           0       -8.066622   -1.754224    0.584434
    112          6           0       -8.757225   -2.930796    0.219977
    113          6           0       -8.494557   -3.933548    1.272556
    114          6           0       -7.681665   -3.258136    2.195332
    115          6           0       -7.470385   -1.922129    1.759492
    116          6           0       -9.023647   -5.254340    1.313887
    117          6           0       -6.963011   -3.368344    3.444373
    118          8           0       -6.709582   -4.286940    4.222638
    119          6           0       -6.522397   -1.912016    3.904080
    120          6           0       -5.073211   -1.969416    4.302933
    121          8           0       -4.194406   -2.215381    3.458065
    122          8           0       -4.944315   -1.512937    5.562054
    123          6           0       -3.523008   -1.539998    5.999075
    124          1           0       -7.747797    4.336144    1.142188
    125          1           0      -10.069850    1.553126   -3.944510
    126          1           0       -9.873902   -4.018170   -1.053686
    127          1           0       -6.423467    1.131442    4.656481
    128          1           0       -6.404694    3.550414    3.212421
    129          1           0       -8.592199    1.985701    4.518819
    130          1           0       -9.106742    2.972329    3.134577
    131          1           0       -8.349357    3.772843    4.478160
    132          1           0       -4.518004    2.232240    2.577237
    133          1           0       -4.222054    0.572865    3.212928
    134          1           0       -4.569607    2.319882    5.434346
    135          1           0       -3.794303    3.283804    4.228273
    136          1           0       -7.449039    5.813483   -0.330544
    137          1           0       -8.492522    6.234588   -1.646981
    138          1           0       -6.780628    5.915914   -2.013917
    139          1           0       -8.686705    6.129209   -3.866562
    140          1           0       -8.398056    5.574220   -5.614531
    141          1           0       -7.153414    5.427915   -4.340607
    142          1           0      -10.477060   -0.860450   -4.657561
    143          1           0      -11.618892   -2.764145   -2.675405
    144          1           0      -12.681962   -0.352101   -4.752876
    145          1           0      -12.520701    0.319657   -3.091928
    146          1           0      -13.001599   -1.287571   -3.294891
    147          1           0      -10.772360   -3.432998   -4.957470
    148          1           0      -10.238170   -4.458521   -3.639166
    149          1           0       -8.863478   -2.442460   -5.260221
    150          1           0       -8.266107   -4.080426   -4.807425
    151          1           0       -8.195061   -2.682816   -3.642968
    152          1           0       -8.211156   -5.906200    1.606162
    153          1           0       -9.441750   -5.545404    0.352509
    154          1           0       -9.796539   -5.131027    2.077236
    155          1           0       -7.164978   -1.622836    4.736568
    156          1           0       -3.483901   -2.125415    6.922890
    157          1           0       -3.209022   -0.481018    6.060139
    158          1           0       -2.817634   -2.078744    5.377261
 ---------------------------------------------------------------------

 SCF Done:  E(RCAM-B3LYP) =  -4069.81153795     A.U. after   19 cycles

 Excitation energies and oscillator strengths:

 Excited State   1:      Singlet-A      1.6697 eV  742.55 nm  f=0.0171  <S**2>=0.000
     309 -> 315       -0.10476
     310 -> 316        0.13671
     311 -> 314       -0.41624
     312 -> 313        0.54575
 This state for optimization and/or second-order correction.
 Total Energy, E(TD-HF/TD-DFT) =  -4069.75017714
 Copying the excited state density for this state as the 1-particle RhoCI density.

 Excited State   2:      Singlet-A      1.6854 eV  735.64 nm  f=0.7393  <S**2>=0.000
     309 -> 315        0.14050
     310 -> 316        0.10668
     311 -> 314        0.54490
     312 -> 313        0.41570

 Excited State   3:      Singlet-A      2.1853 eV  567.35 nm  f=0.0677  <S**2>=0.000
     309 -> 314        0.13837
     310 -> 313        0.62766
     312 -> 316       -0.26618

 Excited State   4:      Singlet-A      2.1922 eV  565.57 nm  f=0.1278  <S**2>=0.000
     309 -> 314        0.62574
     310 -> 313       -0.13744
     311 -> 315       -0.27161

 Excited State   5:      Singlet-A      2.8038 eV  442.19 nm  f=0.0000  <S**2>=0.000
     312 -> 314        0.70707

 The electronic state is 1-A.
 Alpha  occ. eigenvalues --  -46.87739 -46.87589 -19.26237 -19.26168 -19.19041
 Alpha  occ. eigenvalues --  -19.18900 -19.18791 -19.18664 -19.18088 -19.17966
 Alpha  occ. eigenvalues --  -14.42427 -14.42391 -14.41398 -14.41291 -14.39348
 Alpha  occ. eigenvalues --  -14.39283 -14.38526 -14.38524 -10.38976 -10.38965
 Alpha  occ. eigenvalues --  -10.35426 -10.35343 -10.34307 -10.34142 -10.31641
 Alpha  occ. eigenvalues --  -10.31555 -10.31338 -10.31233 -10.30953 -10.30850
 Alpha  occ. eigenvalues --  -10.30506 -10.30452 -10.30327 -10.30286 -10.30167
 Alpha  occ. eigenvalues --  -10.30080 -10.29869 -10.29826 -10.29575 -10.29372
 Alpha  occ. eigenvalues --  -10.29331 -10.29204 -10.28675 -10.28640 -10.28559
 Alpha  occ. eigenvalues --  -10.28445 -10.28333 -10.28304 -10.28066 -10.28049
 Alpha  occ. eigenvalues --  -10.27930 -10.27733 -10.27670 -10.27600 -10.27533
 Alpha  occ. eigenvalues --  -10.27476 -10.27461 -10.27443 -10.27425 -10.27413
 Alpha  occ. eigenvalues --  -10.27411 -10.27399 -10.27341 -10.27321 -10.27073
 Alpha  occ. eigenvalues --  -10.26962 -10.26616 -10.26598 -10.26407 -10.26382
 Alpha  occ. eigenvalues --  -10.26174 -10.26173 -10.26081 -10.25969 -10.25961
 Alpha  occ. eigenvalues --  -10.25867 -10.25773 -10.25769 -10.25418 -10.25352
 Alpha  occ. eigenvalues --  -10.24799 -10.24768 -10.24738 -10.24685 -10.24669
 Alpha  occ. eigenvalues --  -10.24623  -3.16481  -3.16339  -1.91363  -1.91221
 Alpha  occ. eigenvalues --   -1.90950  -1.90810  -1.90792  -1.90647  -1.16530
 Alpha  occ. eigenvalues --   -1.16517  -1.08569  -1.08542  -1.07194  -1.06918
 Alpha  occ. eigenvalues --   -1.06828  -1.06525  -1.04521  -1.04423  -1.03708
 Alpha  occ. eigenvalues --   -1.03594  -1.03178  -1.02970  -1.02355  -1.02041
 Alpha  occ. eigenvalues --   -0.91910  -0.91905  -0.89480  -0.89429  -0.89118
 Alpha  occ. eigenvalues --   -0.89075  -0.88250  -0.88158  -0.87805  -0.87719
 Alpha  occ. eigenvalues --   -0.87614  -0.87612  -0.87232  -0.87062  -0.84924
 Alpha  occ. eigenvalues --   -0.84917  -0.83902  -0.83813  -0.82941  -0.82880
 Alpha  occ. eigenvalues --   -0.82588  -0.82582  -0.81509  -0.81504  -0.80531
 Alpha  occ. eigenvalues --   -0.80365  -0.78747  -0.78571  -0.77166  -0.77074
 Alpha  occ. eigenvalues --   -0.76866  -0.76821  -0.75852  -0.75761  -0.74855
 Alpha  occ. eigenvalues --   -0.74739  -0.72718  -0.72629  -0.71616  -0.71512
 Alpha  occ. eigenvalues --   -0.69881  -0.69697  -0.68811  -0.68754  -0.67585
 Alpha  occ. eigenvalues --   -0.67530  -0.67155  -0.67125  -0.65217  -0.65193
 Alpha  occ. eigenvalues --   -0.64790  -0.64697  -0.64575  -0.64558  -0.64226
 Alpha  occ. eigenvalues --   -0.64138  -0.62212  -0.62188  -0.60401  -0.60279
 Alpha  occ. eigenvalues --   -0.59738  -0.59722  -0.58930  -0.58921  -0.58444
 Alpha  occ. eigenvalues --   -0.58351  -0.57502  -0.57464  -0.57255  -0.57169
 Alpha  occ. eigenvalues --   -0.56251  -0.56133  -0.55887  -0.55796  -0.55470
 Alpha  occ. eigenvalues --   -0.55382  -0.55286  -0.55174  -0.54457  -0.54408
 Alpha  occ. eigenvalues --   -0.53835  -0.53825  -0.53250  -0.53162  -0.53161
 Alpha  occ. eigenvalues --   -0.53068  -0.52846  -0.52820  -0.52711  -0.52610
 Alpha  occ. eigenvalues --   -0.52410  -0.52338  -0.51844  -0.51807  -0.51584
 Alpha  occ. eigenvalues --   -0.51551  -0.51132  -0.51124  -0.50544  -0.50424
 Alpha  occ. eigenvalues --   -0.50000  -0.49915  -0.49876  -0.49808  -0.49458
 Alpha  occ. eigenvalues --   -0.49422  -0.49151  -0.49127  -0.49029  -0.49028
 Alpha  occ. eigenvalues --   -0.48522  -0.48478  -0.48425  -0.48389  -0.48312
 Alpha  occ. eigenvalues --   -0.48276  -0.47641  -0.47525  -0.47246  -0.47053
 Alpha  occ. eigenvalues --   -0.46744  -0.46638  -0.46486  -0.46479  -0.46305
 Alpha  occ. eigenvalues --   -0.46201  -0.46100  -0.46011  -0.45743  -0.45739
 Alpha  occ. eigenvalues --   -0.45163  -0.45146  -0.44507  -0.44463  -0.44437
 Alpha  occ. eigenvalues --   -0.44405  -0.44100  -0.44056  -0.44027  -0.44011
 Alpha  occ. eigenvalues --   -0.43955  -0.43870  -0.43467  -0.43417  -0.43331
 Alpha  occ. eigenvalues --   -0.43311  -0.42967  -0.42847  -0.42812  -0.42648
 Alpha  occ. eigenvalues --   -0.42572  -0.42491  -0.41960  -0.41893  -0.41642
 Alpha  occ. eigenvalues --   -0.41593  -0.41469  -0.41385  -0.41084  -0.40920
 Alpha  occ. eigenvalues --   -0.40816  -0.40788  -0.40661  -0.40630  -0.40528
 Alpha  occ. eigenvalues --   -0.40428  -0.40159  -0.40148  -0.39419  -0.39364
 Alpha  occ. eigenvalues --   -0.38429  -0.38287  -0.37674  -0.37572  -0.37276
 Alpha  occ. eigenvalues --   -0.37199  -0.37193  -0.37123  -0.36671  -0.36626
 Alpha  occ. eigenvalues --   -0.36139  -0.36120  -0.34227  -0.34181  -0.33750
 Alpha  occ. eigenvalues --   -0.33662  -0.33125  -0.33103  -0.31320  -0.31223
 Alpha  occ. eigenvalues --   -0.30979  -0.30902  -0.29946  -0.29869  -0.29397
 Alpha  occ. eigenvalues --   -0.29261  -0.29258  -0.29137  -0.24022  -0.23965
 Alpha  occ. eigenvalues --   -0.21072  -0.21048
 Alpha virt. eigenvalues --   -0.08723  -0.08719  -0.01699  -0.01617  -0.00010
 Alpha virt. eigenvalues --    0.00035   0.02266   0.02283   0.03197   0.03313
 Alpha virt. eigenvalues --    0.04782   0.04804   0.05206   0.05274   0.06258

 Mulliken charges:
               1
     1  Mg   0.839122
     2  C   -0.002670
     3  C   -0.094031
     4  C   -0.046075
     5  C   -0.064070
     6  N   -0.256744
     7  C   -0.052296
     8  C   -0.014030
     9  C   -0.087001
    10  C    0.046304
    11  C    0.104844
    12  C    0.053430
    13  C   -0.071885
    14  H    0.036619
    15  N   -0.433059
    16  C    0.168330
    17  C   -0.177262
    18  C   -0.004269
    19  C    0.148660
    20  C    0.110212
    21  C    0.012023
    22  O   -0.250149
    23  C    0.062594
    24  N   -0.341151
    25  C    0.041176
    26  C   -0.028045
    27  C   -0.023999
    28  C    0.074940
    29  C    0.076244
    30  C    0.035181
    31  C   -0.004354
    32  N   -0.310615
    33  C    0.080698
    34  C   -0.169365
    35  C    0.008606
    36  C    0.083285
    37  C    0.127201
    38  C    0.046549
    39  O   -0.187876
    40  C   -0.005486
    41  C    0.212859
    42  O   -0.256316
    43  O   -0.305019
    44  C    0.157527
    45  H   -0.017722
    46  H   -0.017268
    47  H   -0.041538
    48  H    0.000986
    49  H   -0.004040
    50  H    0.025471
    51  H    0.016296
    52  H    0.016566
    53  H    0.011212
    54  H    0.044614
    55  H    0.017718
    56  H    0.017800
    57  H    0.005923
    58  H    0.026583
    59  H    0.039286
    60  H    0.037406
    61  H    0.035056
    62  H    0.031347
    63  H    0.016086
    64  H    0.009436
    65  H    0.022834
    66  H    0.012608
    67  H    0.004691
    68  H    0.005910
    69  H    0.004839
    70  H    0.008205
    71  H    0.017657
    72  H    0.029663
    73  H    0.048229
    74  H    0.009002
    75  H    0.045932
    76  H    0.035063
    77  H    0.042940
    78  H    0.046242
    79  H    0.054331
    80  Mg   0.838108
    81  C   -0.016598
    82  C   -0.087741
    83  C   -0.045629
    84  C   -0.064971
    85  N   -0.254537
    86  C   -0.049735
    87  C   -0.015106
    88  C   -0.090514
    89  C    0.045753
    90  C    0.114410
    91  C    0.062476
    92  C   -0.077926
    93  H    0.035242
    94  N   -0.423449
    95  C    0.162881
    96  C   -0.174751
    97  C   -0.007979
    98  C    0.152100
    99  C    0.099424
   100  C    0.015432
   101  O   -0.253421
   102  C    0.061262
   103  N   -0.350103
   104  C    0.037489
   105  C   -0.019781
   106  C   -0.034827
   107  C    0.089021
   108  C    0.073735
   109  C    0.034754
   110  C   -0.007679
   111  N   -0.324190
   112  C    0.078653
   113  C   -0.162917
   114  C    0.002363
   115  C    0.096447
   116  C    0.131410
   117  C    0.042721
   118  O   -0.187481
   119  C    0.000815
   120  C    0.211225
   121  O   -0.250170
   122  O   -0.305893
   123  C    0.151845
   124  H   -0.019798
   125  H   -0.015807
   126  H   -0.040450
   127  H   -0.000706
   128  H   -0.004299
   129  H    0.022394
   130  H    0.014295
   131  H    0.016148
   132  H    0.014021
   133  H    0.038175
   134  H    0.020494
   135  H    0.019599
   136  H    0.008781
   137  H    0.025908
   138  H    0.039573
   139  H    0.038199
   140  H    0.036057
   141  H    0.033764
   142  H    0.014268
   143  H    0.012312
   144  H    0.024934
   145  H    0.011570
   146  H    0.005562
   147  H    0.006051
   148  H    0.003714
   149  H    0.010716
   150  H    0.018063
   151  H    0.030370
   152  H    0.046456
   153  H    0.008493
   154  H    0.046796
   155  H    0.034842
   156  H    0.043738
   157  H    0.049179
   158  H    0.054423
 Sum of Mulliken charges =  -0.00000

 Dipole moment (field-independent basis, Debye):
    X=              1.2191    Y=              6.9071    Z=             -2.4278  Tot=              7.4221
 Quadrupole moment (field-independent basis, Debye-Ang):
   XX=           -467.7289   YY=           -529.3988   ZZ=           -473.9479
   XY=              6.6264   XZ=            -29.2645   YZ=             26.0742

 Normal termination of Gaussian 16 at Sat Sep 11 23:47:27 2021.
