 Gaussian 16, Revision A.03,
 Gaussian 16:  ES64L-G16RevA.03 25-Dec-2016

 -----------------------------------
 #p cam-b3lyp/Def2SVP td=(nstates=5)
 -----------------------------------

 --------------------------------
 TDDFT excited states in gaussian
 --------------------------------
 Symbolic Z-matrix:
 Charge =  0 Multiplicity = 1

                         Standard orientation:
 ---------------------------------------------------------------------
 Center     Atomic      Atomic             Coordinates (Angstroms)
 Number     Number       Type             X           Y           Z
 ---------------------------------------------------------------------
      1         12           0        6.787422   -0.532508    0.522247
      2          6           0        7.053823    2.494806   -1.368948
      3          6           0        7.440393    1.325936    3.308442
      4          6           0        7.007216   -3.246259    2.148244
      5          6           0        7.284087   -2.265575   -2.460279
      6          7           0        7.178028    1.628002    0.805571
      7          6           0        7.192916    2.690584    0.006904
      8          6           0        7.294692    4.041033    0.777167
      9          6           0        7.970683    3.513771    2.121424
     10          6           0        7.472217    2.079585    2.097644
     11          6           0        9.495203    3.504761    2.073875
     12          6           0        5.890017    4.675522    1.052924
     13          6           0        5.911291    6.138516    1.505195
     14          1           0        4.844131    7.023633    1.063507
     15          7           0        6.684795   -0.873684    2.465419
     16          6           0        6.970672    0.003089    3.457804
     17          6           0        6.741317   -0.725512    4.723986
     18          6           0        6.482174   -2.152900    4.387085
     19          6           0        6.743624   -2.153236    2.970391
     20          6           0        6.732725   -0.060393    6.066108
     21          6           0        6.075273   -3.332087    5.212967
     22          8           0        6.130556   -4.528118    4.764605
     23          6           0        5.689184   -3.054980    6.608385
     24          7           0        7.318410   -2.476091   -0.023804
     25          6           0        7.274723   -3.477861    0.861369
     26          6           0        7.419060   -4.809592    0.186389
     27          6           0        7.327186   -4.522671   -1.381727
     28          6           0        7.221811   -2.978384   -1.333296
     29          6           0        8.713337   -5.576914    0.489827
     30          6           0        6.257579   -5.310297   -2.179226
     31          6           0        4.874188   -4.868665   -1.756982
     32          7           0        6.937019   -0.019430   -1.581420
     33          6           0        7.167434   -0.898643   -2.649394
     34          6           0        7.295909   -0.075927   -3.866234
     35          6           0        7.146845    1.234433   -3.416142
     36          6           0        6.964652    1.232224   -2.003665
     37          6           0        7.578929   -0.560443   -5.173742
     38          6           0        7.123696    2.637527   -3.796470
     39          8           0        7.133041    3.245906   -4.867582
     40          6           0        7.184321    3.517176   -2.470435
     41          6           0        6.119969    4.574986   -2.577677
     42          8           0        4.910253    4.268625   -2.567852
     43          8           0        6.680680    5.785785   -2.435856
     44          6           0        5.674681    6.879244   -2.502712
     45          1           0        7.866934    1.762862    4.213483
     46          1           0        6.981414   -4.213628    2.654178
     47          1           0        7.355550   -2.742275   -3.439617
     48          1           0        7.935679    4.786090    0.305519
     49          1           0        7.588573    4.033230    2.999990
     50          1           0        9.864068    3.740801    1.075804
     51          1           0        9.789343    2.494591    2.359409
     52          1           0        9.910427    4.164505    2.836177
     53          1           0        5.454732    4.213692    1.939096
     54          1           0        5.244241    4.577495    0.179603
     55          1           0        6.884988    6.596264    1.328305
     56          1           0        5.793317    6.162842    2.588565
     57          1           0        7.117078    0.957350    6.011184
     58          1           0        7.453856   -0.589864    6.688475
     59          1           0        5.748812   -0.093522    6.534242
     60          1           0        6.523427   -2.579961    7.125052
     61          1           0        5.343776   -4.003200    7.018779
     62          1           0        4.873977   -2.330844    6.612031
     63          1           0        6.612930   -5.483243    0.474094
     64          1           0        8.262069   -4.749946   -1.894577
     65          1           0        8.545866   -6.572507    0.901473
     66          1           0        9.314204   -4.969958    1.166477
     67          1           0        9.388199   -5.688383   -0.358438
     68          1           0        6.333389   -6.375838   -1.965170
     69          1           0        6.344075   -5.181804   -3.258234
     70          1           0        4.689876   -5.465679   -0.864550
     71          1           0        4.147204   -5.097649   -2.536899
     72          1           0        4.865418   -3.820984   -1.455694
     73          1           0        6.912651   -0.023535   -5.848852
     74          1           0        7.425120   -1.637339   -5.238870
     75          1           0        8.628276   -0.281965   -5.269535
     76          1           0        8.184768    3.946253   -2.424372
     77          1           0        5.993972    7.561413   -3.290705
     78          1           0        5.584543    7.279556   -1.492747
     79          1           0        4.683035    6.600672   -2.861005
     80         12           0       -6.404998   -0.800439   -0.350429
     81          6           0       -8.954997    1.594302    0.450710
     82          6           0       -4.402918    1.832802   -1.182501
     83          6           0       -4.302358   -2.886692   -1.487919
     84          6           0       -8.920722   -3.203610   -0.554541
     85          7           0       -6.747709    1.384550   -0.325785
     86          6           0       -7.734495    2.181120    0.056423
     87          6           0       -7.367502    3.689016    0.090221
     88          6           0       -6.158103    3.665888   -0.966040
     89          6           0       -5.712070    2.215181   -0.795191
     90          6           0       -6.610813    3.860253   -2.403609
     91          6           0       -6.882961    4.154616    1.508122
     92          6           0       -6.803553    5.671413    1.694558
     93          1           0       -7.137456    6.230454    3.001647
     94          7           0       -4.471029   -0.590374   -0.743094
     95          6           0       -3.820283    0.554500   -1.038190
     96          6           0       -2.417526    0.173187   -1.264088
     97          6           0       -2.325433   -1.311955   -1.240100
     98          6           0       -3.730167   -1.662158   -1.175414
     99          6           0       -1.311726    1.179830   -1.395666
    100          6           0       -1.165698   -2.260316   -1.282885
    101          8           0       -1.328796   -3.514483   -1.491000
    102          6           0        0.173241   -1.664226   -1.167119
    103          7           0       -6.603070   -2.711956   -1.143648
    104          6           0       -5.523066   -3.421951   -1.514354
    105          6           0       -5.885841   -4.860935   -1.793800
    106          6           0       -7.397200   -5.027050   -1.298018
    107          6           0       -7.688652   -3.568616   -0.881584
    108          6           0       -5.777701   -5.302921   -3.253032
    109          6           0       -7.681286   -6.159193   -0.273218
    110          6           0       -7.016174   -5.839817    1.046248
    111          7           0       -8.521936   -0.876099    0.074944
    112          6           0       -9.389546   -1.975470   -0.105916
    113          6           0      -10.754879   -1.509520    0.212180
    114          6           0      -10.588692   -0.154609    0.536362
    115          6           0       -9.219556    0.203989    0.408424
    116          6           0      -11.940764   -2.292770    0.132853
    117          6           0      -11.261731    1.056486    0.947436
    118          8           0      -12.408312    1.338589    1.293137
    119          6           0      -10.252859    2.274330    0.787926
    120          6           0      -10.308443    3.091801    2.049337
    121          8           0       -9.918007    2.614710    3.129408
    122          8           0      -10.606906    4.365807    1.735986
    123          6           0      -10.662588    5.218227    2.953408
    124          1           0       -3.774055    2.569413   -1.683300
    125          1           0       -3.602668   -3.673419   -1.779422
    126          1           0       -9.745718   -3.917060   -0.499464
    127          1           0       -8.149626    4.354727   -0.254571
    128          1           0       -5.363377    4.346352   -0.671509
    129          1           0       -7.687224    3.863822   -2.490040
    130          1           0       -6.189387    3.032720   -2.959167
    131          1           0       -6.159892    4.764750   -2.821803
    132          1           0       -5.823221    3.894906    1.627489
    133          1           0       -7.494346    3.727308    2.278994
    134          1           0       -7.330279    6.212613    0.899187
    135          1           0       -5.761289    5.980507    1.584235
    136          1           0       -1.705588    2.193691   -1.538331
    137          1           0       -0.787114    0.958081   -2.331327
    138          1           0       -0.598055    1.131852   -0.570419
    139          1           0        0.318888   -0.944877   -1.969469
    140          1           0        0.866041   -2.507093   -1.128760
    141          1           0        0.226217   -1.102809   -0.227641
    142          1           0       -5.254485   -5.535656   -1.228790
    143          1           0       -8.076536   -5.257513   -2.131819
    144          1           0       -5.105097   -6.169328   -3.397953
    145          1           0       -5.442849   -4.458971   -3.841384
    146          1           0       -6.722891   -5.556575   -3.729988
    147          1           0       -7.247980   -7.100795   -0.619322
    148          1           0       -8.738676   -6.333968   -0.104754
    149          1           0       -5.988946   -6.184642    0.894647
    150          1           0       -7.497974   -6.379959    1.858751
    151          1           0       -6.978866   -4.757551    1.216397
    152          1           0      -12.519276   -2.072546    1.020166
    153          1           0      -11.712172   -3.353968    0.059578
    154          1           0      -12.371813   -1.900887   -0.792292
    155          1           0      -10.566566    2.847379   -0.085438
    156          1           0      -11.646470    5.697362    2.963213
    157          1           0       -9.779634    5.882009    2.893969
    158          1           0      -10.660866    4.719004    3.915293
 ---------------------------------------------------------------------

 SCF Done:  E(RCAM-B3LYP) =  -4069.81227803     A.U. after   19 cycles

 Excitation energies and oscillator strengths:

 Excited State   1:      Singlet-A      1.6706 eV  742.17 nm  f=0.3089  <S**2>=0.000
     309 -> 315        0.10436
     310 -> 316        0.13814
     311 -> 313       -0.41160
     312 -> 314        0.54915
 This state for optimization and/or second-order correction.
 Total Energy, E(TD-HF/TD-DFT) =  -4069.75088599
 Copying the excited state density for this state as the 1-particle RhoCI density.

 Excited State   2:      Singlet-A      1.6838 eV  736.34 nm  f=0.4761  <S**2>=0.000
     309 -> 315       -0.14156
     310 -> 316        0.10531
     311 -> 313        0.54850
     312 -> 314        0.41128

 Excited State   3:      Singlet-A      2.1870 eV  566.90 nm  f=0.0329  <S**2>=0.000
     309 -> 313       -0.23221
     310 -> 314        0.59944
     312 -> 316       -0.25498

 Excited State   4:      Singlet-A      2.1951 eV  564.83 nm  f=0.1543  <S**2>=0.000
     309 -> 313        0.59719
     310 -> 314        0.23046
     311 -> 315        0.26106
     312 -> 316       -0.10053

 Excited State   5:      Singlet-A      2.6047 eV  476.01 nm  f=0.0000  <S**2>=0.000
     312 -> 313        0.70691

 The electronic state is 1-A.
 Alpha  occ. eigenvalues --  -46.87954 -46.87517 -19.26543 -19.26267 -19.19296
 Alpha  occ. eigenvalues --  -19.19071 -19.18910 -19.18528 -19.18345 -19.17921
 Alpha  occ. eigenvalues --  -14.42607 -14.42354 -14.41584 -14.41217 -14.39552
 Alpha  occ. eigenvalues --  -14.39201 -14.38749 -14.38457 -10.39344 -10.38998
 Alpha  occ. eigenvalues --  -10.35540 -10.35201 -10.34569 -10.34101 -10.31949
 Alpha  occ. eigenvalues --  -10.31692 -10.31569 -10.31170 -10.31070 -10.30868
 Alpha  occ. eigenvalues --  -10.30726 -10.30649 -10.30316 -10.30258 -10.30212
 Alpha  occ. eigenvalues --  -10.30046 -10.29987 -10.29771 -10.29769 -10.29389
 Alpha  occ. eigenvalues --  -10.29272 -10.29234 -10.28940 -10.28778 -10.28593
 Alpha  occ. eigenvalues --  -10.28576 -10.28524 -10.28288 -10.28250 -10.28002
 Alpha  occ. eigenvalues --  -10.27940 -10.27875 -10.27844 -10.27722 -10.27598
 Alpha  occ. eigenvalues --  -10.27564 -10.27552 -10.27510 -10.27507 -10.27398
 Alpha  occ. eigenvalues --  -10.27353 -10.27342 -10.27293 -10.27260 -10.27120
 Alpha  occ. eigenvalues --  -10.26947 -10.26931 -10.26591 -10.26479 -10.26383
 Alpha  occ. eigenvalues --  -10.26173 -10.26164 -10.26144 -10.26035 -10.25975
 Alpha  occ. eigenvalues --  -10.25877 -10.25791 -10.25732 -10.25485 -10.25289
 Alpha  occ. eigenvalues --  -10.24988 -10.24918 -10.24723 -10.24632 -10.24628
 Alpha  occ. eigenvalues --  -10.24549  -3.16699  -3.16267  -1.91581  -1.91167
 Alpha  occ. eigenvalues --   -1.91149  -1.91009  -1.90738  -1.90575  -1.16893
 Alpha  occ. eigenvalues --   -1.16559  -1.08811  -1.08534  -1.07307  -1.06913
 Alpha  occ. eigenvalues --   -1.06855  -1.06781  -1.04739  -1.04350  -1.03898
 Alpha  occ. eigenvalues --   -1.03519  -1.03380  -1.02894  -1.02556  -1.01966
 Alpha  occ. eigenvalues --   -0.92138  -0.91849  -0.89613  -0.89365  -0.89362
 Alpha  occ. eigenvalues --   -0.89020  -0.88371  -0.88094  -0.88016  -0.87824
 Alpha  occ. eigenvalues --   -0.87655  -0.87539  -0.87397  -0.86903  -0.85151
 Alpha  occ. eigenvalues --   -0.84866  -0.84011  -0.83757  -0.83055  -0.82801
 Alpha  occ. eigenvalues --   -0.82739  -0.82495  -0.81774  -0.81481  -0.80755
 Alpha  occ. eigenvalues --   -0.80307  -0.78929  -0.78446  -0.77351  -0.77093
 Alpha  occ. eigenvalues --   -0.76995  -0.76781  -0.76091  -0.75696  -0.74997
 Alpha  occ. eigenvalues --   -0.74673  -0.72911  -0.72552  -0.71812  -0.71444
 Alpha  occ. eigenvalues --   -0.69950  -0.69639  -0.69031  -0.68687  -0.67787
 Alpha  occ. eigenvalues --   -0.67459  -0.67392  -0.67055  -0.65462  -0.65143
 Alpha  occ. eigenvalues --   -0.65013  -0.64768  -0.64635  -0.64526  -0.64365
 Alpha  occ. eigenvalues --   -0.64076  -0.62490  -0.62167  -0.60559  -0.60155
 Alpha  occ. eigenvalues --   -0.59972  -0.59658  -0.59130  -0.58856  -0.58650
 Alpha  occ. eigenvalues --   -0.58285  -0.57780  -0.57435  -0.57431  -0.57089
 Alpha  occ. eigenvalues --   -0.56458  -0.56187  -0.56046  -0.55767  -0.55655
 Alpha  occ. eigenvalues --   -0.55461  -0.55289  -0.55129  -0.54664  -0.54377
 Alpha  occ. eigenvalues --   -0.54075  -0.53782  -0.53427  -0.53378  -0.53087
 Alpha  occ. eigenvalues --   -0.53082  -0.52990  -0.52886  -0.52772  -0.52470
 Alpha  occ. eigenvalues --   -0.52455  -0.52285  -0.52059  -0.51787  -0.51758
 Alpha  occ. eigenvalues --   -0.51505  -0.51341  -0.51071  -0.50671  -0.50245
 Alpha  occ. eigenvalues --   -0.50117  -0.50029  -0.49808  -0.49719  -0.49664
 Alpha  occ. eigenvalues --   -0.49370  -0.49324  -0.49258  -0.49042  -0.48973
 Alpha  occ. eigenvalues --   -0.48766  -0.48583  -0.48555  -0.48425  -0.48254
 Alpha  occ. eigenvalues --   -0.48153  -0.47830  -0.47434  -0.47428  -0.46936
 Alpha  occ. eigenvalues --   -0.46926  -0.46730  -0.46572  -0.46498  -0.46415
 Alpha  occ. eigenvalues --   -0.46299  -0.46111  -0.45995  -0.45955  -0.45706
 Alpha  occ. eigenvalues --   -0.45290  -0.45079  -0.44742  -0.44630  -0.44385
 Alpha  occ. eigenvalues --   -0.44336  -0.44276  -0.44221  -0.44162  -0.43990
 Alpha  occ. eigenvalues --   -0.43933  -0.43759  -0.43671  -0.43527  -0.43443
 Alpha  occ. eigenvalues --   -0.43251  -0.43169  -0.42919  -0.42819  -0.42767
 Alpha  occ. eigenvalues --   -0.42727  -0.42411  -0.42114  -0.41852  -0.41844
 Alpha  occ. eigenvalues --   -0.41692  -0.41535  -0.41331  -0.41284  -0.41014
 Alpha  occ. eigenvalues --   -0.40939  -0.40851  -0.40657  -0.40585  -0.40538
 Alpha  occ. eigenvalues --   -0.40431  -0.40371  -0.40098  -0.39468  -0.39310
 Alpha  occ. eigenvalues --   -0.38566  -0.38229  -0.37942  -0.37538  -0.37442
 Alpha  occ. eigenvalues --   -0.37425  -0.37136  -0.37059  -0.36927  -0.36675
 Alpha  occ. eigenvalues --   -0.36345  -0.36097  -0.34438  -0.34113  -0.34027
 Alpha  occ. eigenvalues --   -0.33762  -0.33338  -0.33032  -0.31441  -0.31180
 Alpha  occ. eigenvalues --   -0.31092  -0.30829  -0.30208  -0.29830  -0.29591
 Alpha  occ. eigenvalues --   -0.29476  -0.29159  -0.29060  -0.24232  -0.23894
 Alpha  occ. eigenvalues --   -0.21270  -0.20967
 Alpha virt. eigenvalues --   -0.08917  -0.08635  -0.01886  -0.01539  -0.00192
 Alpha virt. eigenvalues --    0.00144   0.02047   0.02344   0.02800   0.03349
 Alpha virt. eigenvalues --    0.04552   0.04848   0.04860   0.05263   0.05967

 Mulliken charges:
               1
     1  Mg   0.836370
     2  C   -0.004026
     3  C   -0.094382
     4  C   -0.045352
     5  C   -0.063435
     6  N   -0.256883
     7  C   -0.052978
     8  C   -0.013807
     9  C   -0.086925
    10  C    0.046003
    11  C    0.104710
    12  C    0.053502
    13  C   -0.071604
    14  H    0.034910
    15  N   -0.433368
    16  C    0.168247
    17  C   -0.177138
    18  C   -0.003719
    19  C    0.148574
    20  C    0.110101
    21  C    0.012597
    22  O   -0.248669
    23  C    0.062391
    24  N   -0.341200
    25  C    0.041347
    26  C   -0.028313
    27  C   -0.024132
    28  C    0.074841
    29  C    0.076037
    30  C    0.034870
    31  C   -0.005117
    32  N   -0.310289
    33  C    0.079724
    34  C   -0.169944
    35  C    0.008132
    36  C    0.081968
    37  C    0.127416
    38  C    0.045382
    39  O   -0.188769
    40  C   -0.005019
    41  C    0.213264
    42  O   -0.259358
    43  O   -0.304208
    44  C    0.157920
    45  H   -0.017295
    46  H   -0.015990
    47  H   -0.040873
    48  H    0.001084
    49  H   -0.004030
    50  H    0.025599
    51  H    0.016814
    52  H    0.016975
    53  H    0.010758
    54  H    0.042505
    55  H    0.018556
    56  H    0.018368
    57  H    0.005861
    58  H    0.027349
    59  H    0.039787
    60  H    0.037408
    61  H    0.036481
    62  H    0.031478
    63  H    0.017586
    64  H    0.009561
    65  H    0.023821
    66  H    0.012339
    67  H    0.004971
    68  H    0.007167
    69  H    0.004735
    70  H    0.010204
    71  H    0.021574
    72  H    0.026536
    73  H    0.047089
    74  H    0.009719
    75  H    0.046272
    76  H    0.035549
    77  H    0.043440
    78  H    0.046559
    79  H    0.052333
    80  Mg   0.837367
    81  C   -0.016903
    82  C   -0.087633
    83  C   -0.045562
    84  C   -0.064960
    85  N   -0.254526
    86  C   -0.050216
    87  C   -0.015111
    88  C   -0.090396
    89  C    0.045506
    90  C    0.114284
    91  C    0.062589
    92  C   -0.077592
    93  H    0.033966
    94  N   -0.423621
    95  C    0.162606
    96  C   -0.174106
    97  C   -0.007708
    98  C    0.152255
    99  C    0.099046
   100  C    0.015420
   101  O   -0.253887
   102  C    0.060215
   103  N   -0.350048
   104  C    0.037700
   105  C   -0.019878
   106  C   -0.034636
   107  C    0.088616
   108  C    0.073722
   109  C    0.034843
   110  C   -0.007602
   111  N   -0.323949
   112  C    0.077990
   113  C   -0.163550
   114  C    0.002035
   115  C    0.095872
   116  C    0.131581
   117  C    0.042055
   118  O   -0.188612
   119  C    0.000989
   120  C    0.211192
   121  O   -0.251298
   122  O   -0.305576
   123  C    0.152174
   124  H   -0.018303
   125  H   -0.015724
   126  H   -0.040910
   127  H   -0.000895
   128  H   -0.004155
   129  H    0.022176
   130  H    0.014869
   131  H    0.016594
   132  H    0.013823
   133  H    0.037380
   134  H    0.020819
   135  H    0.019550
   136  H    0.009849
   137  H    0.030097
   138  H    0.040676
   139  H    0.042001
   140  H    0.036167
   141  H    0.033211
   142  H    0.014232
   143  H    0.012152
   144  H    0.024795
   145  H    0.011907
   146  H    0.005490
   147  H    0.005944
   148  H    0.003408
   149  H    0.010897
   150  H    0.017578
   151  H    0.030208
   152  H    0.045551
   153  H    0.008198
   154  H    0.046626
   155  H    0.034847
   156  H    0.043665
   157  H    0.049380
   158  H    0.053290
 Sum of Mulliken charges =  -0.00000

 Dipole moment (field-independent basis, Debye):
    X=              5.2529    Y=              2.8112    Z=              1.9028  Tot=              6.2544
 Quadrupole moment (field-independent basis, Debye-Ang):
   XX=           -550.7312   YY=           -469.7849   ZZ=           -515.3548
   XY=             14.5313   XZ=             52.6060   YZ=             34.5448

 Normal termination of Gaussian 16 at Sat Sep 11 03:24:05 2021.
