 Gaussian 16, Revision A.03,
 Gaussian 16:  ES64L-G16RevA.03 25-Dec-2016

 -----------------------------------
 #p cam-b3lyp/Def2SVP td=(nstates=5)
 -----------------------------------

 --------------------------------
 TDDFT excited states in gaussian
 --------------------------------
 Symbolic Z-matrix:
 Charge =  0 Multiplicity = 1

                         Standard orientation:
 ---------------------------------------------------------------------
 Center     Atomic      Atomic             Coordinates (Angstroms)
 Number     Number       Type             X           Y           Z
 ---------------------------------------------------------------------
      1         12           0        7.585388    1.056387    0.495493
      2          6           0        7.992530   -2.443823   -0.132976
      3          6           0        8.574001    1.598000   -2.725123
      4          6           0        7.671916    4.156399    1.158111
      5          6           0        7.738060    0.313046    3.896933
      6          7           0        8.179564   -0.328608   -1.126046
      7          6           0        8.235698   -1.650366   -1.256337
      8          6           0        8.503433   -2.116205   -2.718762
      9          6           0        9.215515   -0.802611   -3.275006
     10          6           0        8.593803    0.223431   -2.344072
     11          6           0       10.727323   -0.797004   -3.072749
     12          6           0        7.179701   -2.423370   -3.496653
     13          6           0        7.356874   -3.189379   -4.810881
     14          1           0        6.344649   -4.160711   -5.197227
     15          7           0        7.577816    2.624143   -0.706561
     16          6           0        8.001601    2.660501   -1.992785
     17          6           0        7.791134    4.050245   -2.452128
     18          6           0        7.387941    4.863585   -1.271448
     19          6           0        7.557357    3.907196   -0.207495
     20          6           0        7.926111    4.473362   -3.882689
     21          6           0        6.933687    6.281345   -1.124001
     22          8           0        6.856073    6.855679    0.015601
     23          6           0        6.663053    7.017632   -2.372072
     24          7           0        7.909501    2.122708    2.260584
     25          6           0        7.835546    3.457992    2.283588
     26          6           0        7.820201    3.979847    3.689779
     27          6           0        7.653646    2.702593    4.633513
     28          6           0        7.686181    1.600108    3.546436
     29          6           0        9.059627    4.775522    4.121908
     30          6           0        6.470896    2.717073    5.634169
     31          6           0        5.160920    2.651335    4.881347
     32          7           0        7.644343   -0.745531    1.704070
     33          6           0        7.728800   -0.820832    3.101879
     34          6           0        7.850305   -2.248202    3.451046
     35          6           0        7.844730   -2.907182    2.223218
     36          6           0        7.753620   -1.950162    1.172455
     37          6           0        8.006060   -2.774711    4.763663
     38          6           0        7.919357   -4.195519    1.553536
     39          8           0        7.913109   -5.369096    1.927932
     40          6           0        8.140764   -3.939330   -0.002476
     41          6           0        7.167697   -4.810224   -0.749466
     42          8           0        5.939041   -4.603565   -0.678314
     43          8           0        7.839416   -5.590910   -1.609620
     44          6           0        6.930040   -6.459341   -2.403986
     45          1           0        9.093827    1.900697   -3.636219
     46          1           0        7.594511    5.209286    1.437173
     47          1           0        7.705132   -0.000697    4.941890
     48          1           0        9.175305   -2.970051   -2.807975
     49          1           0        8.936888   -0.595048   -4.307966
     50          1           0       11.050805   -1.640379   -2.462831
     51          1           0       10.950197    0.144195   -2.569793
     52          1           0       11.246145   -0.754970   -4.030785
     53          1           0        6.763418   -1.491656   -3.879638
     54          1           0        6.473396   -2.957715   -2.860308
     55          1           0        8.353374   -3.625414   -4.886846
     56          1           0        7.310895   -2.473992   -5.632042
     57          1           0        8.393159    3.697123   -4.487558
     58          1           0        8.636773    5.299305   -3.904738
     59          1           0        6.974957    4.795366   -4.306894
     60          1           0        7.566709    7.037019   -2.981645
     61          1           0        6.263468    7.985032   -2.069882
     62          1           0        5.915763    6.472002   -2.948955
     63          1           0        6.978606    4.653001    3.847915
     64          1           0        8.530570    2.540305    5.260682
     65          1           0        8.832903    5.782187    4.473941
     66          1           0        9.752952    4.801939    3.281733
     67          1           0        9.666689    4.295157    4.888813
     68          1           0        6.467337    3.645886    6.203590
     69          1           0        6.499140    1.891862    6.345844
     70          1           0        4.982798    3.691649    4.611438
     71          1           0        4.368465    2.274848    5.529022
     72          1           0        5.262489    2.086946    3.954182
     73          1           0        7.347210   -3.640802    4.825079
     74          1           0        7.755404   -2.031857    5.520592
     75          1           0        9.067369   -3.022576    4.757187
     76          1           0        9.175605   -4.202382   -0.219339
     77          1           0        7.256424   -7.488454   -2.253540
     78          1           0        6.939720   -6.069130   -3.421849
     79          1           0        5.897086   -6.518569   -2.059260
     80         12           0       -8.254866    0.252095   -0.197799
     81          6           0       -6.183124   -2.675115   -0.062253
     82          6           0       -5.960220    1.594758   -2.334717
     83          6           0       -9.817691    3.005459    0.011924
     84          6           0       -9.743235   -0.833962    2.760397
     85          7           0       -6.358148   -0.536307   -1.018232
     86          6           0       -5.702868   -1.685012   -0.944571
     87          6           0       -4.508487   -1.808395   -1.928334
     88          6           0       -4.209358   -0.244972   -2.140679
     89          6           0       -5.601270    0.312011   -1.849094
     90          6           0       -3.242069    0.327066   -1.117705
     91          6           0       -4.913036   -2.503950   -3.275389
     92          6           0       -3.737334   -2.935306   -4.154831
     93          1           0       -3.863149   -4.166212   -4.930403
     94          7           0       -8.219685    1.842409   -1.384481
     95          6           0       -7.216915    2.225270   -2.202509
     96          6           0       -7.672610    3.468866   -2.842801
     97          6           0       -8.957549    3.877271   -2.212830
     98          6           0       -9.039377    2.914457   -1.132844
     99          6           0       -6.949105    4.103369   -3.994919
    100          6           0       -9.942439    4.963728   -2.522373
    101          8           0      -10.870284    5.286075   -1.698945
    102          6           0       -9.731748    5.701829   -3.776292
    103          7           0       -9.438441    1.091713    1.291011
    104          6           0      -10.042634    2.278683    1.106680
    105          6           0      -11.055872    2.549552    2.193135
    106          6           0      -11.180060    1.183336    3.015085
    107          6           0      -10.104238    0.349918    2.284735
    108          6           0      -10.714772    3.690488    3.151417
    109          6           0      -12.603633    0.581146    3.168376
    110          6           0      -13.114148    0.114584    1.824099
    111          7           0       -8.160596   -1.522970    1.030334
    112          6           0       -8.847289   -1.759818    2.241308
    113          6           0       -8.372936   -3.057520    2.764164
    114          6           0       -7.418779   -3.478082    1.825446
    115          6           0       -7.291761   -2.501263    0.801145
    116          6           0       -8.787236   -3.664886    3.983014
    117          6           0       -6.482439   -4.521270    1.473700
    118          8           0       -6.216017   -5.636245    1.920440
    119          6           0       -5.549130   -3.988751    0.302486
    120          6           0       -5.482216   -5.052948   -0.758421
    121          8           0       -6.497937   -5.366864   -1.403712
    122          8           0       -4.194071   -5.368269   -0.985619
    123          6           0       -4.075463   -6.412123   -2.038299
    124          1           0       -5.195568    2.195353   -2.828152
    125          1           0      -10.459789    3.886935    0.076675
    126          1           0      -10.229563   -1.288144    3.626358
    127          1           0       -3.634185   -2.302356   -1.521680
    128          1           0       -3.921513   -0.033755   -3.167272
    129          1           0       -3.006273   -0.387140   -0.342806
    130          1           0       -3.736916    1.192485   -0.696739
    131          1           0       -2.345634    0.705698   -1.617082
    132          1           0       -5.379209   -1.761500   -3.935837
    133          1           0       -5.554905   -3.343767   -3.092779
    134          1           0       -2.786641   -2.921046   -3.608098
    135          1           0       -3.603581   -2.191934   -4.944468
    136          1           0       -5.950170    3.670607   -4.130049
    137          1           0       -6.758294    5.145755   -3.717654
    138          1           0       -7.530369    4.084271   -4.919276
    139          1           0       -8.745032    6.158683   -3.764993
    140          1           0      -10.586084    6.375602   -3.865862
    141          1           0       -9.738646    4.988183   -4.607714
    142          1           0      -12.022069    2.793422    1.768767
    143          1           0      -10.836145    1.299761    4.053355
    144          1           0      -11.493275    4.475692    3.189849
    145          1           0       -9.763568    4.112299    2.855085
    146          1           0      -10.523236    3.388329    4.179623
    147          1           0      -13.302461    1.345234    3.517609
    148          1           0      -12.650320   -0.243580    3.871675
    149          1           0      -13.510299    1.032022    1.378613
    150          1           0      -13.895215   -0.632613    1.949264
    151          1           0      -12.290538   -0.231379    1.188798
    152          1           0       -8.945547   -4.713752    3.770129
    153          1           0       -9.688521   -3.197322    4.373955
    154          1           0       -7.914423   -3.461054    4.609034
    155          1           0       -4.569694   -3.778639    0.733919
    156          1           0       -3.501948   -7.237959   -1.606138
    157          1           0       -3.639173   -5.901639   -2.917395
    158          1           0       -4.982090   -6.921266   -2.343660
 ---------------------------------------------------------------------

 SCF Done:  E(RCAM-B3LYP) =  -4069.81169344     A.U. after   19 cycles

 Excitation energies and oscillator strengths:

 Excited State   1:      Singlet-A      1.6693 eV  742.73 nm  f=0.0131  <S**2>=0.000
     309 -> 315       -0.10625
     310 -> 316        0.13553
     311 -> 313       -0.42172
     312 -> 314        0.54157
 This state for optimization and/or second-order correction.
 Total Energy, E(TD-HF/TD-DFT) =  -4069.75034788
 Copying the excited state density for this state as the 1-particle RhoCI density.

 Excited State   2:      Singlet-A      1.6855 eV  735.61 nm  f=0.7412  <S**2>=0.000
     309 -> 315        0.13966
     310 -> 316        0.10806
     311 -> 313        0.54069
     312 -> 314        0.42113

 Excited State   3:      Singlet-A      2.1853 eV  567.35 nm  f=0.0800  <S**2>=0.000
     309 -> 313        0.10378
     310 -> 314        0.63427
     312 -> 316       -0.26892

 Excited State   4:      Singlet-A      2.1927 eV  565.44 nm  f=0.1179  <S**2>=0.000
     309 -> 313        0.63232
     310 -> 314       -0.10301
     311 -> 315       -0.27478

 Excited State   5:      Singlet-A      2.7329 eV  453.68 nm  f=0.0000  <S**2>=0.000
     312 -> 313        0.70701

 The electronic state is 1-A.
 Alpha  occ. eigenvalues --  -46.87911 -46.87572 -19.26382 -19.26189 -19.19123
 Alpha  occ. eigenvalues --  -19.19023 -19.18938 -19.18647 -19.18262 -19.17938
 Alpha  occ. eigenvalues --  -14.42564 -14.42405 -14.41559 -14.41273 -14.39519
 Alpha  occ. eigenvalues --  -14.39266 -14.38697 -14.38510 -10.39182 -10.38951
 Alpha  occ. eigenvalues --  -10.35573 -10.35326 -10.34482 -10.34112 -10.31773
 Alpha  occ. eigenvalues --  -10.31587 -10.31513 -10.31209 -10.31027 -10.30927
 Alpha  occ. eigenvalues --  -10.30677 -10.30616 -10.30318 -10.30310 -10.30268
 Alpha  occ. eigenvalues --  -10.30064 -10.30023 -10.29808 -10.29740 -10.29368
 Alpha  occ. eigenvalues --  -10.29356 -10.29316 -10.28870 -10.28679 -10.28597
 Alpha  occ. eigenvalues --  -10.28539 -10.28477 -10.28312 -10.28231 -10.28025
 Alpha  occ. eigenvalues --  -10.27912 -10.27899 -10.27839 -10.27698 -10.27611
 Alpha  occ. eigenvalues --  -10.27596 -10.27580 -10.27544 -10.27514 -10.27449
 Alpha  occ. eigenvalues --  -10.27408 -10.27387 -10.27384 -10.27306 -10.27257
 Alpha  occ. eigenvalues --  -10.26920 -10.26847 -10.26584 -10.26551 -10.26366
 Alpha  occ. eigenvalues --  -10.26335 -10.26273 -10.26125 -10.26077 -10.25916
 Alpha  occ. eigenvalues --  -10.25885 -10.25851 -10.25761 -10.25521 -10.25334
 Alpha  occ. eigenvalues --  -10.24937 -10.24897 -10.24785 -10.24780 -10.24673
 Alpha  occ. eigenvalues --  -10.24604  -3.16655  -3.16322  -1.91537  -1.91205
 Alpha  occ. eigenvalues --   -1.91123  -1.90965  -1.90793  -1.90630  -1.16731
 Alpha  occ. eigenvalues --   -1.16489  -1.08718  -1.08540  -1.07340  -1.06900
 Alpha  occ. eigenvalues --   -1.06805  -1.06744  -1.04694  -1.04401  -1.03871
 Alpha  occ. eigenvalues --   -1.03574  -1.03344  -1.02953  -1.02521  -1.02023
 Alpha  occ. eigenvalues --   -0.92079  -0.91885  -0.89622  -0.89413  -0.89305
 Alpha  occ. eigenvalues --   -0.89039  -0.88388  -0.88144  -0.87967  -0.87786
 Alpha  occ. eigenvalues --   -0.87703  -0.87592  -0.87394  -0.87048  -0.85100
 Alpha  occ. eigenvalues --   -0.84897  -0.84034  -0.83798  -0.83089  -0.82865
 Alpha  occ. eigenvalues --   -0.82763  -0.82554  -0.81689  -0.81478  -0.80706
 Alpha  occ. eigenvalues --   -0.80339  -0.78910  -0.78555  -0.77327  -0.77052
 Alpha  occ. eigenvalues --   -0.77043  -0.76792  -0.76029  -0.75726  -0.74997
 Alpha  occ. eigenvalues --   -0.74718  -0.72879  -0.72610  -0.71777  -0.71484
 Alpha  occ. eigenvalues --   -0.70005  -0.69686  -0.68988  -0.68727  -0.67751
 Alpha  occ. eigenvalues --   -0.67510  -0.67346  -0.67105  -0.65401  -0.65163
 Alpha  occ. eigenvalues --   -0.64960  -0.64729  -0.64675  -0.64548  -0.64372
 Alpha  occ. eigenvalues --   -0.64121  -0.62399  -0.62156  -0.60557  -0.60264
 Alpha  occ. eigenvalues --   -0.59918  -0.59691  -0.59093  -0.58900  -0.58610
 Alpha  occ. eigenvalues --   -0.58329  -0.57685  -0.57435  -0.57414  -0.57149
 Alpha  occ. eigenvalues --   -0.56416  -0.56114  -0.56083  -0.55763  -0.55633
 Alpha  occ. eigenvalues --   -0.55437  -0.55356  -0.55153  -0.54622  -0.54384
 Alpha  occ. eigenvalues --   -0.54013  -0.53803  -0.53410  -0.53337  -0.53141
 Alpha  occ. eigenvalues --   -0.53042  -0.53022  -0.52879  -0.52797  -0.52588
 Alpha  occ. eigenvalues --   -0.52535  -0.52330  -0.52003  -0.51792  -0.51736
 Alpha  occ. eigenvalues --   -0.51559  -0.51298  -0.51101  -0.50701  -0.50410
 Alpha  occ. eigenvalues --   -0.50134  -0.50036  -0.49891  -0.49791  -0.49630
 Alpha  occ. eigenvalues --   -0.49398  -0.49322  -0.49204  -0.49102  -0.48994
 Alpha  occ. eigenvalues --   -0.48695  -0.48572  -0.48549  -0.48450  -0.48295
 Alpha  occ. eigenvalues --   -0.48254  -0.47806  -0.47501  -0.47406  -0.47034
 Alpha  occ. eigenvalues --   -0.46903  -0.46673  -0.46619  -0.46465  -0.46452
 Alpha  occ. eigenvalues --   -0.46262  -0.46184  -0.45991  -0.45917  -0.45711
 Alpha  occ. eigenvalues --   -0.45301  -0.45128  -0.44679  -0.44623  -0.44410
 Alpha  occ. eigenvalues --   -0.44379  -0.44252  -0.44201  -0.44126  -0.44026
 Alpha  occ. eigenvalues --   -0.43995  -0.43846  -0.43595  -0.43497  -0.43437
 Alpha  occ. eigenvalues --   -0.43285  -0.43131  -0.42822  -0.42800  -0.42778
 Alpha  occ. eigenvalues --   -0.42754  -0.42478  -0.42114  -0.41877  -0.41808
 Alpha  occ. eigenvalues --   -0.41650  -0.41568  -0.41361  -0.41248  -0.40984
 Alpha  occ. eigenvalues --   -0.40948  -0.40892  -0.40673  -0.40641  -0.40607
 Alpha  occ. eigenvalues --   -0.40408  -0.40366  -0.40121  -0.39540  -0.39356
 Alpha  occ. eigenvalues --   -0.38573  -0.38270  -0.37873  -0.37552  -0.37425
 Alpha  occ. eigenvalues --   -0.37382  -0.37182  -0.37100  -0.36813  -0.36643
 Alpha  occ. eigenvalues --   -0.36296  -0.36118  -0.34395  -0.34162  -0.33875
 Alpha  occ. eigenvalues --   -0.33734  -0.33295  -0.33085  -0.31467  -0.31205
 Alpha  occ. eigenvalues --   -0.31146  -0.30881  -0.30120  -0.29839  -0.29564
 Alpha  occ. eigenvalues --   -0.29427  -0.29245  -0.29120  -0.24191  -0.23945
 Alpha  occ. eigenvalues --   -0.21237  -0.21029
 Alpha virt. eigenvalues --   -0.08885  -0.08704  -0.01862  -0.01598  -0.00175
 Alpha virt. eigenvalues --    0.00055   0.02100   0.02305   0.02972   0.03305
 Alpha virt. eigenvalues --    0.04602   0.04826   0.04996   0.05301   0.06051

 Mulliken charges:
               1
     1  Mg   0.838042
     2  C   -0.003162
     3  C   -0.094402
     4  C   -0.045916
     5  C   -0.063811
     6  N   -0.256771
     7  C   -0.052522
     8  C   -0.013943
     9  C   -0.086926
    10  C    0.046095
    11  C    0.104772
    12  C    0.053587
    13  C   -0.071705
    14  H    0.035745
    15  N   -0.433131
    16  C    0.168112
    17  C   -0.177420
    18  C   -0.004192
    19  C    0.148519
    20  C    0.110197
    21  C    0.011967
    22  O   -0.249545
    23  C    0.062663
    24  N   -0.341086
    25  C    0.041192
    26  C   -0.028185
    27  C   -0.024015
    28  C    0.074804
    29  C    0.076091
    30  C    0.035067
    31  C   -0.004531
    32  N   -0.310566
    33  C    0.080460
    34  C   -0.169376
    35  C    0.008576
    36  C    0.082970
    37  C    0.127226
    38  C    0.046322
    39  O   -0.187777
    40  C   -0.005399
    41  C    0.213078
    42  O   -0.257390
    43  O   -0.304695
    44  C    0.157593
    45  H   -0.017573
    46  H   -0.016778
    47  H   -0.041098
    48  H    0.001209
    49  H   -0.004240
    50  H    0.025650
    51  H    0.016566
    52  H    0.016768
    53  H    0.010576
    54  H    0.043847
    55  H    0.018317
    56  H    0.017767
    57  H    0.005858
    58  H    0.027010
    59  H    0.038829
    60  H    0.037583
    61  H    0.035604
    62  H    0.030728
    63  H    0.016480
    64  H    0.009740
    65  H    0.023321
    66  H    0.012593
    67  H    0.004979
    68  H    0.006594
    69  H    0.005090
    70  H    0.008606
    71  H    0.018443
    72  H    0.028593
    73  H    0.048097
    74  H    0.009357
    75  H    0.046254
    76  H    0.035386
    77  H    0.043402
    78  H    0.046179
    79  H    0.053646
    80  Mg   0.837698
    81  C   -0.016803
    82  C   -0.087816
    83  C   -0.045623
    84  C   -0.065061
    85  N   -0.254584
    86  C   -0.049664
    87  C   -0.015244
    88  C   -0.090504
    89  C    0.045793
    90  C    0.114423
    91  C    0.062546
    92  C   -0.077860
    93  H    0.034415
    94  N   -0.423447
    95  C    0.162841
    96  C   -0.174753
    97  C   -0.007981
    98  C    0.152067
    99  C    0.099470
   100  C    0.015439
   101  O   -0.253382
   102  C    0.061256
   103  N   -0.350054
   104  C    0.037471
   105  C   -0.019778
   106  C   -0.034803
   107  C    0.089006
   108  C    0.073706
   109  C    0.034763
   110  C   -0.007635
   111  N   -0.324172
   112  C    0.078588
   113  C   -0.163203
   114  C    0.002491
   115  C    0.096101
   116  C    0.131491
   117  C    0.042470
   118  O   -0.187271
   119  C    0.000961
   120  C    0.211196
   121  O   -0.251518
   122  O   -0.304927
   123  C    0.152193
   124  H   -0.019885
   125  H   -0.015795
   126  H   -0.040562
   127  H    0.000692
   128  H   -0.004764
   129  H    0.023499
   130  H    0.014115
   131  H    0.016333
   132  H    0.013448
   133  H    0.037613
   134  H    0.022037
   135  H    0.018897
   136  H    0.008514
   137  H    0.025903
   138  H    0.039421
   139  H    0.038124
   140  H    0.036161
   141  H    0.033741
   142  H    0.014230
   143  H    0.012367
   144  H    0.024935
   145  H    0.011676
   146  H    0.005580
   147  H    0.006101
   148  H    0.003615
   149  H    0.010829
   150  H    0.017807
   151  H    0.030195
   152  H    0.046041
   153  H    0.008310
   154  H    0.047190
   155  H    0.036226
   156  H    0.044674
   157  H    0.049410
   158  H    0.053018
 Sum of Mulliken charges =  -0.00000

 Dipole moment (field-independent basis, Debye):
    X=              4.6822    Y=              5.3105    Z=             -5.1437  Tot=              8.7511
 Quadrupole moment (field-independent basis, Debye-Ang):
   XX=           -507.3898   YY=           -567.3449   ZZ=           -450.5398
   XY=             -0.3630   XZ=            -38.1853   YZ=             11.8173

 Normal termination of Gaussian 16 at Sun Sep 12 04:23:45 2021.
