 Gaussian 16, Revision A.03,
 Gaussian 16:  ES64L-G16RevA.03 25-Dec-2016

 -----------------------------------
 #p cam-b3lyp/Def2SVP td=(nstates=5)
 -----------------------------------

 --------------------------------
 TDDFT excited states in gaussian
 --------------------------------
 Symbolic Z-matrix:
 Charge =  0 Multiplicity = 1

                         Standard orientation:
 ---------------------------------------------------------------------
 Center     Atomic      Atomic             Coordinates (Angstroms)
 Number     Number       Type             X           Y           Z
 ---------------------------------------------------------------------
      1         12           0        6.700955   -0.394548   -0.213744
      2          6           0        6.674475    3.080851   -1.069965
      3          6           0        7.647683    0.539561    2.928582
      4          6           0        7.171452   -3.462034    0.438780
      5          6           0        6.868869   -1.082519   -3.626098
      6          7           0        7.078472    1.589416    0.692906
      7          6           0        6.974848    2.846694    0.273758
      8          6           0        7.141237    3.894126    1.415062
      9          6           0        7.985492    3.014758    2.442653
     10          6           0        7.517385    1.632910    2.021587
     11          6           0        9.492939    3.108705    2.229861
     12          6           0        5.767470    4.329473    2.027407
     13          6           0        5.813203    5.577937    2.913184
     14          1           0        4.682508    6.493588    2.891744
     15          7           0        6.841060   -1.328439    1.521499
     16          6           0        7.226751   -0.788856    2.702761
     17          6           0        7.167192   -1.887032    3.691266
     18          6           0        6.898601   -3.151282    2.951248
     19          6           0        6.986794   -2.695969    1.587324
     20          6           0        7.307272   -1.673947    5.167315
     21          6           0        6.618860   -4.550195    3.401711
     22          8           0        6.644091   -5.542210    2.595582
     23          6           0        6.398710   -4.743498    4.846429
     24          7           0        7.201850   -2.037993   -1.399420
     25          6           0        7.286103   -3.266141   -0.876411
     26          6           0        7.375105   -4.311290   -1.948643
     27          6           0        7.088430   -3.556701   -3.326383
     28          6           0        6.957973   -2.112811   -2.781926
     29          6           0        8.712068   -5.059131   -2.044953
     30          6           0        5.946657   -4.117411   -4.210904
     31          6           0        4.615688   -3.909353   -3.523641
     32          7           0        6.584527    0.755036   -2.051119
     33          6           0        6.702142    0.266348   -3.360327
     34          6           0        6.665615    1.432659   -4.261688
     35          6           0        6.545170    2.527201   -3.407689
     36          6           0        6.535179    2.075346   -2.057126
     37          6           0        6.798364    1.395929   -5.677832
     38          6           0        6.447378    3.975220   -3.320886
     39          8           0        6.314645    4.886022   -4.139614
     40          6           0        6.649800    4.400808   -1.799792
     41          6           0        5.558779    5.376438   -1.451754
     42          8           0        4.365679    5.013151   -1.408155
     43          8           0        6.107524    6.513235   -0.996657
     44          6           0        5.078568    7.513481   -0.605617
     45          1           0        8.171454    0.697131    3.873451
     46          1           0        7.226895   -4.538574    0.613205
     47          1           0        6.831177   -1.226065   -4.707499
     48          1           0        7.705048    4.784495    1.136164
     49          1           0        7.701819    3.212336    3.476198
     50          1           0        9.733494    3.664248    1.323535
     51          1           0        9.840140    2.078510    2.148356
     52          1           0        9.983641    3.521396    3.111720
     53          1           0        5.452106    3.590709    2.764181
     54          1           0        5.022990    4.470927    1.243145
     55          1           0        6.748756    6.123217    2.785438
     56          1           0        5.826610    5.257300    3.954919
     57          1           0        7.661169   -0.669253    5.395115
     58          1           0        8.109089   -2.328307    5.508802
     59          1           0        6.388069   -1.907570    5.704733
     60          1           0        7.279363   -4.405550    5.393046
     61          1           0        6.125015   -5.790546    4.971450
     62          1           0        5.575218   -4.104567    5.166705
     63          1           0        6.623690   -5.086214   -1.802722
     64          1           0        7.958917   -3.559030   -3.982829
     65          1           0        8.616090   -6.141274   -1.952976
     66          1           0        9.377740   -4.659201   -1.280605
     67          1           0        9.281563   -4.862244   -2.952878
     68          1           0        6.069672   -5.190465   -4.353620
     69          1           0        5.899398   -3.654968   -5.196888
     70          1           0        4.552937   -4.763870   -2.850813
     71          1           0        3.804598   -3.925855   -4.252387
     72          1           0        4.621883   -3.009657   -2.908015
     73          1           0        6.044457    2.076904   -6.072632
     74          1           0        6.659971    0.385719   -6.062443
     75          1           0        7.822485    1.750274   -5.793901
     76          1           0        7.639446    4.851091   -1.729310
     77          1           0        5.286155    8.424066   -1.167735
     78          1           0        5.102997    7.573960    0.482570
     79          1           0        4.056811    7.303587   -0.923887
     80         12           0       -6.500907   -1.137411    0.309323
     81          6           0       -8.006478    2.083627   -0.177742
     82          6           0       -4.413907    0.344782    2.563687
     83          6           0       -4.863445   -3.852523    0.428870
     84          6           0       -7.892212   -2.094560   -2.739254
     85          7           0       -6.330398    0.951224    1.017007
     86          6           0       -6.996698    2.076514    0.806993
     87          6           0       -6.610392    3.240002    1.759163
     88          6           0       -5.129571    2.753201    2.145251
     89          6           0       -5.302775    1.250816    1.931921
     90          6           0       -4.062579    3.252084    1.185052
     91          6           0       -7.538832    3.312227    3.022021
     92          6           0       -7.418558    4.602680    3.835665
     93          1           0       -8.619774    5.141777    4.467274
     94          7           0       -5.218535   -1.804961    1.668912
     95          6           0       -4.472133   -1.065415    2.515810
     96          6           0       -3.679302   -2.026789    3.297682
     97          6           0       -3.896661   -3.385290    2.730278
     98          6           0       -4.668559   -3.056980    1.548550
     99          6           0       -2.883643   -1.631652    4.507727
    100          6           0       -3.468390   -4.752361    3.170608
    101          8           0       -3.566707   -5.770237    2.397891
    102          6           0       -2.844334   -4.847915    4.498354
    103          7           0       -6.213788   -2.672387   -1.063165
    104          6           0       -5.499755   -3.764729   -0.739338
    105          6           0       -5.659685   -4.848763   -1.778428
    106          6           0       -6.826161   -4.344506   -2.749321
    107          6           0       -7.089034   -2.954895   -2.128606
    108          6           0       -4.413432   -5.168190   -2.603774
    109          6           0       -8.031946   -5.301420   -2.956872
    110          6           0       -8.813795   -5.433163   -1.669725
    111          7           0       -7.875838   -0.269792   -1.113656
    112          6           0       -8.303445   -0.830166   -2.337263
    113          6           0       -9.145102    0.181301   -3.008803
    114          6           0       -9.129835    1.277283   -2.132964
    115          6           0       -8.318371    0.977969   -1.005387
    116          6           0       -9.759183    0.038072   -4.284933
    117          6           0       -9.607036    2.623266   -1.910955
    118          8           0      -10.399689    3.369522   -2.484149
    119          6           0       -8.798521    3.252045   -0.695497
    120          6           0       -9.787763    3.896141    0.236736
    121          8           0      -10.619240    3.205298    0.851543
    122          8           0       -9.450101    5.186395    0.414567
    123          6           0      -10.395557    5.865101    1.340470
    124          1           0       -3.565099    0.750157    3.115125
    125          1           0       -4.409031   -4.845116    0.470835
    126          1           0       -8.442356   -2.352541   -3.646697
    127          1           0       -6.570609    4.216131    1.290810
    128          1           0       -4.902483    2.966798    3.186490
    129          1           0       -4.492093    3.755605    0.331747
    130          1           0       -3.516089    2.372828    0.869938
    131          1           0       -3.341891    3.880687    1.715897
    132          1           0       -7.187077    2.586932    3.766983
    133          1           0       -8.563969    3.150125    2.751011
    134          1           0       -6.887853    5.389039    3.285277
    135          1           0       -6.783773    4.407853    4.703492
    136          1           0       -2.780932   -0.542101    4.583425
    137          1           0       -1.860937   -1.990509    4.349120
    138          1           0       -3.272937   -2.069669    5.429275
    139          1           0       -1.963274   -4.211374    4.529933
    140          1           0       -2.688580   -5.914438    4.671983
    141          1           0       -3.544463   -4.453418    5.243200
    142          1           0       -5.962854   -5.782090   -1.320073
    143          1           0       -6.458287   -4.167931   -3.770755
    144          1           0       -4.111839   -6.231071   -2.545350
    145          1           0       -3.609264   -4.525857   -2.270240
    146          1           0       -4.483843   -4.919975   -3.661424
    147          1           0       -7.680142   -6.304481   -3.210360
    148          1           0       -8.702623   -4.985626   -3.748991
    149          1           0       -8.255792   -6.196363   -1.119060
    150          1           0       -9.832481   -5.757944   -1.871821
    151          1           0       -8.769285   -4.506613   -1.085621
    152          1           0      -10.765449    0.424285   -4.191330
    153          1           0       -9.759610   -0.999707   -4.611711
    154          1           0       -9.095008    0.659244   -4.891802
    155          1           0       -8.094999    3.975491   -1.109324
    156          1           0      -10.788432    6.739089    0.811814
    157          1           0       -9.822455    6.052922    2.267843
    158          1           0      -11.310420    5.342590    1.594341
 ---------------------------------------------------------------------

 SCF Done:  E(RCAM-B3LYP) =  -4069.81168008     A.U. after   19 cycles

 Excitation energies and oscillator strengths:

 Excited State   1:      Singlet-A      1.6657 eV  744.33 nm  f=0.0874  <S**2>=0.000
     309 -> 315       -0.10921
     310 -> 316        0.13216
     311 -> 313       -0.43579
     312 -> 314        0.53060
 This state for optimization and/or second-order correction.
 Total Energy, E(TD-HF/TD-DFT) =  -4069.75046590
 Copying the excited state density for this state as the 1-particle RhoCI density.

 Excited State   2:      Singlet-A      1.6882 eV  734.44 nm  f=0.6678  <S**2>=0.000
     309 -> 315        0.13761
     310 -> 316        0.11207
     311 -> 313        0.52943
     312 -> 314        0.43491

 Excited State   3:      Singlet-A      2.1844 eV  567.60 nm  f=0.0407  <S**2>=0.000
     309 -> 313       -0.19883
     310 -> 314        0.61176
     312 -> 316       -0.25838

 Excited State   4:      Singlet-A      2.1935 eV  565.24 nm  f=0.1480  <S**2>=0.000
     309 -> 313        0.60920
     310 -> 314        0.19705
     311 -> 315       -0.26557

 Excited State   5:      Singlet-A      2.6260 eV  472.15 nm  f=0.0000  <S**2>=0.000
     312 -> 313        0.70702

 The electronic state is 1-A.
 Alpha  occ. eigenvalues --  -46.87918 -46.87557 -19.26437 -19.26264 -19.19175
 Alpha  occ. eigenvalues --  -19.19075 -19.18922 -19.18632 -19.18288 -19.17952
 Alpha  occ. eigenvalues --  -14.42576 -14.42390 -14.41563 -14.41257 -14.39525
 Alpha  occ. eigenvalues --  -14.39251 -14.38707 -14.38497 -10.39231 -10.39002
 Alpha  occ. eigenvalues --  -10.35556 -10.35311 -10.34510 -10.34129 -10.31839
 Alpha  occ. eigenvalues --  -10.31682 -10.31532 -10.31198 -10.31042 -10.30919
 Alpha  occ. eigenvalues --  -10.30692 -10.30621 -10.30315 -10.30298 -10.30260
 Alpha  occ. eigenvalues --  -10.30043 -10.30024 -10.29793 -10.29748 -10.29373
 Alpha  occ. eigenvalues --  -10.29338 -10.29309 -10.28904 -10.28744 -10.28607
 Alpha  occ. eigenvalues --  -10.28585 -10.28489 -10.28303 -10.28260 -10.28009
 Alpha  occ. eigenvalues --  -10.27912 -10.27902 -10.27852 -10.27705 -10.27625
 Alpha  occ. eigenvalues --  -10.27580 -10.27562 -10.27528 -10.27525 -10.27428
 Alpha  occ. eigenvalues --  -10.27413 -10.27380 -10.27375 -10.27288 -10.27283
 Alpha  occ. eigenvalues --  -10.26947 -10.26900 -10.26607 -10.26532 -10.26361
 Alpha  occ. eigenvalues --  -10.26360 -10.26243 -10.26130 -10.26061 -10.25940
 Alpha  occ. eigenvalues --  -10.25836 -10.25830 -10.25754 -10.25502 -10.25300
 Alpha  occ. eigenvalues --  -10.24952 -10.24898 -10.24772 -10.24735 -10.24659
 Alpha  occ. eigenvalues --  -10.24589  -3.16661  -3.16306  -1.91543  -1.91189
 Alpha  occ. eigenvalues --   -1.91129  -1.90971  -1.90777  -1.90614  -1.16785
 Alpha  occ. eigenvalues --   -1.16557  -1.08748  -1.08560  -1.07321  -1.06884
 Alpha  occ. eigenvalues --   -1.06859  -1.06796  -1.04708  -1.04388  -1.03876
 Alpha  occ. eigenvalues --   -1.03561  -1.03352  -1.02938  -1.02528  -1.02010
 Alpha  occ. eigenvalues --   -0.92096  -0.91884  -0.89616  -0.89400  -0.89335
 Alpha  occ. eigenvalues --   -0.89032  -0.88379  -0.88127  -0.87984  -0.87801
 Alpha  occ. eigenvalues --   -0.87695  -0.87582  -0.87398  -0.87041  -0.85125
 Alpha  occ. eigenvalues --   -0.84894  -0.84024  -0.83786  -0.83080  -0.82857
 Alpha  occ. eigenvalues --   -0.82782  -0.82553  -0.81719  -0.81504  -0.80724
 Alpha  occ. eigenvalues --   -0.80349  -0.78919  -0.78548  -0.77339  -0.77065
 Alpha  occ. eigenvalues --   -0.77046  -0.76799  -0.76055  -0.75729  -0.74995
 Alpha  occ. eigenvalues --   -0.74707  -0.72889  -0.72599  -0.71789  -0.71472
 Alpha  occ. eigenvalues --   -0.69986  -0.69670  -0.69009  -0.68726  -0.67762
 Alpha  occ. eigenvalues --   -0.67507  -0.67372  -0.67113  -0.65427  -0.65168
 Alpha  occ. eigenvalues --   -0.64976  -0.64744  -0.64671  -0.64556  -0.64368
 Alpha  occ. eigenvalues --   -0.64110  -0.62429  -0.62187  -0.60557  -0.60254
 Alpha  occ. eigenvalues --   -0.59941  -0.59685  -0.59104  -0.58893  -0.58622
 Alpha  occ. eigenvalues --   -0.58329  -0.57715  -0.57457  -0.57419  -0.57145
 Alpha  occ. eigenvalues --   -0.56431  -0.56122  -0.56111  -0.55797  -0.55642
 Alpha  occ. eigenvalues --   -0.55443  -0.55364  -0.55155  -0.54636  -0.54398
 Alpha  occ. eigenvalues --   -0.54043  -0.53799  -0.53416  -0.53357  -0.53136
 Alpha  occ. eigenvalues --   -0.53047  -0.53044  -0.52889  -0.52808  -0.52584
 Alpha  occ. eigenvalues --   -0.52515  -0.52319  -0.52023  -0.51787  -0.51762
 Alpha  occ. eigenvalues --   -0.51564  -0.51313  -0.51105  -0.50699  -0.50405
 Alpha  occ. eigenvalues --   -0.50129  -0.50038  -0.49879  -0.49776  -0.49646
 Alpha  occ. eigenvalues --   -0.49392  -0.49340  -0.49229  -0.49103  -0.48991
 Alpha  occ. eigenvalues --   -0.48720  -0.48566  -0.48557  -0.48456  -0.48283
 Alpha  occ. eigenvalues --   -0.48253  -0.47818  -0.47501  -0.47415  -0.47030
 Alpha  occ. eigenvalues --   -0.46912  -0.46700  -0.46612  -0.46474  -0.46449
 Alpha  occ. eigenvalues --   -0.46274  -0.46178  -0.45991  -0.45945  -0.45725
 Alpha  occ. eigenvalues --   -0.45295  -0.45113  -0.44701  -0.44630  -0.44418
 Alpha  occ. eigenvalues --   -0.44374  -0.44255  -0.44219  -0.44143  -0.44018
 Alpha  occ. eigenvalues --   -0.43992  -0.43852  -0.43622  -0.43509  -0.43462
 Alpha  occ. eigenvalues --   -0.43284  -0.43144  -0.42841  -0.42834  -0.42803
 Alpha  occ. eigenvalues --   -0.42749  -0.42464  -0.42117  -0.41873  -0.41823
 Alpha  occ. eigenvalues --   -0.41673  -0.41568  -0.41361  -0.41261  -0.40999
 Alpha  occ. eigenvalues --   -0.40946  -0.40877  -0.40668  -0.40636  -0.40601
 Alpha  occ. eigenvalues --   -0.40403  -0.40396  -0.40137  -0.39516  -0.39340
 Alpha  occ. eigenvalues --   -0.38570  -0.38255  -0.37909  -0.37562  -0.37424
 Alpha  occ. eigenvalues --   -0.37407  -0.37169  -0.37097  -0.36847  -0.36684
 Alpha  occ. eigenvalues --   -0.36314  -0.36121  -0.34406  -0.34152  -0.33919
 Alpha  occ. eigenvalues --   -0.33773  -0.33307  -0.33074  -0.31451  -0.31189
 Alpha  occ. eigenvalues --   -0.31154  -0.30870  -0.30149  -0.29857  -0.29570
 Alpha  occ. eigenvalues --   -0.29440  -0.29233  -0.29112  -0.24201  -0.23932
 Alpha  occ. eigenvalues --   -0.21246  -0.21015
 Alpha virt. eigenvalues --   -0.08894  -0.08693  -0.01866  -0.01583  -0.00179
 Alpha virt. eigenvalues --    0.00065   0.02085   0.02306   0.02979   0.03314
 Alpha virt. eigenvalues --    0.04581   0.04837   0.04950   0.05255   0.06007

 Mulliken charges:
               1
     1  Mg   0.838272
     2  C   -0.003314
     3  C   -0.094715
     4  C   -0.045535
     5  C   -0.063679
     6  N   -0.256762
     7  C   -0.052648
     8  C   -0.013913
     9  C   -0.086909
    10  C    0.046069
    11  C    0.104774
    12  C    0.053681
    13  C   -0.071515
    14  H    0.035120
    15  N   -0.433132
    16  C    0.168167
    17  C   -0.177605
    18  C   -0.004043
    19  C    0.148644
    20  C    0.110262
    21  C    0.012289
    22  O   -0.248850
    23  C    0.062652
    24  N   -0.341132
    25  C    0.041245
    26  C   -0.028306
    27  C   -0.024056
    28  C    0.074935
    29  C    0.076059
    30  C    0.035010
    31  C   -0.004541
    32  N   -0.310494
    33  C    0.080442
    34  C   -0.169507
    35  C    0.008434
    36  C    0.082943
    37  C    0.127287
    38  C    0.046151
    39  O   -0.188189
    40  C   -0.005344
    41  C    0.213002
    42  O   -0.257678
    43  O   -0.304605
    44  C    0.157712
    45  H   -0.017638
    46  H   -0.016359
    47  H   -0.041137
    48  H    0.001147
    49  H   -0.004430
    50  H    0.025645
    51  H    0.016697
    52  H    0.016731
    53  H    0.010334
    54  H    0.043641
    55  H    0.018486
    56  H    0.017669
    57  H    0.005699
    58  H    0.027177
    59  H    0.038562
    60  H    0.037438
    61  H    0.036225
    62  H    0.030347
    63  H    0.017096
    64  H    0.009629
    65  H    0.023608
    66  H    0.012481
    67  H    0.004902
    68  H    0.006756
    69  H    0.004736
    70  H    0.009471
    71  H    0.018357
    72  H    0.028576
    73  H    0.047723
    74  H    0.009362
    75  H    0.046224
    76  H    0.035353
    77  H    0.043380
    78  H    0.046124
    79  H    0.053310
    80  Mg   0.838157
    81  C   -0.016839
    82  C   -0.087596
    83  C   -0.045417
    84  C   -0.064761
    85  N   -0.254611
    86  C   -0.049441
    87  C   -0.015153
    88  C   -0.090613
    89  C    0.045902
    90  C    0.114311
    91  C    0.062588
    92  C   -0.077628
    93  H    0.034367
    94  N   -0.423544
    95  C    0.162981
    96  C   -0.174496
    97  C   -0.007854
    98  C    0.152222
    99  C    0.099472
   100  C    0.015680
   101  O   -0.253007
   102  C    0.061290
   103  N   -0.349975
   104  C    0.037630
   105  C   -0.019875
   106  C   -0.034837
   107  C    0.088990
   108  C    0.073612
   109  C    0.034785
   110  C   -0.007633
   111  N   -0.324130
   112  C    0.078544
   113  C   -0.163092
   114  C    0.002363
   115  C    0.096224
   116  C    0.131460
   117  C    0.042432
   118  O   -0.187966
   119  C    0.000885
   120  C    0.211176
   121  O   -0.251244
   122  O   -0.305467
   123  C    0.152143
   124  H   -0.019526
   125  H   -0.015571
   126  H   -0.040577
   127  H   -0.000407
   128  H   -0.004990
   129  H    0.023067
   130  H    0.015665
   131  H    0.016702
   132  H    0.013621
   133  H    0.037514
   134  H    0.020974
   135  H    0.019209
   136  H    0.008476
   137  H    0.025732
   138  H    0.039107
   139  H    0.037857
   140  H    0.036344
   141  H    0.033473
   142  H    0.014202
   143  H    0.012493
   144  H    0.024898
   145  H    0.012149
   146  H    0.005592
   147  H    0.006081
   148  H    0.003559
   149  H    0.010839
   150  H    0.017716
   151  H    0.030157
   152  H    0.045801
   153  H    0.008340
   154  H    0.047304
   155  H    0.035572
   156  H    0.043846
   157  H    0.049369
   158  H    0.053373
 Sum of Mulliken charges =  -0.00000

 Dipole moment (field-independent basis, Debye):
    X=              6.1116    Y=              0.2126    Z=              6.0460  Tot=              8.5995
 Quadrupole moment (field-independent basis, Debye-Ang):
   XX=           -547.6084   YY=           -521.8043   ZZ=           -471.2267
   XY=             15.6207   XZ=             15.3941   YZ=             58.2957

 Normal termination of Gaussian 16 at Sat Sep 11 15:27:20 2021.
