 Gaussian 16, Revision A.03,
 Gaussian 16:  ES64L-G16RevA.03 25-Dec-2016

 -----------------------------------
 #p cam-b3lyp/Def2SVP td=(nstates=5)
 -----------------------------------

 --------------------------------
 TDDFT excited states in gaussian
 --------------------------------
 Symbolic Z-matrix:
 Charge =  0 Multiplicity = 1

                         Standard orientation:
 ---------------------------------------------------------------------
 Center     Atomic      Atomic             Coordinates (Angstroms)
 Number     Number       Type             X           Y           Z
 ---------------------------------------------------------------------
      1         12           0       -4.430471   -0.636950   -0.178952
      2          6           0       -4.618613    2.734683    1.008024
      3          6           0       -5.095753    0.580798   -3.296252
      4          6           0       -4.719243   -3.635418   -1.170122
      5          6           0       -4.909492   -1.667431    3.115636
      6          7           0       -4.790195    1.416736   -0.923008
      7          6           0       -4.775568    2.628097   -0.375685
      8          6           0       -4.867164    3.779580   -1.421185
      9          6           0       -5.572155    2.984732   -2.609967
     10          6           0       -5.096766    1.581005   -2.279090
     11          6           0       -7.095712    3.015607   -2.544219
     12          6           0       -3.456749    4.311483   -1.844906
     13          6           0       -3.461162    5.640633   -2.605626
     14          1           0       -2.373112    6.580142   -2.380195
     15          7           0       -4.363188   -1.395906   -2.001672
     16          6           0       -4.649945   -0.751531   -3.158321
     17          6           0       -4.451892   -1.743181   -4.237250
     18          6           0       -4.210858   -3.067338   -3.599595
     19          6           0       -4.450543   -2.753449   -2.214170
     20          6           0       -4.453052   -1.387305   -5.692276
     21          6           0       -3.835883   -4.405941   -4.152468
     22          8           0       -3.903728   -5.473996   -3.453017
     23          6           0       -3.466765   -4.447534   -5.579024
     24          7           0       -4.984559   -2.403934    0.784577
     25          6           0       -4.970731   -3.575393    0.139227
     26          6           0       -5.126342   -4.724681    1.090470
     27          6           0       -5.005801   -4.104254    2.556858
     28          6           0       -4.876087   -2.610083    2.170987
     29          6           0       -6.437420   -5.514720    0.976792
     30          6           0       -3.937047   -4.719239    3.494929
     31          6           0       -2.553290   -4.407069    2.970652
     32          7           0       -4.539458    0.325662    1.763352
     33          6           0       -4.767747   -0.294678    3.000177
     34          6           0       -4.864171    0.776093    4.009246
     35          6           0       -4.700737    1.953520    3.282059
     36          6           0       -4.540266    1.639591    1.902208
     37          6           0       -5.134964    0.594150    5.394165
     38          6           0       -4.648954    3.405085    3.346347
     39          8           0       -4.631995    4.232633    4.258690
     40          6           0       -4.715580    3.975120    1.860935
     41          6           0       -3.632653    5.010187    1.722323
     42          8           0       -2.428370    4.685884    1.765881
     43          8           0       -4.175711    6.171388    1.325784
     44          6           0       -3.151162    7.233544    1.140641
     45          1           0       -5.528951    0.817778   -4.269967
     46          1           0       -4.716926   -4.690200   -1.452732
     47          1           0       -4.973682   -1.917436    4.176216
     48          1           0       -5.488652    4.621786   -1.116444
     49          1           0       -5.195156    3.292482   -3.585099
     50          1           0       -7.445356    3.470827   -1.617697
     51          1           0       -7.410577    1.973312   -2.598770
     52          1           0       -7.511786    3.500925   -3.427466
     53          1           0       -3.042658    3.659104   -2.613665
     54          1           0       -2.799347    4.394034   -0.978687
     55          1           0       -4.424464    6.144572   -2.521934
     56          1           0       -3.359421    5.425656   -3.669408
     57          1           0       -4.819921   -0.374917   -5.856667
     58          1           0       -5.192147   -2.025889   -6.175659
     59          1           0       -3.477096   -1.540702   -6.153047
     60          1           0       -4.300993   -4.080792   -6.177450
     61          1           0       -3.143148   -5.468920   -5.776237
     62          1           0       -2.640045   -3.757449   -5.750093
     63          1           0       -4.335773   -5.460243    0.947731
     64          1           0       -5.936287   -4.196118    3.117599
     65          1           0       -6.292484   -6.579183    0.790737
     66          1           0       -7.038637   -5.058647    0.190772
     67          1           0       -7.100929   -5.425382    1.836554
     68          1           0       -4.033441   -5.804153    3.519734
     69          1           0       -4.004900   -4.356713    4.520708
     70          1           0       -2.392403   -5.187892    2.228181
     71          1           0       -1.818261   -4.474239    3.773416
     72          1           0       -2.532105   -3.450768    2.447656
     73          1           0       -4.449780    1.252556    5.928014
     74          1           0       -4.997704   -0.445322    5.691253
     75          1           0       -6.178054    0.906929    5.438756
     76          1           0       -5.709507    4.402939    1.733645
     77          1           0       -3.447209    8.077252    1.764136
     78          1           0       -3.070012    7.401973    0.066652
     79          1           0       -2.158803    7.020887    1.539813
     80         12           0        4.555268   -0.859696    0.336190
     81          6           0        4.483476    2.632477   -0.487613
     82          6           0        3.851283   -1.494200   -2.940459
     83          6           0        4.166491   -3.911230    1.113626
     84          6           0        4.116391    0.059698    3.669028
     85          7           0        4.232527    0.479739   -1.394129
     86          6           0        4.290907    1.786865   -1.599943
     87          6           0        4.214293    2.207046   -3.092307
     88          6           0        3.454352    0.914493   -3.667339
     89          6           0        3.896972   -0.112277   -2.626907
     90          6           0        1.940303    1.031130   -3.609278
     91          6           0        5.633728    2.374230   -3.739823
     92          6           0        5.641959    3.078888   -5.098177
     93          1           0        6.766290    3.952584   -5.422250
     94          7           0        4.564834   -2.486020   -0.801159
     95          6           0        4.276056   -2.560224   -2.117359
     96          6           0        4.406704   -3.980329   -2.478464
     97          6           0        4.635223   -4.761970   -1.232855
     98          6           0        4.439365   -3.730043   -0.234435
     99          6           0        4.391479   -4.463253   -3.899728
    100          6           0        4.961756   -6.202908   -0.981323
    101          8           0        4.881721   -6.716902    0.190104
    102          6           0        5.287534   -7.016969   -2.161433
    103          7           0        3.983090   -1.804063    2.097766
    104          6           0        3.945082   -3.145456    2.182211
    105          6           0        3.776074   -3.597364    3.613159
    106          6           0        3.951824   -2.280365    4.503225
    107          6           0        4.110315   -1.233988    3.378324
    108          6           0        2.441190   -4.262774    3.947380
    109          6           0        5.024659   -2.327385    5.625483
    110          6           0        6.405871   -2.406713    5.016106
    111          7           0        4.521220    0.993136    1.447010
    112          6           0        4.296667    1.153376    2.831921
    113          6           0        4.252803    2.605354    3.100732
    114          6           0        4.433343    3.193784    1.839923
    115          6           0        4.559223    2.180110    0.851930
    116          6           0        4.018618    3.210080    4.367849
    117          6           0        4.535421    4.441983    1.118628
    118          8           0        4.588330    5.628668    1.439121
    119          6           0        4.445917    4.134732   -0.438287
    120          6           0        5.553618    4.886188   -1.124460
    121          8           0        6.743315    4.597893   -0.905134
    122          8           0        5.026788    5.668720   -2.083863
    123          6           0        6.087492    6.426021   -2.800256
    124          1           0        3.409535   -1.796340   -3.890433
    125          1           0        4.132960   -4.949254    1.452535
    126          1           0        4.081334    0.427224    4.696828
    127          1           0        3.628911    3.098360   -3.283791
    128          1           0        3.825643    0.643660   -4.652306
    129          1           0        1.624531    1.918047   -3.080300
    130          1           0        1.596223    0.142308   -3.096775
    131          1           0        1.519316    0.979692   -4.617476
    132          1           0        6.009797    1.387095   -4.037956
    133          1           0        6.302181    2.876699   -3.068023
    134          1           0        4.690679    3.583444   -5.306568
    135          1           0        5.720762    2.321281   -5.881652
    136          1           0        4.041930   -3.682264   -4.586212
    137          1           0        3.625801   -5.243942   -3.963980
    138          1           0        5.350326   -4.882054   -4.212575
    139          1           0        4.451900   -6.995343   -2.856932
    140          1           0        5.579010   -7.993969   -1.771080
    141          1           0        6.138759   -6.559469   -2.677884
    142          1           0        4.543426   -4.311202    3.886469
    143          1           0        3.026858   -2.025733    5.041210
    144          1           0        2.553747   -5.279618    4.368605
    145          1           0        1.837990   -4.287714    3.049573
    146          1           0        1.807536   -3.706523    4.636056
    147          1           0        4.900264   -3.228654    6.230797
    148          1           0        4.982145   -1.478354    6.299517
    149          1           0        6.523122   -3.474557    4.808657
    150          1           0        7.156620   -2.056978    5.721880
    151          1           0        6.443541   -1.878387    4.056359
    152          1           0        4.726064    4.023410    4.460185
    153          1           0        4.129366    2.491952    5.177663
    154          1           0        2.980875    3.530370    4.242302
    155          1           0        3.460938    4.455680   -0.779442
    156          1           0        5.825467    7.486299   -2.730673
    157          1           0        6.137021    5.984840   -3.813491
    158          1           0        7.081862    6.425187   -2.369330
 ---------------------------------------------------------------------

 SCF Done:  E(RCAM-B3LYP) =  -4069.81149764     A.U. after   19 cycles

 Excitation energies and oscillator strengths:

 Excited State   1:      Singlet-A      1.6508 eV  751.04 nm  f=0.0570  <S**2>=0.000
     309 -> 315       -0.11552
     310 -> 316        0.12126
     311 -> 313       -0.47265
     312 -> 314        0.49904
 This state for optimization and/or second-order correction.
 Total Energy, E(TD-HF/TD-DFT) =  -4069.75083084
 Copying the excited state density for this state as the 1-particle RhoCI density.

 Excited State   2:      Singlet-A      1.6996 eV  729.50 nm  f=0.6275  <S**2>=0.000
     309 -> 315        0.13092
     310 -> 316        0.12391
     311 -> 313        0.49679
     312 -> 314        0.47070

 Excited State   3:      Singlet-A      2.1827 eV  568.04 nm  f=0.0248  <S**2>=0.000
     309 -> 313       -0.35845
     310 -> 314        0.53521
     311 -> 315        0.14953
     312 -> 316       -0.22492

 Excited State   4:      Singlet-A      2.1937 eV  565.18 nm  f=0.1571  <S**2>=0.000
     309 -> 313        0.53157
     310 -> 314        0.35471
     311 -> 315       -0.23297
     312 -> 316       -0.15668

 Excited State   5:      Singlet-A      2.3489 eV  527.83 nm  f=0.0000  <S**2>=0.000
     312 -> 313        0.70708

 The electronic state is 1-A.
 Alpha  occ. eigenvalues --  -46.87891 -46.87444 -19.26234 -19.26228 -19.19013
 Alpha  occ. eigenvalues --  -19.18991 -19.18955 -19.18509 -19.18233 -19.17801
 Alpha  occ. eigenvalues --  -14.42545 -14.42296 -14.41539 -14.41147 -14.39505
 Alpha  occ. eigenvalues --  -14.39136 -14.38678 -14.38364 -10.39059 -10.38935
 Alpha  occ. eigenvalues --  -10.35594 -10.35189 -10.34449 -10.33979 -10.31679
 Alpha  occ. eigenvalues --  -10.31566 -10.31492 -10.31102 -10.31005 -10.30844
 Alpha  occ. eigenvalues --  -10.30664 -10.30601 -10.30309 -10.30159 -10.30123
 Alpha  occ. eigenvalues --  -10.30000 -10.29941 -10.29735 -10.29666 -10.29364
 Alpha  occ. eigenvalues --  -10.29218 -10.29161 -10.28830 -10.28614 -10.28597
 Alpha  occ. eigenvalues --  -10.28595 -10.28461 -10.28204 -10.28185 -10.28024
 Alpha  occ. eigenvalues --  -10.27894 -10.27828 -10.27759 -10.27699 -10.27655
 Alpha  occ. eigenvalues --  -10.27578 -10.27515 -10.27488 -10.27475 -10.27334
 Alpha  occ. eigenvalues --  -10.27295 -10.27271 -10.27236 -10.27204 -10.27199
 Alpha  occ. eigenvalues --  -10.26824 -10.26792 -10.26621 -10.26601 -10.26311
 Alpha  occ. eigenvalues --  -10.26254 -10.26236 -10.26116 -10.25972 -10.25946
 Alpha  occ. eigenvalues --  -10.25939 -10.25709 -10.25494 -10.25460 -10.25264
 Alpha  occ. eigenvalues --  -10.24927 -10.24876 -10.24753 -10.24616 -10.24574
 Alpha  occ. eigenvalues --  -10.24475  -3.16634  -3.16194  -1.91515  -1.91102
 Alpha  occ. eigenvalues --   -1.91076  -1.90944  -1.90666  -1.90502  -1.16589
 Alpha  occ. eigenvalues --   -1.16515  -1.08682  -1.08408  -1.07357  -1.06796
 Alpha  occ. eigenvalues --   -1.06763  -1.06614  -1.04675  -1.04294  -1.03853
 Alpha  occ. eigenvalues --   -1.03450  -1.03330  -1.02817  -1.02505  -1.01888
 Alpha  occ. eigenvalues --   -0.92049  -0.91766  -0.89601  -0.89293  -0.89272
 Alpha  occ. eigenvalues --   -0.89020  -0.88365  -0.88034  -0.87967  -0.87768
 Alpha  occ. eigenvalues --   -0.87530  -0.87471  -0.87411  -0.86912  -0.85069
 Alpha  occ. eigenvalues --   -0.84849  -0.84004  -0.83696  -0.83112  -0.82744
 Alpha  occ. eigenvalues --   -0.82729  -0.82495  -0.81615  -0.81418  -0.80665
 Alpha  occ. eigenvalues --   -0.80254  -0.78918  -0.78411  -0.77307  -0.76989
 Alpha  occ. eigenvalues --   -0.76969  -0.76745  -0.75982  -0.75672  -0.74964
 Alpha  occ. eigenvalues --   -0.74630  -0.72867  -0.72471  -0.71749  -0.71400
 Alpha  occ. eigenvalues --   -0.69980  -0.69584  -0.68963  -0.68667  -0.67732
 Alpha  occ. eigenvalues --   -0.67399  -0.67320  -0.67048  -0.65365  -0.65115
 Alpha  occ. eigenvalues --   -0.64922  -0.64683  -0.64573  -0.64483  -0.64346
 Alpha  occ. eigenvalues --   -0.64015  -0.62307  -0.62112  -0.60560  -0.60134
 Alpha  occ. eigenvalues --   -0.59894  -0.59630  -0.59068  -0.58789  -0.58582
 Alpha  occ. eigenvalues --   -0.58224  -0.57629  -0.57381  -0.57341  -0.57032
 Alpha  occ. eigenvalues --   -0.56409  -0.55987  -0.55987  -0.55738  -0.55623
 Alpha  occ. eigenvalues --   -0.55389  -0.55262  -0.55065  -0.54554  -0.54324
 Alpha  occ. eigenvalues --   -0.53978  -0.53780  -0.53407  -0.53315  -0.53023
 Alpha  occ. eigenvalues --   -0.52976  -0.52968  -0.52873  -0.52737  -0.52508
 Alpha  occ. eigenvalues --   -0.52494  -0.52226  -0.52003  -0.51711  -0.51557
 Alpha  occ. eigenvalues --   -0.51499  -0.51263  -0.50998  -0.50740  -0.50296
 Alpha  occ. eigenvalues --   -0.50120  -0.50041  -0.49819  -0.49688  -0.49613
 Alpha  occ. eigenvalues --   -0.49310  -0.49301  -0.49174  -0.49023  -0.48915
 Alpha  occ. eigenvalues --   -0.48649  -0.48576  -0.48510  -0.48374  -0.48191
 Alpha  occ. eigenvalues --   -0.48145  -0.47784  -0.47425  -0.47386  -0.46936
 Alpha  occ. eigenvalues --   -0.46880  -0.46638  -0.46525  -0.46444  -0.46410
 Alpha  occ. eigenvalues --   -0.46224  -0.46067  -0.45872  -0.45868  -0.45609
 Alpha  occ. eigenvalues --   -0.45277  -0.45031  -0.44654  -0.44609  -0.44360
 Alpha  occ. eigenvalues --   -0.44279  -0.44234  -0.44177  -0.44093  -0.43951
 Alpha  occ. eigenvalues --   -0.43891  -0.43743  -0.43530  -0.43470  -0.43390
 Alpha  occ. eigenvalues --   -0.43212  -0.43104  -0.42767  -0.42757  -0.42698
 Alpha  occ. eigenvalues --   -0.42642  -0.42367  -0.42080  -0.41798  -0.41781
 Alpha  occ. eigenvalues --   -0.41616  -0.41463  -0.41307  -0.41222  -0.40972
 Alpha  occ. eigenvalues --   -0.40935  -0.40818  -0.40644  -0.40566  -0.40541
 Alpha  occ. eigenvalues --   -0.40325  -0.40316  -0.40107  -0.39511  -0.39249
 Alpha  occ. eigenvalues --   -0.38544  -0.38183  -0.37825  -0.37532  -0.37403
 Alpha  occ. eigenvalues --   -0.37347  -0.37077  -0.37021  -0.36723  -0.36625
 Alpha  occ. eigenvalues --   -0.36230  -0.36042  -0.34376  -0.34040  -0.33766
 Alpha  occ. eigenvalues --   -0.33699  -0.33268  -0.32959  -0.31481  -0.31123
 Alpha  occ. eigenvalues --   -0.31071  -0.30765  -0.30088  -0.29708  -0.29563
 Alpha  occ. eigenvalues --   -0.29417  -0.29100  -0.28947  -0.24170  -0.23816
 Alpha  occ. eigenvalues --   -0.21225  -0.20898
 Alpha virt. eigenvalues --   -0.08876  -0.08563  -0.01847  -0.01473  -0.00175
 Alpha virt. eigenvalues --    0.00180   0.02117   0.02450   0.02853   0.03488
 Alpha virt. eigenvalues --    0.04635   0.04911   0.05105   0.05327   0.06121

 Mulliken charges:
               1
     1  Mg   0.838701
     2  C   -0.002764
     3  C   -0.094914
     4  C   -0.045552
     5  C   -0.064186
     6  N   -0.256737
     7  C   -0.052441
     8  C   -0.013819
     9  C   -0.086846
    10  C    0.046112
    11  C    0.104817
    12  C    0.053622
    13  C   -0.072399
    14  H    0.037947
    15  N   -0.433068
    16  C    0.168067
    17  C   -0.178046
    18  C   -0.004481
    19  C    0.148773
    20  C    0.110336
    21  C    0.011829
    22  O   -0.249092
    23  C    0.062996
    24  N   -0.341225
    25  C    0.041243
    26  C   -0.028344
    27  C   -0.024062
    28  C    0.075246
    29  C    0.076066
    30  C    0.034988
    31  C   -0.005722
    32  N   -0.310599
    33  C    0.080816
    34  C   -0.169914
    35  C    0.008579
    36  C    0.083243
    37  C    0.127330
    38  C    0.046261
    39  O   -0.187552
    40  C   -0.005274
    41  C    0.212876
    42  O   -0.256504
    43  O   -0.305205
    44  C    0.156728
    45  H   -0.017778
    46  H   -0.016626
    47  H   -0.041481
    48  H    0.001487
    49  H   -0.004518
    50  H    0.025745
    51  H    0.016422
    52  H    0.016691
    53  H    0.009465
    54  H    0.044750
    55  H    0.018302
    56  H    0.016924
    57  H    0.005833
    58  H    0.027069
    59  H    0.037301
    60  H    0.037766
    61  H    0.035278
    62  H    0.029110
    63  H    0.017168
    64  H    0.009644
    65  H    0.023537
    66  H    0.012454
    67  H    0.004855
    68  H    0.007012
    69  H    0.004161
    70  H    0.010645
    71  H    0.017896
    72  H    0.028974
    73  H    0.047532
    74  H    0.008918
    75  H    0.046431
    76  H    0.035310
    77  H    0.043455
    78  H    0.046162
    79  H    0.056259
    80  Mg   0.837946
    81  C   -0.016180
    82  C   -0.088031
    83  C   -0.045148
    84  C   -0.063318
    85  N   -0.254386
    86  C   -0.049404
    87  C   -0.015001
    88  C   -0.090696
    89  C    0.045683
    90  C    0.114427
    91  C    0.062715
    92  C   -0.077325
    93  H    0.034432
    94  N   -0.423413
    95  C    0.162558
    96  C   -0.174744
    97  C   -0.007792
    98  C    0.151681
    99  C    0.099400
   100  C    0.015645
   101  O   -0.253745
   102  C    0.061217
   103  N   -0.349768
   104  C    0.037010
   105  C   -0.019819
   106  C   -0.035197
   107  C    0.089052
   108  C    0.072969
   109  C    0.034715
   110  C   -0.007523
   111  N   -0.324723
   112  C    0.078996
   113  C   -0.160318
   114  C    0.003972
   115  C    0.096394
   116  C    0.130088
   117  C    0.044693
   118  O   -0.187740
   119  C    0.000088
   120  C    0.210833
   121  O   -0.251315
   122  O   -0.305770
   123  C    0.152236
   124  H   -0.021476
   125  H   -0.016045
   126  H   -0.039645
   127  H   -0.001276
   128  H   -0.005570
   129  H    0.023866
   130  H    0.015052
   131  H    0.012854
   132  H    0.013896
   133  H    0.037822
   134  H    0.019795
   135  H    0.018989
   136  H    0.007269
   137  H    0.026350
   138  H    0.039010
   139  H    0.038628
   140  H    0.035879
   141  H    0.033315
   142  H    0.013949
   143  H    0.013052
   144  H    0.023982
   145  H    0.013159
   146  H    0.004875
   147  H    0.005558
   148  H    0.004039
   149  H    0.010581
   150  H    0.017665
   151  H    0.030284
   152  H    0.044933
   153  H    0.007705
   154  H    0.053848
   155  H    0.036709
   156  H    0.043232
   157  H    0.048832
   158  H    0.053511
 Sum of Mulliken charges =  -0.00000

 Dipole moment (field-independent basis, Debye):
    X=             -3.7317    Y=             -1.8660    Z=             -7.1685  Tot=              8.2942
 Quadrupole moment (field-independent basis, Debye-Ang):
   XX=           -518.9959   YY=           -542.6338   ZZ=           -456.6066
   XY=            -12.5870   XZ=             -1.0221   YZ=            -40.1984

 Normal termination of Gaussian 16 at Fri Sep  3 23:00:09 2021.
