 Gaussian 16, Revision A.03,
 Gaussian 16:  ES64L-G16RevA.03 25-Dec-2016

 -----------------------------------
 #p cam-b3lyp/Def2SVP td=(nstates=5)
 -----------------------------------

 --------------------------------
 TDDFT excited states in gaussian
 --------------------------------
 Symbolic Z-matrix:
 Charge =  0 Multiplicity = 1

                         Standard orientation:
 ---------------------------------------------------------------------
 Center     Atomic      Atomic             Coordinates (Angstroms)
 Number     Number       Type             X           Y           Z
 ---------------------------------------------------------------------
      1         12           0       -4.439280   -0.574091    0.275884
      2          6           0       -4.482637    3.003461    0.168847
      3          6           0       -5.462355   -0.535505   -2.979096
      4          6           0       -4.846163   -3.712462    0.480083
      5          6           0       -4.531696   -0.324131    3.750742
      6          7           0       -4.880489    1.086323   -1.120185
      7          6           0       -4.800289    2.411684   -1.055711
      8          6           0       -5.011715    3.111093   -2.431756
      9          6           0       -5.851875    1.972489   -3.166406
     10          6           0       -5.343115    0.763391   -2.401442
     11          6           0       -7.357278    2.091700   -2.951811
     12          6           0       -3.659680    3.391925   -3.169906
     13          6           0       -3.751000    4.355800   -4.356481
     14          1           0       -2.642715    5.264734   -4.607258
     15          7           0       -4.586445   -1.941857   -1.142005
     16          6           0       -5.005408   -1.746425   -2.415412
     17          6           0       -4.936159   -3.068269   -3.074664
     18          6           0       -4.624203   -4.082268   -2.029397
     19          6           0       -4.699977   -3.279381   -0.835659
     20          6           0       -5.106746   -3.261785   -4.550199
     21          6           0       -4.318300   -5.545230   -2.094938
     22          8           0       -4.305522   -6.284820   -1.052145
     23          6           0       -4.118391   -6.114963   -3.439737
     24          7           0       -4.879579   -1.848196    1.869756
     25          6           0       -4.942911   -3.173008    1.696995
     26          6           0       -4.988006   -3.893562    3.011798
     27          6           0       -4.696122   -2.791668    4.130005
     28          6           0       -4.610214   -1.544659    3.215752
     29          6           0       -6.304525   -4.613157    3.335792
     30          6           0       -3.526002   -3.072846    5.105801
     31          6           0       -2.212505   -3.031836    4.357376
     32          7           0       -4.319272    1.028378    1.734902
     33          6           0       -4.402430    0.906827    3.129529
     34          6           0       -4.378792    2.272717    3.684375
     35          6           0       -4.299716    3.100000    2.565807
     36          6           0       -4.301964    2.302557    1.385819
     37          6           0       -4.486234    2.614875    5.061262
     38          6           0       -4.238688    4.473186    2.091998
     39          8           0       -4.114092    5.572621    2.633488
     40          6           0       -4.477534    4.471078    0.517585
     41          6           0       -3.416719    5.337881   -0.104213
     42          8           0       -2.216060    4.998746   -0.076428
     43          8           0       -4.000703    6.300312   -0.834439
     44          6           0       -3.003263    7.178115   -1.502817
     45          1           0       -6.005976   -0.647165   -3.919282
     46          1           0       -4.878390   -4.797168    0.601784
     47          1           0       -4.471931   -0.171474    4.829898
     48          1           0       -5.592141    4.032870   -2.388654
     49          1           0       -5.590909    1.890764   -4.221365
     50          1           0       -7.595655    2.865453   -2.222151
     51          1           0       -7.677860    1.114819   -2.589286
     52          1           0       -7.872969    2.243286   -3.900421
     53          1           0       -3.339155    2.488614   -3.688899
     54          1           0       -2.905485    3.752642   -2.469621
     55          1           0       -4.697207    4.897649   -4.357924
     56          1           0       -3.774516    3.767173   -5.273632
     57          1           0       -5.488845   -2.361923   -5.030607
     58          1           0       -5.898160   -3.998756   -4.685279
     59          1           0       -4.191510   -3.613712   -5.026457
     60          1           0       -5.016276   -5.952740   -4.036424
     61          1           0       -3.821494   -7.151811   -3.285954
     62          1           0       -3.316316   -5.570032   -3.938411
     63          1           0       -4.220581   -4.664932    3.061514
     64          1           0       -5.554876   -2.634136    4.782997
     65          1           0       -6.183845   -5.678284    3.534908
     66          1           0       -6.992776   -4.445619    2.507824
     67          1           0       -6.862942   -4.190601    4.170677
     68          1           0       -3.620403   -4.070360    5.533588
     69          1           0       -3.473058   -2.361966    5.930481
     70          1           0       -2.140565   -4.034228    3.936819
     71          1           0       -1.388841   -2.836896    5.044970
     72          1           0       -2.251174   -2.330631    3.523528
     73          1           0       -3.742439    3.390885    5.241668
     74          1           0       -4.316711    1.747724    5.699160
     75          1           0       -5.516525    2.968026    5.101772
     76          1           0       -5.478908    4.867216    0.351916
     77          1           0       -3.223243    8.202073   -1.200569
     78          1           0       -3.047868    6.943883   -2.566560
     79          1           0       -1.971379    7.080604   -1.163631
     80         12           0        4.545082   -0.983488   -0.139017
     81          6           0        4.527251    2.559594    0.431376
     82          6           0        3.551352   -0.323328   -3.334530
     83          6           0        4.115721   -4.101037   -0.543943
     84          6           0        4.415106   -1.400613    3.318562
     85          7           0        4.127482    0.913716   -1.196603
     86          6           0        4.214184    2.200816   -0.896297
     87          6           0        4.029336    3.157150   -2.104939
     88          6           0        3.179952    2.181128   -3.056141
     89          6           0        3.670891    0.835404   -2.526353
     90          6           0        1.680843    2.268161   -2.822839
     91          6           0        5.395440    3.556895   -2.765230
     92          6           0        5.316069    4.725279   -3.750292
     93          1           0        6.439563    5.655631   -3.818591
     94          7           0        4.404070   -2.054936   -1.803554
     95          6           0        4.005215   -1.622665   -3.018186
     96          6           0        4.056057   -2.798768   -3.900442
     97          6           0        4.359238   -3.995641   -3.069617
     98          6           0        4.282531   -3.420914   -1.741500
     99          6           0        3.906751   -2.704749   -5.391172
    100          6           0        4.655013   -5.424218   -3.412975
    101          8           0        4.654083   -6.345095   -2.521454
    102          6           0        4.853708   -5.728458   -4.837562
    103          7           0        4.087707   -2.526468    1.177188
    104          6           0        4.010087   -3.799120    0.750277
    105          6           0        3.944124   -4.761223    1.912348
    106          6           0        4.238525   -3.881941    3.215329
    107          6           0        4.339985   -2.486466    2.561303
    108          6           0        2.619008   -5.502633    2.087752
    109          6           0        5.398041   -4.353207    4.135156
    110          6           0        6.720637   -4.195908    3.420048
    111          7           0        4.667414    0.307551    1.589079
    112          6           0        4.563662   -0.070870    2.945588
    113          6           0        4.592748    1.169749    3.747123
    114          6           0        4.688997    2.193386    2.792463
    115          6           0        4.697508    1.631626    1.487137
    116          6           0        4.485177    1.247214    5.164352
    117          6           0        4.774620    3.622038    2.591702
    118          8           0        4.895116    4.597565    3.331687
    119          6           0        4.546256    3.930187    1.049202
    120          6           0        5.619048    4.885243    0.602546
    121          8           0        6.812021    4.534213    0.588792
    122          8           0        5.042412    5.974342    0.062424
    123          6           0        6.066109    6.946334   -0.405653
    124          1           0        3.022450   -0.241031   -4.284459
    125          1           0        4.074125   -5.189921   -0.621945
    126          1           0        4.477830   -1.451636    4.407663
    127          1           0        3.461560    4.054788   -1.891268
    128          1           0        3.459011    2.305004   -4.099281
    129          1           0        1.440914    2.887448   -1.971335
    130          1           0        1.349488    1.251488   -2.656596
    131          1           0        1.176538    2.604445   -3.733287
    132          1           0        5.710991    2.757066   -3.447467
    133          1           0        6.134156    3.765498   -2.015971
    134          1           0        4.368986    5.271959   -3.665900
    135          1           0        5.303489    4.322575   -4.766013
    136          1           0        3.529162   -1.721044   -5.696381
    137          1           0        3.111649   -3.401677   -5.677486
    138          1           0        4.821337   -2.973860   -5.923898
    139          1           0        3.964789   -5.443208   -5.395151
    140          1           0        5.142198   -6.780748   -4.874181
    141          1           0        5.674824   -5.109604   -5.216257
    142          1           0        4.706077   -5.526002    1.824960
    143          1           0        3.370548   -3.850324    3.890204
    144          1           0        2.730458   -6.603366    2.080505
    145          1           0        1.943258   -5.183694    1.305342
    146          1           0        2.064129   -5.249642    2.989586
    147          1           0        5.292702   -5.416869    4.362497
    148          1           0        5.440918   -3.824356    5.081453
    149          1           0        6.783080   -5.104672    2.813969
    150          1           0        7.538801   -4.141557    4.135367
    151          1           0        6.697333   -3.342258    2.732741
    152          1           0        5.225725    1.963699    5.494102
    153          1           0        4.637300    0.274934    5.628359
    154          1           0        3.452393    1.592047    5.263000
    155          1           0        3.548266    4.357602    0.944774
    156          1           0        5.847819    7.900652    0.083539
    157          1           0        6.016426    6.923692   -1.510534
    158          1           0        7.092008    6.780823   -0.098117
 ---------------------------------------------------------------------

 SCF Done:  E(RCAM-B3LYP) =  -4069.81148787     A.U. after   19 cycles

 Excitation energies and oscillator strengths:

 Excited State   1:      Singlet-A      1.6479 eV  752.37 nm  f=0.0056  <S**2>=0.000
     309 -> 315       -0.11342
     310 -> 316        0.12222
     311 -> 313       -0.46519
     312 -> 314        0.50650
 This state for optimization and/or second-order correction.
 Total Energy, E(TD-HF/TD-DFT) =  -4069.75092848
 Copying the excited state density for this state as the 1-particle RhoCI density.

 Excited State   2:      Singlet-A      1.7036 eV  727.76 nm  f=0.6938  <S**2>=0.000
     309 -> 315        0.13427
     310 -> 316        0.12179
     311 -> 313        0.50383
     312 -> 314        0.46277

 Excited State   3:      Singlet-A      2.1797 eV  568.80 nm  f=0.0184  <S**2>=0.000
     309 -> 313       -0.29827
     310 -> 314        0.57226
     311 -> 315        0.12284
     312 -> 316       -0.23720

 Excited State   4:      Singlet-A      2.1967 eV  564.40 nm  f=0.1557  <S**2>=0.000
     309 -> 313        0.56704
     310 -> 314        0.29356
     311 -> 315       -0.25049
     312 -> 316       -0.13095

 Excited State   5:      Singlet-A      2.3453 eV  528.65 nm  f=0.0000  <S**2>=0.000
     312 -> 313        0.70709

 The electronic state is 1-A.
 Alpha  occ. eigenvalues --  -46.87904 -46.87423 -19.26440 -19.26046 -19.19184
 Alpha  occ. eigenvalues --  -19.18878 -19.18871 -19.18541 -19.18245 -19.17747
 Alpha  occ. eigenvalues --  -14.42570 -14.42251 -14.41556 -14.41125 -14.39506
 Alpha  occ. eigenvalues --  -14.39123 -14.38688 -14.38353 -10.39238 -10.38791
 Alpha  occ. eigenvalues --  -10.35511 -10.35224 -10.34471 -10.33916 -10.31846
 Alpha  occ. eigenvalues --  -10.31528 -10.31496 -10.31042 -10.31040 -10.30774
 Alpha  occ. eigenvalues --  -10.30677 -10.30600 -10.30311 -10.30159 -10.30114
 Alpha  occ. eigenvalues --  -10.30016 -10.29941 -10.29724 -10.29653 -10.29353
 Alpha  occ. eigenvalues --  -10.29225 -10.29173 -10.28933 -10.28837 -10.28471
 Alpha  occ. eigenvalues --  -10.28468 -10.28418 -10.28278 -10.28154 -10.27884
 Alpha  occ. eigenvalues --  -10.27845 -10.27836 -10.27764 -10.27679 -10.27608
 Alpha  occ. eigenvalues --  -10.27603 -10.27542 -10.27518 -10.27440 -10.27356
 Alpha  occ. eigenvalues --  -10.27338 -10.27272 -10.27250 -10.27225 -10.27171
 Alpha  occ. eigenvalues --  -10.26973 -10.26688 -10.26463 -10.26463 -10.26371
 Alpha  occ. eigenvalues --  -10.26310 -10.26303 -10.26122 -10.25990 -10.25887
 Alpha  occ. eigenvalues --  -10.25717 -10.25616 -10.25594 -10.25514 -10.25174
 Alpha  occ. eigenvalues --  -10.24923 -10.24887 -10.24832 -10.24621 -10.24585
 Alpha  occ. eigenvalues --  -10.24452  -3.16647  -3.16173  -1.91528  -1.91115
 Alpha  occ. eigenvalues --   -1.91056  -1.90957  -1.90644  -1.90481  -1.16789
 Alpha  occ. eigenvalues --   -1.16344  -1.08705  -1.08343  -1.07275  -1.06800
 Alpha  occ. eigenvalues --   -1.06796  -1.06654  -1.04701  -1.04243  -1.03868
 Alpha  occ. eigenvalues --   -1.03425  -1.03334  -1.02806  -1.02514  -1.01871
 Alpha  occ. eigenvalues --   -0.92082  -0.91711  -0.89627  -0.89358  -0.89280
 Alpha  occ. eigenvalues --   -0.88865  -0.88392  -0.88011  -0.87954  -0.87802
 Alpha  occ. eigenvalues --   -0.87553  -0.87450  -0.87369  -0.86943  -0.85142
 Alpha  occ. eigenvalues --   -0.84746  -0.84045  -0.83669  -0.83054  -0.82786
 Alpha  occ. eigenvalues --   -0.82771  -0.82409  -0.81715  -0.81337  -0.80715
 Alpha  occ. eigenvalues --   -0.80200  -0.78895  -0.78432  -0.77347  -0.77083
 Alpha  occ. eigenvalues --   -0.76916  -0.76645  -0.76057  -0.75561  -0.75004
 Alpha  occ. eigenvalues --   -0.74573  -0.72877  -0.72464  -0.71787  -0.71319
 Alpha  occ. eigenvalues --   -0.70022  -0.69568  -0.69018  -0.68581  -0.67749
 Alpha  occ. eigenvalues --   -0.67387  -0.67370  -0.66989  -0.65441  -0.65006
 Alpha  occ. eigenvalues --   -0.64971  -0.64751  -0.64530  -0.64404  -0.64378
 Alpha  occ. eigenvalues --   -0.63988  -0.62429  -0.62016  -0.60538  -0.60143
 Alpha  occ. eigenvalues --   -0.59948  -0.59527  -0.59098  -0.58751  -0.58614
 Alpha  occ. eigenvalues --   -0.58178  -0.57702  -0.57414  -0.57257  -0.57005
 Alpha  occ. eigenvalues --   -0.56413  -0.56128  -0.55979  -0.55627  -0.55621
 Alpha  occ. eigenvalues --   -0.55453  -0.55232  -0.55015  -0.54649  -0.54249
 Alpha  occ. eigenvalues --   -0.54065  -0.53641  -0.53401  -0.53353  -0.53048
 Alpha  occ. eigenvalues --   -0.53015  -0.52906  -0.52871  -0.52663  -0.52556
 Alpha  occ. eigenvalues --   -0.52475  -0.52220  -0.51987  -0.51767  -0.51640
 Alpha  occ. eigenvalues --   -0.51422  -0.51309  -0.50952  -0.50669  -0.50325
 Alpha  occ. eigenvalues --   -0.50147  -0.50026  -0.49753  -0.49661  -0.49639
 Alpha  occ. eigenvalues --   -0.49326  -0.49260  -0.49231  -0.48949  -0.48808
 Alpha  occ. eigenvalues --   -0.48713  -0.48558  -0.48534  -0.48297  -0.48168
 Alpha  occ. eigenvalues --   -0.48120  -0.47818  -0.47406  -0.47367  -0.46918
 Alpha  occ. eigenvalues --   -0.46915  -0.46717  -0.46481  -0.46466  -0.46306
 Alpha  occ. eigenvalues --   -0.46267  -0.46056  -0.45933  -0.45844  -0.45557
 Alpha  occ. eigenvalues --   -0.45305  -0.44980  -0.44685  -0.44634  -0.44263
 Alpha  occ. eigenvalues --   -0.44256  -0.44242  -0.44229  -0.44123  -0.43876
 Alpha  occ. eigenvalues --   -0.43861  -0.43707  -0.43616  -0.43519  -0.43297
 Alpha  occ. eigenvalues --   -0.43139  -0.43134  -0.42833  -0.42777  -0.42676
 Alpha  occ. eigenvalues --   -0.42628  -0.42355  -0.42141  -0.41816  -0.41746
 Alpha  occ. eigenvalues --   -0.41692  -0.41398  -0.41259  -0.41220  -0.41023
 Alpha  occ. eigenvalues --   -0.40929  -0.40729  -0.40686  -0.40534  -0.40469
 Alpha  occ. eigenvalues --   -0.40441  -0.40264  -0.39998  -0.39564  -0.39245
 Alpha  occ. eigenvalues --   -0.38592  -0.38135  -0.37950  -0.37434  -0.37427
 Alpha  occ. eigenvalues --   -0.37412  -0.37046  -0.36953  -0.36854  -0.36503
 Alpha  occ. eigenvalues --   -0.36324  -0.35977  -0.34394  -0.34010  -0.33923
 Alpha  occ. eigenvalues --   -0.33580  -0.33296  -0.32938  -0.31411  -0.31145
 Alpha  occ. eigenvalues --   -0.31097  -0.30726  -0.30107  -0.29645  -0.29541
 Alpha  occ. eigenvalues --   -0.29410  -0.29114  -0.28959  -0.24190  -0.23789
 Alpha  occ. eigenvalues --   -0.21234  -0.20881
 Alpha virt. eigenvalues --   -0.08874  -0.08557  -0.01854  -0.01454  -0.00152
 Alpha virt. eigenvalues --    0.00188   0.02113   0.02464   0.02842   0.03503
 Alpha virt. eigenvalues --    0.04560   0.04919   0.04995   0.05463   0.05918

 Mulliken charges:
               1
     1  Mg   0.838628
     2  C   -0.003554
     3  C   -0.095092
     4  C   -0.045438
     5  C   -0.063699
     6  N   -0.256643
     7  C   -0.052971
     8  C   -0.013832
     9  C   -0.086845
    10  C    0.045908
    11  C    0.104774
    12  C    0.053626
    13  C   -0.071211
    14  H    0.033782
    15  N   -0.433205
    16  C    0.168300
    17  C   -0.177569
    18  C   -0.003613
    19  C    0.148828
    20  C    0.110302
    21  C    0.013064
    22  O   -0.248964
    23  C    0.062416
    24  N   -0.341015
    25  C    0.041104
    26  C   -0.028294
    27  C   -0.023947
    28  C    0.074740
    29  C    0.076063
    30  C    0.035128
    31  C   -0.004871
    32  N   -0.310591
    33  C    0.080513
    34  C   -0.169094
    35  C    0.008831
    36  C    0.083051
    37  C    0.127093
    38  C    0.046548
    39  O   -0.187240
    40  C   -0.005660
    41  C    0.213630
    42  O   -0.258415
    43  O   -0.304517
    44  C    0.157487
    45  H   -0.017772
    46  H   -0.016465
    47  H   -0.041169
    48  H    0.001309
    49  H   -0.004817
    50  H    0.025760
    51  H    0.016852
    52  H    0.016653
    53  H    0.009782
    54  H    0.043177
    55  H    0.019123
    56  H    0.017403
    57  H    0.005306
    58  H    0.027198
    59  H    0.038589
    60  H    0.036985
    61  H    0.036707
    62  H    0.031129
    63  H    0.016637
    64  H    0.009783
    65  H    0.023459
    66  H    0.012676
    67  H    0.004921
    68  H    0.006379
    69  H    0.004997
    70  H    0.008604
    71  H    0.016865
    72  H    0.029968
    73  H    0.048805
    74  H    0.009160
    75  H    0.046191
    76  H    0.035393
    77  H    0.044001
    78  H    0.045518
    79  H    0.053429
    80  Mg   0.837595
    81  C   -0.015881
    82  C   -0.088111
    83  C   -0.045741
    84  C   -0.065420
    85  N   -0.254716
    86  C   -0.047865
    87  C   -0.015315
    88  C   -0.091142
    89  C    0.046264
    90  C    0.112455
    91  C    0.062615
    92  C   -0.077164
    93  H    0.033870
    94  N   -0.423358
    95  C    0.162783
    96  C   -0.175819
    97  C   -0.008311
    98  C    0.151841
    99  C    0.100063
   100  C    0.014974
   101  O   -0.253383
   102  C    0.061504
   103  N   -0.350118
   104  C    0.037403
   105  C   -0.019738
   106  C   -0.034603
   107  C    0.089297
   108  C    0.073441
   109  C    0.034837
   110  C   -0.007548
   111  N   -0.324481
   112  C    0.079258
   113  C   -0.162934
   114  C    0.003726
   115  C    0.096019
   116  C    0.131061
   117  C    0.043893
   118  O   -0.186777
   119  C   -0.000116
   120  C    0.210635
   121  O   -0.252097
   122  O   -0.304354
   123  C    0.152399
   124  H   -0.021341
   125  H   -0.015859
   126  H   -0.041223
   127  H    0.002115
   128  H   -0.006290
   129  H    0.033555
   130  H    0.012640
   131  H    0.012960
   132  H    0.013134
   133  H    0.037482
   134  H    0.020830
   135  H    0.018519
   136  H    0.007799
   137  H    0.023889
   138  H    0.039116
   139  H    0.036994
   140  H    0.035864
   141  H    0.033681
   142  H    0.013904
   143  H    0.011603
   144  H    0.024988
   145  H    0.013106
   146  H    0.005027
   147  H    0.005783
   148  H    0.003126
   149  H    0.010806
   150  H    0.017468
   151  H    0.030412
   152  H    0.045818
   153  H    0.007439
   154  H    0.048436
   155  H    0.041744
   156  H    0.043939
   157  H    0.048670
   158  H    0.052857
 Sum of Mulliken charges =  -0.00000

 Dipole moment (field-independent basis, Debye):
    X=             -4.6492    Y=             -1.8683    Z=             -7.0843  Tot=              8.6772
 Quadrupole moment (field-independent basis, Debye-Ang):
   XX=           -518.6055   YY=           -549.8090   ZZ=           -449.8922
   XY=             -4.3595   XZ=              0.3612   YZ=            -47.4036

 Normal termination of Gaussian 16 at Thu Sep  9 13:32:57 2021.
