 Gaussian 16, Revision A.03,
 Gaussian 16:  ES64L-G16RevA.03 25-Dec-2016

 -----------------------------------
 #p cam-b3lyp/Def2SVP td=(nstates=5)
 -----------------------------------

 --------------------------------
 TDDFT excited states in gaussian
 --------------------------------
 Symbolic Z-matrix:
 Charge =  0 Multiplicity = 1

                         Standard orientation:
 ---------------------------------------------------------------------
 Center     Atomic      Atomic             Coordinates (Angstroms)
 Number     Number       Type             X           Y           Z
 ---------------------------------------------------------------------
      1         12           0       -7.730823   -0.958732    0.251798
      2          6           0       -8.026172    2.608085    0.304684
      3          6           0       -8.675903   -0.839591   -3.024738
      4          6           0       -7.918030   -4.123998    0.303469
      5          6           0       -7.923883   -0.878741    3.730590
      6          7           0       -8.255594    0.730224   -1.079625
      7          6           0       -8.271511    2.053475   -0.953435
      8          6           0       -8.499217    2.799991   -2.301855
      9          6           0       -9.238379    1.640989   -3.109537
     10          6           0       -8.663281    0.436007   -2.386207
     11          6           0      -10.753150    1.644337   -2.930768
     12          6           0       -7.153336    3.209027   -2.989623
     13          6           0       -7.284633    4.218612   -4.133675
     14          1           0       -6.238183    5.213647   -4.313107
     15          7           0       -7.746292   -2.265591   -1.229664
     16          6           0       -8.147526   -2.040596   -2.503899
     17          6           0       -7.968607   -3.322046   -3.219828
     18          6           0       -7.610350   -4.359516   -2.213151
     19          6           0       -7.771616   -3.620649   -0.987000
     20          6           0       -8.089645   -3.457768   -4.706664
     21          6           0       -7.199599   -5.792798   -2.336110
     22          8           0       -7.159150   -6.577665   -1.327684
     23          6           0       -6.927532   -6.283579   -3.699251
     24          7           0       -8.117301   -2.333725    1.774186
     25          6           0       -8.082012   -3.650181    1.540341
     26          6           0       -8.107134   -4.432860    2.819685
     27          6           0       -7.921260   -3.366772    3.993849
     28          6           0       -7.902498   -2.075395    3.139295
     29          6           0       -9.376459   -5.257233    3.075095
     30          6           0       -6.757767   -3.610692    4.987432
     31          6           0       -5.432998   -3.442843    4.277566
     32          7           0       -7.760125    0.578170    1.784155
     33          6           0       -7.867753    0.385966    3.169127
     34          6           0       -7.954685    1.722695    3.785299
     35          6           0       -7.907970    2.604920    2.707643
     36          6           0       -7.825221    1.865371    1.493349
     37          6           0       -8.119113    1.991681    5.172758
     38          6           0       -7.933535    3.999673    2.297926
     39          8           0       -7.900507    5.078586    2.891515
     40          6           0       -8.133899    4.054526    0.719106
     41          6           0       -7.122913    5.021619    0.165981
     42          8           0       -5.902167    4.766449    0.211085
     43          8           0       -7.756295    5.973917   -0.535800
     44          6           0       -6.808173    6.949713   -1.136668
     45          1           0       -9.187553   -0.944918   -3.983415
     46          1           0       -7.875860   -5.212803    0.375326
     47          1           0       -7.900965   -0.772942    4.816746
     48          1           0       -9.144653    3.675840   -2.233109
     49          1           0       -8.947100    1.627193   -4.159627
     50          1           0      -11.063387    2.364507   -2.173782
     51          1           0      -11.011957    0.631516   -2.621402
     52          1           0      -11.255487    1.803671   -3.885256
     53          1           0       -6.756999    2.355652   -3.539831
     54          1           0       -6.443698    3.588495   -2.253590
     55          1           0       -8.266705    4.692357   -4.136442
     56          1           0       -7.244243    3.673349   -5.076679
     57          1           0       -8.523233   -2.565373   -5.156304
     58          1           0       -8.823130   -4.241209   -4.896211
     59          1           0       -7.140549   -3.722080   -5.173236
     60          1           0       -7.820158   -6.156873   -4.312206
     61          1           0       -6.561342   -7.303154   -3.584263
     62          1           0       -6.154587   -5.661093   -4.150933
     63          1           0       -7.288154   -5.150088    2.855475
     64          1           0       -8.804421   -3.300480    4.629699
     65          1           0       -9.185059   -6.319445    3.229295
     66          1           0      -10.054890   -5.099731    2.237112
     67          1           0       -9.983349   -4.914343    3.912668
     68          1           0       -6.791123   -4.631291    5.367186
     69          1           0       -6.775303   -2.937222    5.844393
     70          1           0       -5.279845   -4.416957    3.814448
     71          1           0       -4.641982   -3.223106    4.995355
     72          1           0       -5.501530   -2.707815    3.475367
     73          1           0       -7.436975    2.808568    5.408031
     74          1           0       -7.903597    1.109628    5.775367
     75          1           0       -9.172603    2.269550    5.201113
     76          1           0       -9.156683    4.386902    0.544287
     77          1           0       -7.107654    7.940488   -0.794746
     78          1           0       -6.810535    6.762969   -2.210691
     79          1           0       -5.780374    6.908920   -0.774308
     80         12           0        8.140198   -0.537439   -0.077823
     81          6           0        7.054958    2.877438    0.122004
     82          6           0        6.513059   -0.723074   -3.069897
     83          6           0        8.694529   -3.661558   -0.072650
     84          6           0        8.679316   -0.422049    3.363361
     85          7           0        6.971602    0.952060   -1.221511
     86          6           0        6.678436    2.235524   -1.076166
     87          6           0        6.010856    2.887281   -2.316772
     88          6           0        5.392214    1.562422   -2.980779
     89          6           0        6.369399    0.529981   -2.422355
     90          6           0        4.000376    1.227360   -2.470996
     91          6           0        7.055112    3.572072   -3.266825
     92          6           0        6.450741    4.490410   -4.331312
     93          1           0        7.185417    5.694093   -4.710594
     94          7           0        8.105480   -1.850375   -1.565623
     95          6           0        7.408155   -1.756901   -2.717261
     96          6           0        7.705222   -2.986421   -3.468388
     97          6           0        8.504342   -3.888187   -2.594935
     98          6           0        8.446823   -3.161207   -1.342634
     99          6           0        7.309158   -3.178993   -4.903480
    100          6           0        9.194005   -5.195652   -2.842150
    101          8           0        9.628575   -5.920473   -1.878499
    102          6           0        9.262531   -5.646741   -4.239760
    103          7           0        8.416080   -1.917953    1.452028
    104          6           0        8.693826   -3.205101    1.179922
    105          6           0        9.122180   -3.945561    2.424355
    106          6           0        9.307852   -2.823975    3.549151
    107          6           0        8.848374   -1.585116    2.749467
    108          6           0        8.154027   -5.015755    2.928087
    109          6           0       10.682967   -2.770496    4.269471
    110          6           0       11.757360   -2.335411    3.299021
    111          7           0        8.095546    0.986294    1.453294
    112          6           0        8.327849    0.813736    2.835448
    113          6           0        8.072087    2.115321    3.485744
    114          6           0        7.683377    2.955583    2.431545
    115          6           0        7.676485    2.223754    1.213398
    116          6           0        8.161396    2.379689    4.881546
    117          6           0        7.267055    4.292517    2.073815
    118          8           0        7.173670    5.362888    2.673260
    119          6           0        6.719551    4.269094    0.581805
    120          6           0        7.341483    5.420817   -0.159320
    121          8           0        8.567021    5.449801   -0.368616
    122          8           0        6.366421    6.184474   -0.685102
    123          6           0        6.933769    7.333877   -1.439311
    124          1           0        5.848630   -0.956030   -3.902449
    125          1           0        8.998893   -4.709898   -0.030001
    126          1           0        8.919654   -0.278796    4.419018
    127          1           0        5.220809    3.592884   -2.089335
    128          1           0        5.454013    1.598352   -4.065328
    129          1           0        3.703741    1.871448   -1.656569
    130          1           0        4.047853    0.197803   -2.141138
    131          1           0        3.282088    1.246806   -3.295627
    132          1           0        7.506852    2.807942   -3.912424
    133          1           0        7.790063    4.110213   -2.700360
    134          1           0        5.401565    4.730908   -4.120707
    135          1           0        6.416237    3.947480   -5.278972
    136          1           0        6.589819   -2.416979   -5.227968
    137          1           0        6.751025   -4.119955   -4.957648
    138          1           0        8.169506   -3.239333   -5.573422
    139          1           0        8.255498   -5.735878   -4.640254
    140          1           0        9.869240   -6.554234   -4.224511
    141          1           0        9.769531   -4.876437   -4.831537
    142          1           0       10.069261   -4.447550    2.268941
    143          1           0        8.589980   -2.950269    4.372899
    144          1           0        8.615775   -6.017719    3.011279
    145          1           0        7.300818   -5.044255    2.263428
    146          1           0        7.690547   -4.803304    3.889987
    147          1           0       10.965938   -3.766147    4.619857
    148          1           0       10.694078   -2.110808    5.130686
    149          1           0       12.019983   -3.266486    2.787923
    150          1           0       12.611574   -1.923564    3.832626
    151          1           0       11.353068   -1.648828    2.546161
    152          1           0        8.668843    3.329385    4.986701
    153          1           0        8.690698    1.585281    5.403582
    154          1           0        7.100228    2.406788    5.143205
    155          1           0        5.633123    4.352222    0.630171
    156          1           0        6.493139    8.242106   -1.016655
    157          1           0        6.727220    7.122832   -2.505405
    158          1           0        7.991656    7.537465   -1.321554
 ---------------------------------------------------------------------

 SCF Done:  E(RCAM-B3LYP) =  -4069.81167726     A.U. after   19 cycles

 Excitation energies and oscillator strengths:

 Excited State   1:      Singlet-A      1.6696 eV  742.58 nm  f=0.0144  <S**2>=0.000
     309 -> 315       -0.10503
     310 -> 316        0.13666
     311 -> 313       -0.41664
     312 -> 314        0.54545
 This state for optimization and/or second-order correction.
 Total Energy, E(TD-HF/TD-DFT) =  -4069.75031877
 Copying the excited state density for this state as the 1-particle RhoCI density.

 Excited State   2:      Singlet-A      1.6853 eV  735.68 nm  f=0.7416  <S**2>=0.000
     309 -> 315        0.14065
     310 -> 316        0.10679
     311 -> 313        0.54460
     312 -> 314        0.41609

 Excited State   3:      Singlet-A      2.1853 eV  567.35 nm  f=0.0616  <S**2>=0.000
     309 -> 313       -0.13491
     310 -> 314        0.62844
     312 -> 316       -0.26648

 Excited State   4:      Singlet-A      2.1928 eV  565.42 nm  f=0.1326  <S**2>=0.000
     309 -> 313        0.62643
     310 -> 314        0.13389
     311 -> 315       -0.27236

 Excited State   5:      Singlet-A      2.7539 eV  450.22 nm  f=0.0000  <S**2>=0.000
     312 -> 313        0.70708

 The electronic state is 1-A.
 Alpha  occ. eigenvalues --  -46.87862 -46.87583 -19.26339 -19.26251 -19.19077
 Alpha  occ. eigenvalues --  -19.19069 -19.18885 -19.18654 -19.18220 -19.17957
 Alpha  occ. eigenvalues --  -14.42517 -14.42419 -14.41512 -14.41283 -14.39469
 Alpha  occ. eigenvalues --  -14.39277 -14.38649 -14.38520 -10.39137 -10.38997
 Alpha  occ. eigenvalues --  -10.35520 -10.35333 -10.34441 -10.34133 -10.31732
 Alpha  occ. eigenvalues --  -10.31663 -10.31469 -10.31225 -10.30979 -10.30945
 Alpha  occ. eigenvalues --  -10.30632 -10.30569 -10.30320 -10.30280 -10.30270
 Alpha  occ. eigenvalues --  -10.30072 -10.29978 -10.29817 -10.29693 -10.29365
 Alpha  occ. eigenvalues --  -10.29326 -10.29320 -10.28825 -10.28637 -10.28631
 Alpha  occ. eigenvalues --  -10.28590 -10.28430 -10.28326 -10.28188 -10.28051
 Alpha  occ. eigenvalues --  -10.27923 -10.27854 -10.27793 -10.27650 -10.27593
 Alpha  occ. eigenvalues --  -10.27563 -10.27553 -10.27501 -10.27468 -10.27453
 Alpha  occ. eigenvalues --  -10.27417 -10.27403 -10.27394 -10.27310 -10.27214
 Alpha  occ. eigenvalues --  -10.26949 -10.26798 -10.26620 -10.26494 -10.26371
 Alpha  occ. eigenvalues --  -10.26298 -10.26230 -10.26080 -10.26079 -10.25911
 Alpha  occ. eigenvalues --  -10.25882 -10.25860 -10.25763 -10.25482 -10.25333
 Alpha  occ. eigenvalues --  -10.24892 -10.24849 -10.24791 -10.24737 -10.24676
 Alpha  occ. eigenvalues --  -10.24614  -3.16605  -3.16333  -1.91487  -1.91215
 Alpha  occ. eigenvalues --   -1.91073  -1.90915  -1.90804  -1.90641  -1.16688
 Alpha  occ. eigenvalues --   -1.16547  -1.08677  -1.08561  -1.07287  -1.06907
 Alpha  occ. eigenvalues --   -1.06853  -1.06699  -1.04647  -1.04416  -1.03824
 Alpha  occ. eigenvalues --   -1.03586  -1.03297  -1.02963  -1.02474  -1.02034
 Alpha  occ. eigenvalues --   -0.92033  -0.91902  -0.89576  -0.89422  -0.89261
 Alpha  occ. eigenvalues --   -0.89066  -0.88343  -0.88151  -0.87925  -0.87740
 Alpha  occ. eigenvalues --   -0.87712  -0.87608  -0.87345  -0.87057  -0.85054
 Alpha  occ. eigenvalues --   -0.84920  -0.83990  -0.83807  -0.83038  -0.82873
 Alpha  occ. eigenvalues --   -0.82717  -0.82576  -0.81645  -0.81511  -0.80660
 Alpha  occ. eigenvalues --   -0.80363  -0.78863  -0.78565  -0.77282  -0.77069
 Alpha  occ. eigenvalues --   -0.76999  -0.76818  -0.75986  -0.75753  -0.74954
 Alpha  occ. eigenvalues --   -0.74730  -0.72834  -0.72622  -0.71733  -0.71500
 Alpha  occ. eigenvalues --   -0.69960  -0.69692  -0.68943  -0.68749  -0.67704
 Alpha  occ. eigenvalues --   -0.67526  -0.67299  -0.67130  -0.65356  -0.65189
 Alpha  occ. eigenvalues --   -0.64915  -0.64692  -0.64684  -0.64573  -0.64327
 Alpha  occ. eigenvalues --   -0.64132  -0.62355  -0.62192  -0.60508  -0.60272
 Alpha  occ. eigenvalues --   -0.59873  -0.59713  -0.59048  -0.58915  -0.58564
 Alpha  occ. eigenvalues --   -0.58346  -0.57641  -0.57463  -0.57368  -0.57162
 Alpha  occ. eigenvalues --   -0.56372  -0.56128  -0.56040  -0.55802  -0.55586
 Alpha  occ. eigenvalues --   -0.55393  -0.55378  -0.55171  -0.54578  -0.54410
 Alpha  occ. eigenvalues --   -0.53968  -0.53829  -0.53363  -0.53291  -0.53155
 Alpha  occ. eigenvalues --   -0.53065  -0.52976  -0.52830  -0.52823  -0.52604
 Alpha  occ. eigenvalues --   -0.52490  -0.52337  -0.51963  -0.51799  -0.51690
 Alpha  occ. eigenvalues --   -0.51583  -0.51254  -0.51120  -0.50649  -0.50419
 Alpha  occ. eigenvalues --   -0.50090  -0.49988  -0.49906  -0.49800  -0.49584
 Alpha  occ. eigenvalues --   -0.49415  -0.49277  -0.49162  -0.49121  -0.49017
 Alpha  occ. eigenvalues --   -0.48652  -0.48523  -0.48505  -0.48475  -0.48304
 Alpha  occ. eigenvalues --   -0.48270  -0.47761  -0.47520  -0.47360  -0.47048
 Alpha  occ. eigenvalues --   -0.46858  -0.46634  -0.46628  -0.46476  -0.46420
 Alpha  occ. eigenvalues --   -0.46218  -0.46197  -0.46007  -0.45876  -0.45736
 Alpha  occ. eigenvalues --   -0.45257  -0.45137  -0.44635  -0.44576  -0.44432
 Alpha  occ. eigenvalues --   -0.44399  -0.44206  -0.44157  -0.44081  -0.44045
 Alpha  occ. eigenvalues --   -0.44009  -0.43866  -0.43552  -0.43470  -0.43452
 Alpha  occ. eigenvalues --   -0.43306  -0.43087  -0.42846  -0.42815  -0.42755
 Alpha  occ. eigenvalues --   -0.42709  -0.42486  -0.42069  -0.41893  -0.41764
 Alpha  occ. eigenvalues --   -0.41606  -0.41585  -0.41383  -0.41204  -0.40938
 Alpha  occ. eigenvalues --   -0.40908  -0.40897  -0.40657  -0.40629  -0.40626
 Alpha  occ. eigenvalues --   -0.40421  -0.40319  -0.40154  -0.39495  -0.39362
 Alpha  occ. eigenvalues --   -0.38528  -0.38280  -0.37827  -0.37581  -0.37380
 Alpha  occ. eigenvalues --   -0.37336  -0.37193  -0.37121  -0.36769  -0.36683
 Alpha  occ. eigenvalues --   -0.36252  -0.36139  -0.34349  -0.34175  -0.33829
 Alpha  occ. eigenvalues --   -0.33773  -0.33249  -0.33098  -0.31415  -0.31213
 Alpha  occ. eigenvalues --   -0.31099  -0.30895  -0.30079  -0.29860  -0.29515
 Alpha  occ. eigenvalues --   -0.29381  -0.29255  -0.29130  -0.24144  -0.23957
 Alpha  occ. eigenvalues --   -0.21191  -0.21040
 Alpha virt. eigenvalues --   -0.08838  -0.08715  -0.01814  -0.01609  -0.00126
 Alpha virt. eigenvalues --    0.00043   0.02144   0.02292   0.03041   0.03294
 Alpha virt. eigenvalues --    0.04648   0.04808   0.05041   0.05259   0.06095

 Mulliken charges:
               1
     1  Mg   0.838419
     2  C   -0.003067
     3  C   -0.094378
     4  C   -0.045849
     5  C   -0.063853
     6  N   -0.256753
     7  C   -0.052524
     8  C   -0.013951
     9  C   -0.086955
    10  C    0.046178
    11  C    0.104799
    12  C    0.053574
    13  C   -0.071653
    14  H    0.035726
    15  N   -0.433113
    16  C    0.168266
    17  C   -0.177372
    18  C   -0.004096
    19  C    0.148595
    20  C    0.110213
    21  C    0.012143
    22  O   -0.249520
    23  C    0.062585
    24  N   -0.341140
    25  C    0.041218
    26  C   -0.028185
    27  C   -0.024052
    28  C    0.074894
    29  C    0.076131
    30  C    0.035087
    31  C   -0.004526
    32  N   -0.310524
    33  C    0.080467
    34  C   -0.169478
    35  C    0.008510
    36  C    0.082991
    37  C    0.127251
    38  C    0.046290
    39  O   -0.187969
    40  C   -0.005386
    41  C    0.212988
    42  O   -0.257212
    43  O   -0.304762
    44  C    0.157609
    45  H   -0.017661
    46  H   -0.016777
    47  H   -0.041236
    48  H    0.001105
    49  H   -0.004270
    50  H    0.025597
    51  H    0.016541
    52  H    0.016665
    53  H    0.010741
    54  H    0.044017
    55  H    0.018178
    56  H    0.017695
    57  H    0.005775
    58  H    0.026918
    59  H    0.039005
    60  H    0.037428
    61  H    0.035661
    62  H    0.030994
    63  H    0.016561
    64  H    0.009624
    65  H    0.023290
    66  H    0.012552
    67  H    0.004878
    68  H    0.006497
    69  H    0.004927
    70  H    0.008731
    71  H    0.018316
    72  H    0.028805
    73  H    0.047945
    74  H    0.009265
    75  H    0.046156
    76  H    0.035274
    77  H    0.043273
    78  H    0.046142
    79  H    0.053773
    80  Mg   0.837844
    81  C   -0.016771
    82  C   -0.087798
    83  C   -0.045545
    84  C   -0.064879
    85  N   -0.254562
    86  C   -0.049570
    87  C   -0.015168
    88  C   -0.090572
    89  C    0.045819
    90  C    0.114365
    91  C    0.062561
    92  C   -0.077757
    93  H    0.034596
    94  N   -0.423460
    95  C    0.162858
    96  C   -0.174748
    97  C   -0.007952
    98  C    0.152076
    99  C    0.099460
   100  C    0.015474
   101  O   -0.253321
   102  C    0.061255
   103  N   -0.350023
   104  C    0.037510
   105  C   -0.019802
   106  C   -0.034855
   107  C    0.089001
   108  C    0.073671
   109  C    0.034749
   110  C   -0.007638
   111  N   -0.324177
   112  C    0.078567
   113  C   -0.163045
   114  C    0.002519
   115  C    0.096185
   116  C    0.131450
   117  C    0.042628
   118  O   -0.187438
   119  C    0.000802
   120  C    0.211197
   121  O   -0.251287
   122  O   -0.305295
   123  C    0.152124
   124  H   -0.019941
   125  H   -0.015730
   126  H   -0.040466
   127  H   -0.000036
   128  H   -0.004767
   129  H    0.023571
   130  H    0.014406
   131  H    0.016022
   132  H    0.013685
   133  H    0.037641
   134  H    0.021064
   135  H    0.019229
   136  H    0.008510
   137  H    0.025872
   138  H    0.039505
   139  H    0.038106
   140  H    0.036202
   141  H    0.033770
   142  H    0.014243
   143  H    0.012468
   144  H    0.024956
   145  H    0.011762
   146  H    0.005662
   147  H    0.006137
   148  H    0.003645
   149  H    0.010841
   150  H    0.017820
   151  H    0.030158
   152  H    0.045990
   153  H    0.008340
   154  H    0.047475
   155  H    0.036039
   156  H    0.044138
   157  H    0.049282
   158  H    0.053349
 Sum of Mulliken charges =  -0.00000

 Dipole moment (field-independent basis, Debye):
    X=             -4.5348    Y=             -3.3093    Z=             -6.9232  Tot=              8.9133
 Quadrupole moment (field-independent basis, Debye-Ang):
   XX=           -518.6911   YY=           -557.8261   ZZ=           -446.4434
   XY=             -7.8393   XZ=             19.2549   YZ=            -40.8123

 Normal termination of Gaussian 16 at Sun Sep 12 05:31:02 2021.
