 Gaussian 16, Revision A.03,
 Gaussian 16:  ES64L-G16RevA.03 25-Dec-2016

 -----------------------------------
 #p cam-b3lyp/Def2SVP td=(nstates=5)
 -----------------------------------

 --------------------------------
 TDDFT excited states in gaussian
 --------------------------------
 Symbolic Z-matrix:
 Charge =  0 Multiplicity = 1

                         Standard orientation:
 ---------------------------------------------------------------------
 Center     Atomic      Atomic             Coordinates (Angstroms)
 Number     Number       Type             X           Y           Z
 ---------------------------------------------------------------------
      1         12           0        5.559964    0.187987    0.193718
      2          6           0        5.494223   -3.119633   -1.172862
      3          6           0        6.478236    1.288619   -2.902805
      4          6           0        6.065616    3.043154    1.477837
      5          6           0        5.754555   -1.278695    3.349132
      6          7           0        5.907661   -0.876923   -1.715658
      7          6           0        5.790420   -2.137602   -2.120769
      8          6           0        5.937568   -2.307336   -3.662492
      9          6           0        6.787395   -0.996263   -3.980107
     10          6           0        6.338966   -0.128541   -2.817397
     11          6           0        8.294642   -1.208536   -3.881871
     12          6           0        4.555209   -2.286063   -4.397586
     13          6           0        4.580531   -2.768230   -5.850936
     14          1           0        3.438518   -3.510934   -6.362352
     15          7           0        5.702655    1.966850   -0.653711
     16          6           0        6.075272    2.228523   -1.929630
     17          6           0        6.024332    3.699158   -2.075650
     18          6           0        5.775604    4.281896   -0.727820
     19          6           0        5.865257    3.106937    0.100922
     20          6           0        6.153918    4.400197   -3.393034
     21          6           0        5.511134    5.677956   -0.259628
     22          8           0        5.553119    6.000089    0.976916
     23          6           0        5.285808    6.690503   -1.307014
     24          7           0        6.087781    0.807116    2.116145
     25          6           0        6.184736    2.105935    2.420533
     26          6           0        6.292562    2.312921    3.902245
     27          6           0        6.003684    0.891221    4.569382
     28          6           0        5.852172    0.050744    3.277518
     29          6           0        7.639330    2.849229    4.406824
     30          6           0        4.873755    0.827545    5.627505
     31          6           0        3.536658    1.076047    4.966054
     32          7           0        5.438769   -1.825335    0.995522
     33          6           0        5.569446   -2.207303    2.338540
     34          6           0        5.522989   -3.680589    2.375125
     35          6           0        5.384254   -4.056347    1.040433
     36          6           0        5.372823   -2.892635    0.219497
     37          6           0        5.663670   -4.490216    3.536654
     38          6           0        5.267770   -5.171292    0.114589
     39          8           0        5.127898   -6.389061    0.236930
     40          6           0        5.456775   -4.615291   -1.365602
     41          6           0        4.351727   -5.187899   -2.210763
     42          8           0        3.163084   -4.860919   -2.016908
     43          8           0        4.883694   -5.838547   -3.256808
     44          6           0        3.840166   -6.405975   -4.151922
     45          1           0        6.994981    1.717267   -3.763721
     46          1           0        6.133695    4.013642    1.973775
     47          1           0        5.724388   -1.802883    4.306091
     48          1           0        6.491582   -3.193977   -3.971297
     49          1           0        6.495800   -0.541692   -4.926711
     50          1           0        8.532963   -2.194465   -3.483039
     51          1           0        8.655220   -0.428949   -3.210513
     52          1           0        8.775440   -1.022566   -4.842613
     53          1           0        4.245291   -1.252310   -4.550448
     54          1           0        3.813160   -2.859084   -3.840507
     55          1           0        5.509801   -3.289887   -6.081671
     56          1           0        4.592472   -1.893248   -6.500909
     57          1           0        6.493920    3.722835   -4.175418
     58          1           0        6.962100    5.124081   -3.290358
     59          1           0        5.234905    4.913070   -3.677126
     60          1           0        6.159234    6.735522   -1.957898
     61          1           0        5.024670    7.610291   -0.784859
     62          1           0        4.452651    6.370940   -1.933655
     63          1           0        5.550208    3.029122    4.252093
     64          1           0        6.877587    0.498393    5.089627
     65          1           0        7.556510    3.776491    4.974301
     66          1           0        8.295864    2.974692    3.546293
     67          1           0        8.211087    2.149095    5.015367
     68          1           0        5.011031    1.607016    6.376188
     69          1           0        4.825882   -0.128483    6.149012
     70          1           0        3.481125    2.163460    4.930280
     71          1           0        2.729701    0.663659    5.572658
     72          1           0        3.528265    0.715326    3.937319
     73          1           0        4.903339   -5.267446    3.460632
     74          1           0        5.540049   -3.902748    4.446161
     75          1           0        6.683844   -4.851701    3.408478
     76          1           0        6.440284   -4.943424   -1.700507
     77          1           0        4.039230   -7.474059   -4.240256
     78          1           0        3.858083   -5.810730   -5.065031
     79          1           0        2.822830   -6.418035   -3.759213
     80         12           0       -5.001288    0.991039    0.341358
     81          6           0       -7.462362   -1.617661    0.211706
     82          6           0       -6.710507    2.524192   -2.181071
     83          6           0       -2.614430    3.069970    0.121362
     84          6           0       -2.913269   -1.251666    2.001526
     85          7           0       -6.835708    0.427983   -0.758700
     86          6           0       -7.719894   -0.554994   -0.679281
     87          6           0       -8.989366   -0.350019   -1.548752
     88          6           0       -8.372264    0.649983   -2.643300
     89          6           0       -7.256117    1.270614   -1.805612
     90          6           0       -7.740418   -0.066838   -3.824940
     91          6           0      -10.158945    0.324425   -0.749224
     92          6           0      -11.523310    0.273896   -1.440381
     93          1           0      -12.716967    0.117943   -0.613748
     94          7           0       -4.939483    2.792228   -0.489590
     95          6           0       -5.721733    3.255531   -1.486952
     96          6           0       -5.265696    4.629013   -1.750997
     97          6           0       -4.042801    4.881072   -0.941234
     98          6           0       -3.800918    3.554938   -0.409290
     99          6           0       -6.019342    5.581123   -2.633572
    100          6           0       -3.219065    6.109186   -0.697524
    101          8           0       -2.061938    6.046110   -0.149899
    102          6           0       -3.766261    7.376598   -1.203223
    103          7           0       -2.972968    0.860497    0.778643
    104          6           0       -2.166273    1.927544    0.642256
    105          6           0       -0.817736    1.676106    1.273612
    106          6           0       -0.969269    0.301999    2.077629
    107          6           0       -2.416307   -0.064771    1.681441
    108          6           0        0.360832    1.571897    0.305879
    109          6           0       -0.599074    0.324665    3.585981
    110          6           0       -1.590652    1.174009    4.348068
    111          7           0       -5.194798   -0.997707    1.163237
    112          6           0       -4.188320   -1.761880    1.793413
    113          6           0       -4.765579   -3.091495    2.078604
    114          6           0       -6.070896   -3.015652    1.569813
    115          6           0       -6.284998   -1.736379    0.989180
    116          6           0       -4.081452   -4.182842    2.684456
    117          6           0       -7.312887   -3.730522    1.382401
    118          8           0       -7.750433   -4.821670    1.745276
    119          6           0       -8.227641   -2.900619    0.381954
    120          6           0       -9.608243   -2.819693    0.973489
    121          8           0       -9.807104   -2.196731    2.031310
    122          8           0      -10.496892   -3.302234    0.085897
    123          6           0      -11.882139   -3.232867    0.622652
    124          1           0       -7.039215    2.973208   -3.118727
    125          1           0       -1.791531    3.786920    0.169291
    126          1           0       -2.358326   -1.973574    2.604494
    127          1           0       -9.359257   -1.246832   -2.031119
    128          1           0       -9.094087    1.407334   -2.937840
    129          1           0       -7.705767   -1.135845   -3.676043
    130          1           0       -6.739695    0.335617   -3.912290
    131          1           0       -8.256330    0.204758   -4.750362
    132          1           0       -9.998984    1.410108   -0.728362
    133          1           0      -10.237241   -0.092770    0.235891
    134          1           0      -11.537089   -0.439099   -2.273687
    135          1           0      -11.709156    1.241631   -1.912577
    136          1           0       -6.787262    5.062891   -3.221059
    137          1           0       -5.310536    5.953299   -3.381202
    138          1           0       -6.430600    6.429960   -2.083111
    139          1           0       -3.917892    7.301456   -2.277385
    140          1           0       -3.079798    8.150852   -0.855116
    141          1           0       -4.754156    7.534271   -0.756212
    142          1           0       -0.564026    2.465116    1.970889
    143          1           0       -0.321332   -0.485175    1.664876
    144          1           0        1.168401    2.296613    0.521958
    145          1           0       -0.011393    1.706371   -0.701053
    146          1           0        0.827438    0.589861    0.250469
    147          1           0        0.380394    0.787748    3.728621
    148          1           0       -0.557376   -0.661894    4.035368
    149          1           0       -1.209809    2.189201    4.201680
    150          1           0       -1.596951    0.902940    5.401874
    151          1           0       -2.584943    1.125560    3.889053
    152          1           0       -4.762660   -4.616112    3.404682
    153          1           0       -3.155891   -3.859353    3.156128
    154          1           0       -3.898086   -4.809209    1.807355
    155          1           0       -8.222579   -3.422277   -0.575872
    156          1           0      -12.295584   -4.244863    0.571667
    157          1           0      -12.392790   -2.449734    0.031309
    158          1           0      -12.000740   -3.008777    1.676297
 ---------------------------------------------------------------------

 SCF Done:  E(RCAM-B3LYP) =  -4069.81228702     A.U. after   19 cycles

 Excitation energies and oscillator strengths:

 Excited State   1:      Singlet-A      1.6549 eV  749.18 nm  f=0.0037  <S**2>=0.000
     309 -> 315       -0.11220
     310 -> 316        0.12579
     311 -> 313       -0.45571
     312 -> 314        0.51439
 This state for optimization and/or second-order correction.
 Total Energy, E(TD-HF/TD-DFT) =  -4069.75146933
 Copying the excited state density for this state as the 1-particle RhoCI density.

 Excited State   2:      Singlet-A      1.6979 eV  730.21 nm  f=0.7107  <S**2>=0.000
     309 -> 315        0.13495
     310 -> 316        0.11844
     311 -> 313        0.51250
     312 -> 314        0.45398

 Excited State   3:      Singlet-A      2.1839 eV  567.73 nm  f=0.0923  <S**2>=0.000
     309 -> 313       -0.13205
     310 -> 314        0.62943
     312 -> 316       -0.26558

 Excited State   4:      Singlet-A      2.1959 eV  564.62 nm  f=0.1064  <S**2>=0.000
     309 -> 313        0.62655
     310 -> 314        0.12997
     311 -> 315       -0.27412

 Excited State   5:      Singlet-A      2.4702 eV  501.93 nm  f=0.0000  <S**2>=0.000
     312 -> 313        0.70651

 The electronic state is 1-A.
 Alpha  occ. eigenvalues --  -46.87896 -46.87480 -19.26340 -19.26219 -19.19090
 Alpha  occ. eigenvalues --  -19.19023 -19.18777 -19.18577 -19.18227 -19.17878
 Alpha  occ. eigenvalues --  -14.42527 -14.42322 -14.41540 -14.41171 -14.39473
 Alpha  occ. eigenvalues --  -14.39178 -14.38678 -14.38413 -10.39148 -10.38950
 Alpha  occ. eigenvalues --  -10.35404 -10.35259 -10.34450 -10.34055 -10.31720
 Alpha  occ. eigenvalues --  -10.31642 -10.31489 -10.31129 -10.30966 -10.30872
 Alpha  occ. eigenvalues --  -10.30653 -10.30587 -10.30282 -10.30207 -10.30171
 Alpha  occ. eigenvalues --  -10.30017 -10.29947 -10.29695 -10.29690 -10.29314
 Alpha  occ. eigenvalues --  -10.29259 -10.29217 -10.28807 -10.28587 -10.28583
 Alpha  occ. eigenvalues --  -10.28553 -10.28430 -10.28238 -10.28177 -10.28000
 Alpha  occ. eigenvalues --  -10.27853 -10.27821 -10.27798 -10.27631 -10.27620
 Alpha  occ. eigenvalues --  -10.27548 -10.27497 -10.27482 -10.27474 -10.27350
 Alpha  occ. eigenvalues --  -10.27309 -10.27295 -10.27273 -10.27221 -10.27185
 Alpha  occ. eigenvalues --  -10.26888 -10.26763 -10.26573 -10.26377 -10.26326
 Alpha  occ. eigenvalues --  -10.26287 -10.26282 -10.26110 -10.25921 -10.25905
 Alpha  occ. eigenvalues --  -10.25895 -10.25719 -10.25561 -10.25501 -10.25277
 Alpha  occ. eigenvalues --  -10.24996 -10.24898 -10.24865 -10.24688 -10.24544
 Alpha  occ. eigenvalues --  -10.24512  -3.16632  -3.16230  -1.91514  -1.91112
 Alpha  occ. eigenvalues --   -1.91100  -1.90942  -1.90701  -1.90538  -1.16691
 Alpha  occ. eigenvalues --   -1.16511  -1.08687  -1.08486  -1.07171  -1.06834
 Alpha  occ. eigenvalues --   -1.06807  -1.06710  -1.04654  -1.04324  -1.03841
 Alpha  occ. eigenvalues --   -1.03483  -1.03311  -1.02851  -1.02491  -1.01928
 Alpha  occ. eigenvalues --   -0.92043  -0.91812  -0.89636  -0.89294  -0.89251
 Alpha  occ. eigenvalues --   -0.89005  -0.88394  -0.88027  -0.87942  -0.87744
 Alpha  occ. eigenvalues --   -0.87582  -0.87507  -0.87287  -0.86973  -0.85040
 Alpha  occ. eigenvalues --   -0.84850  -0.84064  -0.83692  -0.82978  -0.82795
 Alpha  occ. eigenvalues --   -0.82682  -0.82507  -0.81650  -0.81434  -0.80651
 Alpha  occ. eigenvalues --   -0.80281  -0.78837  -0.78466  -0.77302  -0.77009
 Alpha  occ. eigenvalues --   -0.76978  -0.76740  -0.75987  -0.75683  -0.74989
 Alpha  occ. eigenvalues --   -0.74640  -0.72852  -0.72509  -0.71742  -0.71416
 Alpha  occ. eigenvalues --   -0.70069  -0.69559  -0.68927  -0.68674  -0.67696
 Alpha  occ. eigenvalues --   -0.67433  -0.67254  -0.67064  -0.65356  -0.65120
 Alpha  occ. eigenvalues --   -0.64932  -0.64700  -0.64591  -0.64490  -0.64374
 Alpha  occ. eigenvalues --   -0.64008  -0.62368  -0.62118  -0.60483  -0.60177
 Alpha  occ. eigenvalues --   -0.59867  -0.59639  -0.59064  -0.58813  -0.58575
 Alpha  occ. eigenvalues --   -0.58251  -0.57651  -0.57387  -0.57380  -0.57060
 Alpha  occ. eigenvalues --   -0.56364  -0.56035  -0.56026  -0.55741  -0.55549
 Alpha  occ. eigenvalues --   -0.55438  -0.55300  -0.55064  -0.54619  -0.54316
 Alpha  occ. eigenvalues --   -0.53955  -0.53769  -0.53362  -0.53243  -0.53059
 Alpha  occ. eigenvalues --   -0.52990  -0.52986  -0.52764  -0.52747  -0.52596
 Alpha  occ. eigenvalues --   -0.52543  -0.52194  -0.51991  -0.51651  -0.51643
 Alpha  occ. eigenvalues --   -0.51518  -0.51279  -0.51023  -0.50557  -0.50349
 Alpha  occ. eigenvalues --   -0.50137  -0.49936  -0.49835  -0.49706  -0.49542
 Alpha  occ. eigenvalues --   -0.49344  -0.49262  -0.49150  -0.49047  -0.48940
 Alpha  occ. eigenvalues --   -0.48659  -0.48538  -0.48444  -0.48398  -0.48201
 Alpha  occ. eigenvalues --   -0.48195  -0.47752  -0.47439  -0.47345  -0.46961
 Alpha  occ. eigenvalues --   -0.46890  -0.46610  -0.46528  -0.46437  -0.46408
 Alpha  occ. eigenvalues --   -0.46245  -0.46092  -0.45906  -0.45891  -0.45639
 Alpha  occ. eigenvalues --   -0.45297  -0.45051  -0.44653  -0.44550  -0.44364
 Alpha  occ. eigenvalues --   -0.44305  -0.44236  -0.44145  -0.44042  -0.43976
 Alpha  occ. eigenvalues --   -0.43910  -0.43790  -0.43564  -0.43457  -0.43396
 Alpha  occ. eigenvalues --   -0.43228  -0.43104  -0.42829  -0.42779  -0.42745
 Alpha  occ. eigenvalues --   -0.42718  -0.42371  -0.42125  -0.41784  -0.41774
 Alpha  occ. eigenvalues --   -0.41599  -0.41497  -0.41299  -0.41207  -0.40960
 Alpha  occ. eigenvalues --   -0.40828  -0.40804  -0.40672  -0.40590  -0.40538
 Alpha  occ. eigenvalues --   -0.40303  -0.40276  -0.40102  -0.39615  -0.39217
 Alpha  occ. eigenvalues --   -0.38571  -0.38170  -0.37810  -0.37515  -0.37417
 Alpha  occ. eigenvalues --   -0.37327  -0.37076  -0.37039  -0.36789  -0.36623
 Alpha  occ. eigenvalues --   -0.36275  -0.36041  -0.34367  -0.34073  -0.33842
 Alpha  occ. eigenvalues --   -0.33716  -0.33263  -0.32992  -0.31318  -0.31135
 Alpha  occ. eigenvalues --   -0.31099  -0.30798  -0.30090  -0.29782  -0.29498
 Alpha  occ. eigenvalues --   -0.29390  -0.29160  -0.29022  -0.24162  -0.23851
 Alpha  occ. eigenvalues --   -0.21203  -0.20936
 Alpha virt. eigenvalues --   -0.08836  -0.08614  -0.01822  -0.01516  -0.00077
 Alpha virt. eigenvalues --    0.00122   0.02132   0.02390   0.02590   0.03398
 Alpha virt. eigenvalues --    0.04642   0.04891   0.05032   0.05309   0.06079

 Mulliken charges:
               1
     1  Mg   0.832348
     2  C   -0.002589
     3  C   -0.093516
     4  C   -0.045748
     5  C   -0.064274
     6  N   -0.256414
     7  C   -0.053127
     8  C   -0.013851
     9  C   -0.087091
    10  C    0.046397
    11  C    0.104754
    12  C    0.053318
    13  C   -0.071891
    14  H    0.036237
    15  N   -0.433581
    16  C    0.168911
    17  C   -0.176573
    18  C   -0.003012
    19  C    0.148081
    20  C    0.110202
    21  C    0.014002
    22  O   -0.248848
    23  C    0.061841
    24  N   -0.340399
    25  C    0.040817
    26  C   -0.028465
    27  C   -0.024937
    28  C    0.073608
    29  C    0.076083
    30  C    0.042391
    31  C   -0.017749
    32  N   -0.310193
    33  C    0.079030
    34  C   -0.170712
    35  C    0.008338
    36  C    0.081576
    37  C    0.127481
    38  C    0.045756
    39  O   -0.188254
    40  C   -0.005370
    41  C    0.213104
    42  O   -0.257794
    43  O   -0.304674
    44  C    0.157549
    45  H   -0.017267
    46  H   -0.016353
    47  H   -0.041946
    48  H    0.001077
    49  H   -0.003804
    50  H    0.025617
    51  H    0.016554
    52  H    0.016890
    53  H    0.011343
    54  H    0.043821
    55  H    0.018007
    56  H    0.018050
    57  H    0.005678
    58  H    0.027102
    59  H    0.040937
    60  H    0.036382
    61  H    0.037203
    62  H    0.033840
    63  H    0.016725
    64  H    0.010059
    65  H    0.023801
    66  H    0.012972
    67  H    0.004935
    68  H    0.006919
    69  H    0.004381
    70  H    0.010346
    71  H    0.020399
    72  H    0.031049
    73  H    0.047166
    74  H    0.008695
    75  H    0.046382
    76  H    0.035441
    77  H    0.043289
    78  H    0.046449
    79  H    0.053794
    80  Mg   0.837947
    81  C   -0.017115
    82  C   -0.088256
    83  C   -0.045953
    84  C   -0.062614
    85  N   -0.254566
    86  C   -0.049639
    87  C   -0.015101
    88  C   -0.090484
    89  C    0.045730
    90  C    0.114525
    91  C    0.062605
    92  C   -0.077656
    93  H    0.034529
    94  N   -0.423295
    95  C    0.162704
    96  C   -0.175415
    97  C   -0.008363
    98  C    0.151908
    99  C    0.099730
   100  C    0.014824
   101  O   -0.253262
   102  C    0.061264
   103  N   -0.349964
   104  C    0.037337
   105  C   -0.020472
   106  C   -0.037041
   107  C    0.089051
   108  C    0.066766
   109  C    0.030677
   110  C   -0.007686
   111  N   -0.324330
   112  C    0.078220
   113  C   -0.162118
   114  C    0.002224
   115  C    0.096503
   116  C    0.131821
   117  C    0.042708
   118  O   -0.187746
   119  C    0.000803
   120  C    0.211191
   121  O   -0.251200
   122  O   -0.305613
   123  C    0.152143
   124  H   -0.020503
   125  H   -0.015733
   126  H   -0.038171
   127  H   -0.000801
   128  H   -0.004804
   129  H    0.022587
   130  H    0.014379
   131  H    0.015577
   132  H    0.013834
   133  H    0.037650
   134  H    0.020651
   135  H    0.019326
   136  H    0.008361
   137  H    0.024981
   138  H    0.039280
   139  H    0.037382
   140  H    0.035948
   141  H    0.033946
   142  H    0.014858
   143  H    0.017196
   144  H    0.030287
   145  H    0.011242
   146  H    0.009301
   147  H    0.010264
   148  H    0.004056
   149  H    0.010818
   150  H    0.016487
   151  H    0.029816
   152  H    0.045337
   153  H    0.009532
   154  H    0.049374
   155  H    0.035069
   156  H    0.043759
   157  H    0.049255
   158  H    0.053436
 Sum of Mulliken charges =  -0.00000

 Dipole moment (field-independent basis, Debye):
    X=              1.8904    Y=              5.1130    Z=             -6.7118  Tot=              8.6467
 Quadrupole moment (field-independent basis, Debye-Ang):
   XX=           -468.8639   YY=           -555.4661   ZZ=           -462.9302
   XY=            -25.2433   XZ=             23.4275   YZ=             -7.7140

 Normal termination of Gaussian 16 at Sat Sep 11 01:07:53 2021.
