 Gaussian 16, Revision A.03,
 Gaussian 16:  ES64L-G16RevA.03 25-Dec-2016

 -----------------------------------
 #p cam-b3lyp/Def2SVP td=(nstates=5)
 -----------------------------------

 --------------------------------
 TDDFT excited states in gaussian
 --------------------------------
 Symbolic Z-matrix:
 Charge =  0 Multiplicity = 1

                         Standard orientation:
 ---------------------------------------------------------------------
 Center     Atomic      Atomic             Coordinates (Angstroms)
 Number     Number       Type             X           Y           Z
 ---------------------------------------------------------------------
      1         12           0        7.807711    0.845255    0.339729
      2          6           0        8.397265   -2.519953   -0.727986
      3          6           0        8.604728    1.832176   -2.827891
      4          6           0        7.736444    3.842786    1.372369
      5          6           0        8.169575   -0.287167    3.615753
      6          7           0        8.406472   -0.293556   -1.461727
      7          6           0        8.536953   -1.583610   -1.754823
      8          6           0        8.761752   -1.852614   -3.272873
      9          6           0        9.364510   -0.437548   -3.692720
     10          6           0        8.726901    0.426322   -2.618892
     11          6           0       10.881145   -0.355568   -3.552724
     12          6           0        7.423268   -2.152064   -4.028201
     13          6           0        7.583287   -2.742143   -5.432322
     14          1           0        6.614869   -3.725558   -5.893200
     15          7           0        7.646284    2.541343   -0.660309
     16          6           0        8.004465    2.759160   -1.948544
     17          6           0        7.687499    4.176712   -2.225603
     18          6           0        7.292806    4.814590   -0.938971
     19          6           0        7.571540    3.751388   -0.007688
     20          6           0        7.727135    4.775680   -3.597979
     21          6           0        6.760374    6.171209   -0.600990
     22          8           0        6.702900    6.598890    0.602488
     23          6           0        6.385296    7.031629   -1.737668
     24          7           0        8.150862    1.712332    2.207364
     25          6           0        7.996608    3.027413    2.396443
     26          6           0        8.017292    3.375414    3.855349
     27          6           0        7.974889    1.986365    4.641796
     28          6           0        8.022246    1.026218    3.427652
     29          6           0        9.225169    4.194470    4.330944
     30          6           0        6.843156    1.802518    5.683813
     31          6           0        5.504837    1.740150    4.982308
     32          7           0        8.034995   -1.080159    1.315521
     33          6           0        8.191281   -1.316066    2.689055
     34          6           0        8.416537   -2.763652    2.855859
     35          6           0        8.391991   -3.270182    1.557911
     36          6           0        8.191922   -2.202722    0.636612
     37          6           0        8.667376   -3.431614    4.086851
     38          6           0        8.512825   -4.461483    0.733254
     39          8           0        8.596418   -5.669169    0.961287
     40          6           0        8.642778   -4.007143   -0.787441
     41          6           0        7.689848   -4.845389   -1.595264
     42          8           0        6.455727   -4.730910   -1.449648
     43          8           0        8.365729   -5.471333   -2.570929
     44          6           0        7.473860   -6.297245   -3.428013
     45          1           0        9.060484    2.275422   -3.715450
     46          1           0        7.608376    4.847312    1.780983
     47          1           0        8.206374   -0.724948    4.614976
     48          1           0        9.479477   -2.643090   -3.492972
     49          1           0        9.024172   -0.127111   -4.680405
     50          1           0       11.284649   -1.242343   -3.064119
     51          1           0       11.070082    0.531557   -2.947906
     52          1           0       11.349570   -0.164999   -4.518663
     53          1           0        6.932800   -1.211054   -4.277203
     54          1           0        6.782497   -2.804377   -3.433873
     55          1           0        8.599749   -3.098715   -5.601350
     56          1           0        7.454069   -1.938464   -6.157306
     57          1           0        8.211018    4.110039   -4.311648
     58          1           0        8.384078    5.643783   -3.547651
     59          1           0        6.738706    5.082042   -3.940734
     60          1           0        7.255592    7.183751   -2.376410
     61          1           0        5.942371    7.927274   -1.303516
     62          1           0        5.645784    6.510299   -2.346180
     63          1           0        7.144734    3.967371    4.128580
     64          1           0        8.889348    1.809043    5.208361
     65          1           0        8.954586    5.134559    4.812320
     66          1           0        9.874210    4.367104    3.472904
     67          1           0        9.896777    3.667415    5.008124
     68          1           0        6.810314    2.654371    6.362204
     69          1           0        6.956122    0.901942    6.287513
     70          1           0        5.250625    2.791081    4.849069
     71          1           0        4.769074    1.237127    5.610665
     72          1           0        5.595841    1.298544    3.989742
     73          1           0        8.066443   -4.340741    4.068554
     74          1           0        8.408609   -2.802806    4.938463
     75          1           0        9.740301   -3.605770    4.007116
     76          1           0        9.680087   -4.172979   -1.076595
     77          1           0        7.869430   -7.312949   -3.417879
     78          1           0        7.410515   -5.788495   -4.390076
     79          1           0        6.464307   -6.465807   -3.051544
     80         12           0       -7.976292   -0.916512    0.211854
     81          6           0       -8.122136    2.350873   -1.265302
     82          6           0       -7.290693    0.619129    3.179404
     83          6           0       -7.397224   -3.781293    1.446821
     84          6           0       -7.536842   -2.196783   -2.999610
     85          7           0       -7.760938    1.215612    0.759488
     86          6           0       -7.898932    2.371290    0.127248
     87          6           0       -7.871655    3.617671    1.052107
     88          6           0       -7.047143    2.989098    2.278463
     89          6           0       -7.411804    1.518023    2.089704
     90          6           0       -5.541727    3.131215    2.127249
     91          6           0       -9.308928    4.064644    1.495344
     92          6           0       -9.380734    5.449468    2.142536
     93          1           0      -10.559358    6.274493    1.892196
     94          7           0       -7.909683   -1.509504    2.104603
     95          6           0       -7.638843   -0.749472    3.186388
     96          6           0       -7.692310   -1.659479    4.341025
     97          6           0       -7.854196   -3.049767    3.835433
     98          6           0       -7.702443   -2.831539    2.410852
     99          6           0       -7.672400   -1.173966    5.761343
    100          6           0       -8.091840   -4.360804    4.521663
    101          8           0       -7.962587   -5.476864    3.904795
    102          6           0       -8.388980   -4.303324    5.960379
    103          7           0       -7.320929   -2.704918   -0.621491
    104          6           0       -7.203276   -3.814841    0.128264
    105          6           0       -6.984548   -5.035021   -0.734125
    106          6           0       -7.222169   -4.546267   -2.238196
    107          6           0       -7.460046   -3.042074   -1.980904
    108          6           0       -5.607754   -5.689686   -0.623516
    109          6           0       -8.271735   -5.328103   -3.074747
    110          6           0       -9.655842   -5.097116   -2.512351
    111          7           0       -8.032129   -0.126875   -1.798470
    112          6           0       -7.794465   -0.831865   -2.998717
    113          6           0       -7.831008    0.154730   -4.097675
    114          6           0       -8.066410    1.378478   -3.453062
    115          6           0       -8.149200    1.172270   -2.049462
    116          6           0       -7.611636   -0.126462   -5.475693
    117          6           0       -8.253094    2.799376   -3.639903
    118          8           0       -8.369893    3.539251   -4.615947
    119          6           0       -8.171536    3.510686   -2.220824
    120          6           0       -9.332411    4.460748   -2.110066
    121          8           0      -10.499467    4.032068   -2.081379
    122          8           0       -8.868095    5.694063   -1.838568
    123          6           0       -9.982901    6.669823   -1.708481
    124          1           0       -6.847830    0.984300    4.106439
    125          1           0       -7.297545   -4.806741    1.810126
    126          1           0       -7.506314   -2.530832   -4.038920
    127          1           0       -7.342557    4.472111    0.647439
    128          1           0       -7.418210    3.354537    3.232473
    129          1           0       -5.269590    3.527744    1.160379
    130          1           0       -5.137936    2.135398    2.255068
    131          1           0       -5.135180    3.728933    2.948095
    132          1           0       -9.631597    3.444748    2.341721
    133          1           0       -9.994380    4.014688    0.671767
    134          1           0       -8.464100    6.029036    1.978732
    135          1           0       -9.428105    5.323680    3.226954
    136          1           0       -7.380446   -0.118244    5.821498
    137          1           0       -6.863614   -1.708905    6.270825
    138          1           0       -8.610208   -1.368374    6.286128
    139          1           0       -7.567649   -3.815126    6.479543
    140          1           0       -8.616437   -5.330201    6.253052
    141          1           0       -9.273884   -3.674697    6.110008
    142          1           0       -7.704301   -5.809280   -0.498364
    143          1           0       -6.304876   -4.620834   -2.840578
    144          1           0       -5.653771   -6.756800   -0.335052
    145          1           0       -5.019042   -5.128052    0.089601
    146          1           0       -4.996362   -5.634040   -1.522575
    147          1           0       -8.084943   -6.402720   -3.007958
    148          1           0       -8.267734   -5.065343   -4.127330
    149          1           0       -9.713954   -5.821544   -1.694489
    150          1           0      -10.413960   -5.293183   -3.267901
    151          1           0       -9.740142   -4.096392   -2.072924
    152          1           0       -8.363732    0.420448   -6.028626
    153          1           0       -7.666866   -1.194210   -5.677287
    154          1           0       -6.596576    0.261788   -5.594793
    155          1           0       -7.212756    4.027933   -2.168262
    156          1           0       -9.782101    7.480477   -2.415740
    157          1           0      -10.023316    6.935947   -0.635497
    158          1           0      -10.968264    6.350421   -2.027077
 ---------------------------------------------------------------------

 SCF Done:  E(RCAM-B3LYP) =  -4069.81181933     A.U. after   19 cycles

 Excitation energies and oscillator strengths:

 Excited State   1:      Singlet-A      1.6716 eV  741.72 nm  f=0.1119  <S**2>=0.000
     310 -> 316        0.14397
     311 -> 313        0.37939
     312 -> 314        0.57187
 This state for optimization and/or second-order correction.
 Total Energy, E(TD-HF/TD-DFT) =  -4069.75039013
 Copying the excited state density for this state as the 1-particle RhoCI density.

 Excited State   2:      Singlet-A      1.6835 eV  736.45 nm  f=0.6419  <S**2>=0.000
     309 -> 315        0.14701
     311 -> 313        0.57117
     312 -> 314       -0.37898

 Excited State   3:      Singlet-A      2.1857 eV  567.25 nm  f=0.0728  <S**2>=0.000
     309 -> 313        0.11965
     310 -> 314        0.63151
     312 -> 316       -0.26795

 Excited State   4:      Singlet-A      2.1930 eV  565.37 nm  f=0.1227  <S**2>=0.000
     309 -> 313        0.62950
     310 -> 314       -0.11880
     311 -> 315       -0.27356

 Excited State   5:      Singlet-A      2.7662 eV  448.21 nm  f=0.0000  <S**2>=0.000
     312 -> 313        0.70710

 The electronic state is 1-A.
 Alpha  occ. eigenvalues --  -46.87836 -46.87591 -19.26316 -19.26310 -19.19123
 Alpha  occ. eigenvalues --  -19.19048 -19.18853 -19.18640 -19.18201 -19.18002
 Alpha  occ. eigenvalues --  -14.42486 -14.42429 -14.41491 -14.41287 -14.39441
 Alpha  occ. eigenvalues --  -14.39283 -14.38625 -14.38534 -10.39108 -10.39051
 Alpha  occ. eigenvalues --  -10.35485 -10.35317 -10.34421 -10.34180 -10.31730
 Alpha  occ. eigenvalues --  -10.31702 -10.31439 -10.31246 -10.30955 -10.30941
 Alpha  occ. eigenvalues --  -10.30606 -10.30548 -10.30331 -10.30299 -10.30251
 Alpha  occ. eigenvalues --  -10.30064 -10.29966 -10.29822 -10.29668 -10.29365
 Alpha  occ. eigenvalues --  -10.29337 -10.29292 -10.28774 -10.28660 -10.28611
 Alpha  occ. eigenvalues --  -10.28553 -10.28400 -10.28339 -10.28141 -10.28076
 Alpha  occ. eigenvalues --  -10.27937 -10.27828 -10.27762 -10.27620 -10.27601
 Alpha  occ. eigenvalues --  -10.27561 -10.27508 -10.27501 -10.27439 -10.27433
 Alpha  occ. eigenvalues --  -10.27418 -10.27401 -10.27398 -10.27281 -10.27189
 Alpha  occ. eigenvalues --  -10.27001 -10.26726 -10.26642 -10.26437 -10.26340
 Alpha  occ. eigenvalues --  -10.26262 -10.26256 -10.26065 -10.26062 -10.25952
 Alpha  occ. eigenvalues --  -10.25882 -10.25865 -10.25809 -10.25490 -10.25268
 Alpha  occ. eigenvalues --  -10.24868 -10.24829 -10.24811 -10.24780 -10.24665
 Alpha  occ. eigenvalues --  -10.24616  -3.16579  -3.16341  -1.91460  -1.91223
 Alpha  occ. eigenvalues --   -1.91047  -1.90889  -1.90812  -1.90649  -1.16659
 Alpha  occ. eigenvalues --   -1.16609  -1.08659  -1.08613  -1.07254  -1.06908
 Alpha  occ. eigenvalues --   -1.06891  -1.06670  -1.04616  -1.04428  -1.03801
 Alpha  occ. eigenvalues --   -1.03594  -1.03273  -1.02968  -1.02450  -1.02042
 Alpha  occ. eigenvalues --   -0.92007  -0.91926  -0.89572  -0.89423  -0.89215
 Alpha  occ. eigenvalues --   -0.89089  -0.88339  -0.88140  -0.87907  -0.87737
 Alpha  occ. eigenvalues --   -0.87708  -0.87617  -0.87306  -0.87052  -0.85012
 Alpha  occ. eigenvalues --   -0.84937  -0.83993  -0.83798  -0.83005  -0.82858
 Alpha  occ. eigenvalues --   -0.82680  -0.82589  -0.81618  -0.81545  -0.80631
 Alpha  occ. eigenvalues --   -0.80384  -0.78831  -0.78570  -0.77258  -0.77080
 Alpha  occ. eigenvalues --   -0.76968  -0.76836  -0.75954  -0.75780  -0.74945
 Alpha  occ. eigenvalues --   -0.74720  -0.72813  -0.72634  -0.71710  -0.71508
 Alpha  occ. eigenvalues --   -0.69971  -0.69681  -0.68904  -0.68765  -0.67678
 Alpha  occ. eigenvalues --   -0.67536  -0.67247  -0.67140  -0.65318  -0.65212
 Alpha  occ. eigenvalues --   -0.64891  -0.64706  -0.64659  -0.64593  -0.64319
 Alpha  occ. eigenvalues --   -0.64130  -0.62332  -0.62227  -0.60480  -0.60268
 Alpha  occ. eigenvalues --   -0.59834  -0.59734  -0.59027  -0.58926  -0.58542
 Alpha  occ. eigenvalues --   -0.58361  -0.57617  -0.57505  -0.57351  -0.57167
 Alpha  occ. eigenvalues --   -0.56344  -0.56144  -0.56007  -0.55837  -0.55554
 Alpha  occ. eigenvalues --   -0.55392  -0.55387  -0.55179  -0.54567  -0.54424
 Alpha  occ. eigenvalues --   -0.53922  -0.53851  -0.53337  -0.53252  -0.53162
 Alpha  occ. eigenvalues --   -0.53081  -0.52951  -0.52844  -0.52786  -0.52600
 Alpha  occ. eigenvalues --   -0.52504  -0.52331  -0.51952  -0.51835  -0.51644
 Alpha  occ. eigenvalues --   -0.51599  -0.51235  -0.51143  -0.50602  -0.50403
 Alpha  occ. eigenvalues --   -0.50084  -0.49951  -0.49911  -0.49786  -0.49545
 Alpha  occ. eigenvalues --   -0.49422  -0.49247  -0.49143  -0.49125  -0.49045
 Alpha  occ. eigenvalues --   -0.48626  -0.48506  -0.48501  -0.48479  -0.48299
 Alpha  occ. eigenvalues --   -0.48269  -0.47730  -0.47529  -0.47332  -0.47046
 Alpha  occ. eigenvalues --   -0.46839  -0.46642  -0.46583  -0.46491  -0.46399
 Alpha  occ. eigenvalues --   -0.46204  -0.46203  -0.46018  -0.45856  -0.45769
 Alpha  occ. eigenvalues --   -0.45250  -0.45122  -0.44613  -0.44543  -0.44457
 Alpha  occ. eigenvalues --   -0.44413  -0.44190  -0.44119  -0.44065  -0.44051
 Alpha  occ. eigenvalues --   -0.44010  -0.43877  -0.43529  -0.43501  -0.43423
 Alpha  occ. eigenvalues --   -0.43320  -0.43065  -0.42882  -0.42840  -0.42742
 Alpha  occ. eigenvalues --   -0.42700  -0.42479  -0.42058  -0.41899  -0.41741
 Alpha  occ. eigenvalues --   -0.41608  -0.41565  -0.41396  -0.41177  -0.40918
 Alpha  occ. eigenvalues --   -0.40907  -0.40858  -0.40656  -0.40632  -0.40620
 Alpha  occ. eigenvalues --   -0.40418  -0.40258  -0.40169  -0.39509  -0.39350
 Alpha  occ. eigenvalues --   -0.38519  -0.38270  -0.37776  -0.37596  -0.37367
 Alpha  occ. eigenvalues --   -0.37294  -0.37194  -0.37137  -0.36749  -0.36724
 Alpha  occ. eigenvalues --   -0.36232  -0.36149  -0.34324  -0.34187  -0.33818
 Alpha  occ. eigenvalues --   -0.33801  -0.33224  -0.33108  -0.31383  -0.31198
 Alpha  occ. eigenvalues --   -0.31073  -0.30904  -0.30061  -0.29908  -0.29485
 Alpha  occ. eigenvalues --   -0.29358  -0.29260  -0.29150  -0.24119  -0.23968
 Alpha  occ. eigenvalues --   -0.21166  -0.21049
 Alpha virt. eigenvalues --   -0.08811  -0.08725  -0.01790  -0.01612  -0.00092
 Alpha virt. eigenvalues --    0.00039   0.02163   0.02266   0.03074   0.03290
 Alpha virt. eigenvalues --    0.04685   0.04796   0.05069   0.05206   0.06153

 Mulliken charges:
               1
     1  Mg   0.838635
     2  C   -0.002909
     3  C   -0.093924
     4  C   -0.045991
     5  C   -0.064072
     6  N   -0.256782
     7  C   -0.052444
     8  C   -0.014019
     9  C   -0.087031
    10  C    0.046314
    11  C    0.104780
    12  C    0.053421
    13  C   -0.071871
    14  H    0.036162
    15  N   -0.433173
    16  C    0.168388
    17  C   -0.176988
    18  C   -0.004021
    19  C    0.148693
    20  C    0.110105
    21  C    0.012207
    22  O   -0.249872
    23  C    0.062478
    24  N   -0.341099
    25  C    0.041247
    26  C   -0.028164
    27  C   -0.023915
    28  C    0.074752
    29  C    0.076168
    30  C    0.035193
    31  C   -0.004431
    32  N   -0.310468
    33  C    0.080336
    34  C   -0.169792
    35  C    0.008406
    36  C    0.082917
    37  C    0.127330
    38  C    0.046119
    39  O   -0.188357
    40  C   -0.005342
    41  C    0.212941
    42  O   -0.257166
    43  O   -0.304769
    44  C    0.157685
    45  H   -0.017407
    46  H   -0.016978
    47  H   -0.041635
    48  H    0.001002
    49  H   -0.003853
    50  H    0.025491
    51  H    0.016429
    52  H    0.016815
    53  H    0.011287
    54  H    0.044050
    55  H    0.017920
    56  H    0.018128
    57  H    0.006042
    58  H    0.026924
    59  H    0.039856
    60  H    0.037510
    61  H    0.035596
    62  H    0.031701
    63  H    0.016247
    64  H    0.009507
    65  H    0.023079
    66  H    0.012717
    67  H    0.004779
    68  H    0.006146
    69  H    0.004724
    70  H    0.008477
    71  H    0.017620
    72  H    0.029201
    73  H    0.047585
    74  H    0.008944
    75  H    0.046068
    76  H    0.035239
    77  H    0.043013
    78  H    0.046465
    79  H    0.053632
    80  Mg   0.837985
    81  C   -0.016921
    82  C   -0.087783
    83  C   -0.045253
    84  C   -0.064720
    85  N   -0.254591
    86  C   -0.049895
    87  C   -0.015082
    88  C   -0.090538
    89  C    0.045834
    90  C    0.114345
    91  C    0.062554
    92  C   -0.077829
    93  H    0.034643
    94  N   -0.423564
    95  C    0.163063
    96  C   -0.174458
    97  C   -0.007589
    98  C    0.152178
    99  C    0.099298
   100  C    0.015682
   101  O   -0.252889
   102  C    0.061185
   103  N   -0.350009
   104  C    0.037719
   105  C   -0.019994
   106  C   -0.034713
   107  C    0.088868
   108  C    0.073371
   109  C    0.034719
   110  C   -0.007642
   111  N   -0.324047
   112  C    0.078368
   113  C   -0.163271
   114  C    0.002071
   115  C    0.096188
   116  C    0.131520
   117  C    0.042182
   118  O   -0.188392
   119  C    0.000981
   120  C    0.211176
   121  O   -0.251059
   122  O   -0.305648
   123  C    0.152093
   124  H   -0.019578
   125  H   -0.015246
   126  H   -0.040618
   127  H   -0.000768
   128  H   -0.004413
   129  H    0.022398
   130  H    0.014792
   131  H    0.016365
   132  H    0.013900
   133  H    0.037570
   134  H    0.020792
   135  H    0.019594
   136  H    0.008723
   137  H    0.026403
   138  H    0.039702
   139  H    0.038385
   140  H    0.036464
   141  H    0.033710
   142  H    0.014317
   143  H    0.012603
   144  H    0.025365
   145  H    0.012386
   146  H    0.006163
   147  H    0.006366
   148  H    0.003408
   149  H    0.010981
   150  H    0.017689
   151  H    0.030019
   152  H    0.045721
   153  H    0.008443
   154  H    0.046667
   155  H    0.034846
   156  H    0.043679
   157  H    0.049539
   158  H    0.053496
 Sum of Mulliken charges =  -0.00000

 Dipole moment (field-independent basis, Debye):
    X=              3.7047    Y=              3.2526    Z=              0.8178  Tot=              4.9973
 Quadrupole moment (field-independent basis, Debye-Ang):
   XX=           -520.7361   YY=           -537.4402   ZZ=           -460.6262
   XY=             20.7121   XZ=            -65.2103   YZ=             34.6304

 Normal termination of Gaussian 16 at Sat Sep  4 13:47:42 2021.
