 Gaussian 16, Revision A.03,
 Gaussian 16:  ES64L-G16RevA.03 25-Dec-2016

 -----------------------------------
 #p cam-b3lyp/Def2SVP td=(nstates=5)
 -----------------------------------

 --------------------------------
 TDDFT excited states in gaussian
 --------------------------------
 Symbolic Z-matrix:
 Charge =  0 Multiplicity = 1

                         Standard orientation:
 ---------------------------------------------------------------------
 Center     Atomic      Atomic             Coordinates (Angstroms)
 Number     Number       Type             X           Y           Z
 ---------------------------------------------------------------------
      1         12           0        8.202885    0.418948    0.638022
      2          6           0        8.473308   -2.616014   -1.240299
      3          6           0        9.249226    2.068701   -2.159575
      4          6           0        8.408899    3.048882    2.398030
      5          6           0        8.286485   -1.533074    3.523899
      6          7           0        8.758098   -0.293553   -1.383048
      7          6           0        8.761481   -1.475002   -1.992425
      8          6           0        9.026420   -1.379057   -3.524735
      9          6           0        9.797988    0.015734   -3.559943
     10          6           0        9.208363    0.651027   -2.313079
     11          6           0       11.306371   -0.117607   -3.376906
     12          6           0        7.700093   -1.321183   -4.354940
     13          6           0        7.860574   -1.554797   -5.859940
     14          1           0        6.813822   -2.271236   -6.572943
     15          7           0        8.273170    2.318487    0.099820
     16          6           0        8.712609    2.809059   -1.084037
     17          6           0        8.564488    4.277776   -0.996808
     18          6           0        8.181642    4.614177    0.402606
     19          6           0        8.299673    3.326382    1.037453
     20          6           0        8.732863    5.192908   -2.170662
     21          6           0        7.784239    5.895251    1.065215
     22          8           0        7.717347    6.011150    2.336697
     23          6           0        7.558142    7.050929    0.178461
     24          7           0        8.550448    0.743785    2.670586
     25          6           0        8.531027    1.978144    3.185335
     26          6           0        8.521182    1.944294    4.684901
     27          6           0        8.291754    0.417168    5.091107
     28          6           0        8.291368   -0.206566    3.673636
     29          6           0        9.787211    2.471148    5.374542
     30          6           0        7.099350    0.111272    6.031862
     31          6           0        5.796379    0.383461    5.314034
     32          7           0        8.174266   -1.702575    1.095589
     33          6           0        8.239752   -2.291969    2.366415
     34          6           0        8.298696   -3.751196    2.163314
     35          6           0        8.280004   -3.909604    0.778972
     36          6           0        8.240083   -2.629401    0.156253
     37          6           0        8.417886   -4.731076    3.188039
     38          6           0        8.309333   -4.861723   -0.319420
     39          8           0        8.250756   -6.089231   -0.404776
     40          6           0        8.558637   -4.058924   -1.671895
     41          6           0        7.559204   -4.550660   -2.683150
     42          8           0        6.339324   -4.333123   -2.535037
     43          8           0        8.208047   -4.986394   -3.773876
     44          6           0        7.272883   -5.461050   -4.828544
     45          1           0        9.791293    2.664038   -2.896921
     46          1           0        8.371560    3.926691    3.046486
     47          1           0        8.228910   -2.208651    4.379314
     48          1           0        9.663698   -2.167265   -3.926018
     49          1           0        9.539802    0.601469   -4.441973
     50          1           0       11.588097   -1.139409   -3.122990
     51          1           0       11.561932    0.561179   -2.563007
     52          1           0       11.837282    0.253088   -4.254115
     53          1           0        7.326705   -0.297199   -4.364914
     54          1           0        6.965329   -2.022301   -3.957595
     55          1           0        8.839161   -1.973705   -6.096144
     56          1           0        7.853244   -0.585584   -6.358711
     57          1           0        9.174514    4.675731   -3.021555
     58          1           0        9.476983    5.937844   -1.889477
     59          1           0        7.800564    5.688637   -2.441591
     60          1           0        8.468669    7.255720   -0.385054
     61          1           0        7.195151    7.854450    0.818337
     62          1           0        6.795689    6.788852   -0.555657
     63          1           0        7.706149    2.546477    5.084304
     64          1           0        9.154141   -0.002048    5.609972
     65          1           0        9.597970    3.285421    6.074436
     66          1           0       10.490493    2.776468    4.600291
     67          1           0       10.365363    1.716449    5.907072
     68          1           0        7.127423    0.763598    6.904002
     69          1           0        7.085699   -0.918744    6.388417
     70          1           0        5.664109    1.456472    5.448141
     71          1           0        4.981885   -0.171637    5.780592
     72          1           0        5.885210    0.197375    4.243535
     73          1           0        7.723440   -5.530006    2.928376
     74          1           0        8.189343   -4.310164    4.166918
     75          1           0        9.468150   -5.003668    3.085591
     76          1           0        9.584214   -4.266847   -1.975346
     77          1           0        7.555091   -6.485836   -5.070221
     78          1           0        7.310058   -4.723495   -5.630438
     79          1           0        6.234537   -5.599615   -4.525270
     80         12           0       -7.654285    0.602012   -0.212676
     81          6           0      -10.294749   -1.748793    0.404359
     82          6           0      -10.032982    2.731422   -1.413524
     83          6           0       -5.313316    2.511813   -1.182179
     84          6           0       -5.424074   -2.070923   -0.047660
     85          7           0       -9.846955    0.403235   -0.424684
     86          6           0      -10.747774   -0.511686   -0.099402
     87          6           0      -12.220869   -0.046501   -0.251476
     88          6           0      -11.996328    1.110326   -1.342447
     89          6           0      -10.546165    1.468506   -1.023958
     90          6           0      -12.060490    0.607245   -2.774970
     91          6           0      -12.806566    0.530259    1.085055
     92          6           0      -14.325487    0.716171    1.094192
     93          1           0      -15.048367    0.478124    2.340482
     94          7           0       -7.684397    2.526004   -0.698379
     95          6           0       -8.741297    3.235779   -1.146128
     96          6           0       -8.240629    4.599318   -1.379067
     97          6           0       -6.764593    4.595848   -1.189284
     98          6           0       -6.522269    3.175669   -1.032883
     99          6           0       -9.147046    5.761090   -1.665631
    100          6           0       -5.739043    5.688526   -1.166708
    101          8           0       -4.483901    5.435262   -1.224207
    102          6           0       -6.249790    7.067165   -1.169557
    103          7           0       -5.684789    0.245017   -0.774772
    104          6           0       -4.864604    1.259001   -1.101978
    105          6           0       -3.432175    0.791484   -1.201790
    106          6           0       -3.427743   -0.703736   -0.634436
    107          6           0       -4.940171   -0.881021   -0.376523
    108          6           0       -2.824091    0.805246   -2.604093
    109          6           0       -2.439187   -1.014488    0.522650
    110          6           0       -2.856404   -0.271623    1.771430
    111          7           0       -7.773791   -1.494178    0.296978
    112          6           0       -6.724107   -2.438513    0.275084
    113          6           0       -7.316351   -3.755120    0.588506
    114          6           0       -8.684065   -3.487031    0.749631
    115          6           0       -8.930145   -2.104624    0.530796
    116          6           0       -6.613469   -4.991684    0.643182
    117          6           0       -9.977218   -4.060993    1.044619
    118          8           0      -10.375061   -5.170215    1.398289
    119          6           0      -11.096652   -2.983400    0.709849
    120          6           0      -12.051305   -2.929275    1.870975
    121          8           0      -11.671400   -2.522614    2.983136
    122          8           0      -13.300169   -3.158185    1.425661
    123          6           0      -14.284572   -3.103869    2.539131
    124          1           0      -10.663773    3.383689   -2.018117
    125          1           0       -4.452316    3.145233   -1.407858
    126          1           0       -4.780261   -2.937167    0.119076
    127          1           0      -12.896821   -0.798447   -0.640626
    128          1           0      -12.648434    1.959912   -1.157203
    129          1           0      -12.129241   -0.469463   -2.821160
    130          1           0      -11.148992    0.948777   -3.247800
    131          1           0      -12.879273    1.096714   -3.310081
    132          1           0      -12.488720    1.575193    1.193781
    133          1           0      -12.511242   -0.072414    1.921835
    134          1           0      -14.810097    0.190573    0.262418
    135          1           0      -14.547176    1.770303    0.910655
    136          1           0      -10.163645    5.427838   -1.908259
    137          1           0       -8.786616    6.227775   -2.588755
    138          1           0       -9.141718    6.506394   -0.867401
    139          1           0       -6.863500    7.223080   -2.053589
    140          1           0       -5.370317    7.704845   -1.061110
    141          1           0       -6.907225    7.198482   -0.302871
    142          1           0       -2.782277    1.402411   -0.587379
    143          1           0       -3.153695   -1.433260   -1.410667
    144          1           0       -1.902293    1.413060   -2.674156
    145          1           0       -3.571989    1.167459   -3.296908
    146          1           0       -2.585269   -0.174825   -3.013523
    147          1           0       -1.437087   -0.659126    0.270333
    148          1           0       -2.358176   -2.072381    0.749161
    149          1           0       -2.426287    0.723249    1.622048
    150          1           0       -2.444850   -0.750570    2.657587
    151          1           0       -3.945664   -0.156596    1.815519
    152          1           0       -6.970761   -5.514361    1.520481
    153          1           0       -5.537397   -4.835941    0.682982
    154          1           0       -6.928967   -5.437409   -0.303955
    155          1           0      -11.589351   -3.298079   -0.210913
    156          1           0      -14.829054   -4.053161    2.530816
    157          1           0      -14.874625   -2.183259    2.371590
    158          1           0      -13.896601   -3.091451    3.550957
 ---------------------------------------------------------------------

 SCF Done:  E(RCAM-B3LYP) =  -4069.81191469     A.U. after   19 cycles

 Excitation energies and oscillator strengths:

 Excited State   1:      Singlet-A      1.6693 eV  742.75 nm  f=0.0201  <S**2>=0.000
     309 -> 315       -0.10192
     310 -> 316        0.13900
     311 -> 313       -0.40441
     312 -> 314        0.55459
 This state for optimization and/or second-order correction.
 Total Energy, E(TD-HF/TD-DFT) =  -4069.75057069
 Copying the excited state density for this state as the 1-particle RhoCI density.

 Excited State   2:      Singlet-A      1.6855 eV  735.61 nm  f=0.7353  <S**2>=0.000
     309 -> 315        0.14311
     310 -> 316        0.10377
     311 -> 313        0.55376
     312 -> 314        0.40388

 Excited State   3:      Singlet-A      2.1855 eV  567.29 nm  f=0.1052  <S**2>=0.000
     310 -> 314        0.64252
     312 -> 316       -0.27282

 Excited State   4:      Singlet-A      2.1932 eV  565.31 nm  f=0.0971  <S**2>=0.000
     309 -> 313        0.64055
     311 -> 315       -0.27866

 Excited State   5:      Singlet-A      2.7756 eV  446.69 nm  f=0.0000  <S**2>=0.000
     312 -> 313        0.70695

 The electronic state is 1-A.
 Alpha  occ. eigenvalues --  -46.87791 -46.87577 -19.26304 -19.26290 -19.19097
 Alpha  occ. eigenvalues --  -19.19044 -19.18782 -19.18652 -19.18168 -19.17976
 Alpha  occ. eigenvalues --  -14.42444 -14.42418 -14.41441 -14.41268 -14.39394
 Alpha  occ. eigenvalues --  -14.39271 -14.38583 -14.38516 -10.39101 -10.39026
 Alpha  occ. eigenvalues --  -10.35414 -10.35331 -10.34389 -10.34153 -10.31703
 Alpha  occ. eigenvalues --  -10.31701 -10.31403 -10.31229 -10.30952 -10.30902
 Alpha  occ. eigenvalues --  -10.30565 -10.30499 -10.30312 -10.30276 -10.30192
 Alpha  occ. eigenvalues --  -10.30044 -10.29913 -10.29797 -10.29620 -10.29355
 Alpha  occ. eigenvalues --  -10.29319 -10.29242 -10.28750 -10.28657 -10.28606
 Alpha  occ. eigenvalues --  -10.28549 -10.28358 -10.28329 -10.28114 -10.28077
 Alpha  occ. eigenvalues --  -10.27920 -10.27783 -10.27719 -10.27591 -10.27570
 Alpha  occ. eigenvalues --  -10.27485 -10.27454 -10.27432 -10.27409 -10.27404
 Alpha  occ. eigenvalues --  -10.27398 -10.27388 -10.27375 -10.27253 -10.27162
 Alpha  occ. eigenvalues --  -10.26979 -10.26715 -10.26636 -10.26371 -10.26357
 Alpha  occ. eigenvalues --  -10.26229 -10.26167 -10.26010 -10.25968 -10.25950
 Alpha  occ. eigenvalues --  -10.25837 -10.25834 -10.25739 -10.25414 -10.25280
 Alpha  occ. eigenvalues --  -10.24826 -10.24792 -10.24777 -10.24677 -10.24604
 Alpha  occ. eigenvalues --  -10.24571  -3.16534  -3.16327  -1.91416  -1.91209
 Alpha  occ. eigenvalues --   -1.91002  -1.90845  -1.90798  -1.90635  -1.16653
 Alpha  occ. eigenvalues --   -1.16583  -1.08628  -1.08584  -1.07182  -1.06905
 Alpha  occ. eigenvalues --   -1.06882  -1.06665  -1.04575  -1.04417  -1.03752
 Alpha  occ. eigenvalues --   -1.03579  -1.03226  -1.02950  -1.02404  -1.02026
 Alpha  occ. eigenvalues --   -0.91969  -0.91908  -0.89509  -0.89384  -0.89187
 Alpha  occ. eigenvalues --   -0.89083  -0.88274  -0.88103  -0.87863  -0.87704
 Alpha  occ. eigenvalues --   -0.87666  -0.87602  -0.87252  -0.87051  -0.84978
 Alpha  occ. eigenvalues --   -0.84929  -0.83925  -0.83757  -0.82938  -0.82856
 Alpha  occ. eigenvalues --   -0.82640  -0.82581  -0.81589  -0.81521  -0.80591
 Alpha  occ. eigenvalues --   -0.80367  -0.78781  -0.78558  -0.77210  -0.77063
 Alpha  occ. eigenvalues --   -0.76933  -0.76814  -0.75921  -0.75767  -0.74887
 Alpha  occ. eigenvalues --   -0.74701  -0.72766  -0.72610  -0.71665  -0.71497
 Alpha  occ. eigenvalues --   -0.69894  -0.69622  -0.68867  -0.68754  -0.67632
 Alpha  occ. eigenvalues --   -0.67521  -0.67213  -0.67136  -0.65285  -0.65200
 Alpha  occ. eigenvalues --   -0.64850  -0.64683  -0.64616  -0.64574  -0.64259
 Alpha  occ. eigenvalues --   -0.64091  -0.62303  -0.62200  -0.60423  -0.60259
 Alpha  occ. eigenvalues --   -0.59800  -0.59725  -0.58981  -0.58906  -0.58497
 Alpha  occ. eigenvalues --   -0.58340  -0.57588  -0.57480  -0.57299  -0.57144
 Alpha  occ. eigenvalues --   -0.56300  -0.56122  -0.55986  -0.55817  -0.55504
 Alpha  occ. eigenvalues --   -0.55383  -0.55334  -0.55146  -0.54523  -0.54388
 Alpha  occ. eigenvalues --   -0.53894  -0.53846  -0.53285  -0.53211  -0.53144
 Alpha  occ. eigenvalues --   -0.53069  -0.52914  -0.52826  -0.52735  -0.52608
 Alpha  occ. eigenvalues --   -0.52426  -0.52256  -0.51909  -0.51787  -0.51610
 Alpha  occ. eigenvalues --   -0.51594  -0.51192  -0.51113  -0.50540  -0.50409
 Alpha  occ. eigenvalues --   -0.50016  -0.49907  -0.49899  -0.49760  -0.49503
 Alpha  occ. eigenvalues --   -0.49420  -0.49207  -0.49131  -0.49092  -0.49030
 Alpha  occ. eigenvalues --   -0.48592  -0.48485  -0.48449  -0.48426  -0.48274
 Alpha  occ. eigenvalues --   -0.48273  -0.47684  -0.47515  -0.47284  -0.47039
 Alpha  occ. eigenvalues --   -0.46790  -0.46617  -0.46553  -0.46483  -0.46351
 Alpha  occ. eigenvalues --   -0.46181  -0.46157  -0.45992  -0.45822  -0.45739
 Alpha  occ. eigenvalues --   -0.45188  -0.45108  -0.44575  -0.44491  -0.44441
 Alpha  occ. eigenvalues --   -0.44393  -0.44133  -0.44082  -0.44054  -0.44008
 Alpha  occ. eigenvalues --   -0.43980  -0.43872  -0.43496  -0.43472  -0.43379
 Alpha  occ. eigenvalues --   -0.43307  -0.43020  -0.42858  -0.42816  -0.42706
 Alpha  occ. eigenvalues --   -0.42649  -0.42444  -0.42003  -0.41859  -0.41698
 Alpha  occ. eigenvalues --   -0.41587  -0.41530  -0.41377  -0.41133  -0.40909
 Alpha  occ. eigenvalues --   -0.40863  -0.40798  -0.40658  -0.40617  -0.40561
 Alpha  occ. eigenvalues --   -0.40378  -0.40234  -0.40168  -0.39428  -0.39288
 Alpha  occ. eigenvalues --   -0.38458  -0.38242  -0.37750  -0.37586  -0.37310
 Alpha  occ. eigenvalues --   -0.37262  -0.37163  -0.37125  -0.36723  -0.36696
 Alpha  occ. eigenvalues --   -0.36193  -0.36123  -0.34280  -0.34169  -0.33795
 Alpha  occ. eigenvalues --   -0.33789  -0.33181  -0.33091  -0.31313  -0.31210
 Alpha  occ. eigenvalues --   -0.31027  -0.30891  -0.30029  -0.29880  -0.29436
 Alpha  occ. eigenvalues --   -0.29315  -0.29251  -0.29130  -0.24074  -0.23952
 Alpha  occ. eigenvalues --   -0.21119  -0.21033
 Alpha virt. eigenvalues --   -0.08764  -0.08711  -0.01739  -0.01599  -0.00041
 Alpha virt. eigenvalues --    0.00040   0.02206   0.02290   0.03107   0.03310
 Alpha virt. eigenvalues --    0.04721   0.04805   0.05081   0.05231   0.06172

 Mulliken charges:
               1
     1  Mg   0.838276
     2  C   -0.003176
     3  C   -0.094085
     4  C   -0.045783
     5  C   -0.063965
     6  N   -0.256794
     7  C   -0.052621
     8  C   -0.013976
     9  C   -0.086988
    10  C    0.046285
    11  C    0.104788
    12  C    0.053455
    13  C   -0.071766
    14  H    0.035849
    15  N   -0.433206
    16  C    0.168451
    17  C   -0.177010
    18  C   -0.003813
    19  C    0.148729
    20  C    0.110135
    21  C    0.012528
    22  O   -0.249416
    23  C    0.062350
    24  N   -0.341096
    25  C    0.041233
    26  C   -0.028248
    27  C   -0.023935
    28  C    0.074700
    29  C    0.076139
    30  C    0.035109
    31  C   -0.004527
    32  N   -0.310378
    33  C    0.080158
    34  C   -0.169910
    35  C    0.008288
    36  C    0.082695
    37  C    0.127362
    38  C    0.045889
    39  O   -0.188568
    40  C   -0.005236
    41  C    0.212969
    42  O   -0.257660
    43  O   -0.304660
    44  C    0.157752
    45  H   -0.017512
    46  H   -0.016636
    47  H   -0.041466
    48  H    0.000937
    49  H   -0.003980
    50  H    0.025486
    51  H    0.016514
    52  H    0.016712
    53  H    0.011218
    54  H    0.043737
    55  H    0.017976
    56  H    0.018096
    57  H    0.005839
    58  H    0.026908
    59  H    0.039991
    60  H    0.037212
    61  H    0.036003
    62  H    0.031975
    63  H    0.016740
    64  H    0.009514
    65  H    0.023367
    66  H    0.012541
    67  H    0.004790
    68  H    0.006581
    69  H    0.004737
    70  H    0.009090
    71  H    0.018033
    72  H    0.028584
    73  H    0.047386
    74  H    0.009144
    75  H    0.046072
    76  H    0.035225
    77  H    0.043060
    78  H    0.046454
    79  H    0.053346
    80  Mg   0.837758
    81  C   -0.016964
    82  C   -0.087996
    83  C   -0.045557
    84  C   -0.064760
    85  N   -0.254554
    86  C   -0.049848
    87  C   -0.015096
    88  C   -0.090473
    89  C    0.045704
    90  C    0.114440
    91  C    0.062562
    92  C   -0.077805
    93  H    0.034760
    94  N   -0.423448
    95  C    0.162861
    96  C   -0.174858
    97  C   -0.007983
    98  C    0.152105
    99  C    0.099464
   100  C    0.015446
   101  O   -0.253387
   102  C    0.061242
   103  N   -0.350123
   104  C    0.037524
   105  C   -0.019866
   106  C   -0.035235
   107  C    0.088882
   108  C    0.073764
   109  C    0.034679
   110  C   -0.007799
   111  N   -0.324164
   112  C    0.078520
   113  C   -0.162881
   114  C    0.002190
   115  C    0.096308
   116  C    0.131387
   117  C    0.042435
   118  O   -0.187868
   119  C    0.000890
   120  C    0.211253
   121  O   -0.251025
   122  O   -0.305657
   123  C    0.152059
   124  H   -0.019966
   125  H   -0.015730
   126  H   -0.039517
   127  H   -0.000754
   128  H   -0.004499
   129  H    0.022413
   130  H    0.014387
   131  H    0.016044
   132  H    0.013902
   133  H    0.037690
   134  H    0.020712
   135  H    0.019490
   136  H    0.008609
   137  H    0.025796
   138  H    0.039589
   139  H    0.038028
   140  H    0.036070
   141  H    0.033924
   142  H    0.014447
   143  H    0.013361
   144  H    0.024886
   145  H    0.010981
   146  H    0.006426
   147  H    0.007547
   148  H    0.004806
   149  H    0.010717
   150  H    0.018205
   151  H    0.029425
   152  H    0.046042
   153  H    0.009359
   154  H    0.047021
   155  H    0.034906
   156  H    0.043837
   157  H    0.049398
   158  H    0.053560
 Sum of Mulliken charges =  -0.00000

 Dipole moment (field-independent basis, Debye):
    X=              0.6088    Y=              6.4557    Z=             -4.9471  Tot=              8.1560
 Quadrupole moment (field-independent basis, Debye-Ang):
   XX=           -426.0849   YY=           -546.8767   ZZ=           -480.2785
   XY=            -29.4274   XZ=              5.6120   YZ=            -10.1930

 Normal termination of Gaussian 16 at Sun Sep 12 09:17:26 2021.
