 Gaussian 16, Revision A.03,
 Gaussian 16:  ES64L-G16RevA.03 25-Dec-2016

 -----------------------------------
 #p cam-b3lyp/Def2SVP td=(nstates=5)
 -----------------------------------

 --------------------------------
 TDDFT excited states in gaussian
 --------------------------------
 Symbolic Z-matrix:
 Charge =  0 Multiplicity = 1

                         Standard orientation:
 ---------------------------------------------------------------------
 Center     Atomic      Atomic             Coordinates (Angstroms)
 Number     Number       Type             X           Y           Z
 ---------------------------------------------------------------------
      1         12           0        7.796347   -0.964852   -0.048288
      2          6           0        8.428202    2.537697   -0.429236
      3          6           0        8.757091   -0.632356    3.208932
      4          6           0        7.682649   -4.124727    0.194370
      5          6           0        7.986955   -1.226380   -3.518293
      6          7           0        8.482300    0.783034    1.124320
      7          6           0        8.623198    2.081420    0.876303
      8          6           0        8.924167    2.924845    2.151225
      9          6           0        9.552306    1.781024    3.067257
     10          6           0        8.863713    0.573992    2.455017
     11          6           0       11.060103    1.624484    2.898303
     12          6           0        7.624916    3.521354    2.789860
     13          6           0        7.854299    4.615700    3.836352
     14          1           0        6.907318    5.717589    3.916457
     15          7           0        7.691817   -2.124299    1.547835
     16          6           0        8.115920   -1.821092    2.798230
     17          6           0        7.818268   -3.007946    3.628569
     18          6           0        7.360666   -4.095726    2.720038
     19          6           0        7.587989   -3.492312    1.431786
     20          6           0        7.929816   -3.016062    5.122302
     21          6           0        6.816277   -5.466126    2.972583
     22          8           0        6.698984   -6.333752    2.040896
     23          6           0        6.502522   -5.800457    4.373591
     24          7           0        8.046787   -2.505443   -1.434468
     25          6           0        7.887532   -3.785279   -1.080009
     26          6           0        7.835008   -4.682059   -2.281244
     27          6           0        7.747895   -3.716651   -3.550162
     28          6           0        7.853834   -2.355643   -2.818927
     29          6           0        9.019831   -5.642917   -2.451418
     30          6           0        6.563912   -3.940492   -4.524071
     31          6           0        5.262882   -3.582992   -3.840980
     32          7           0        7.967111    0.413657   -1.716100
     33          6           0        8.052394    0.084551   -3.076647
     34          6           0        8.263974    1.344147   -3.813342
     35          6           0        8.303904    2.322938   -2.822273
     36          6           0        8.154649    1.710322   -1.545278
     37          6           0        8.449495    1.466566   -5.218700
     38          6           0        8.462593    3.740973   -2.543251
     39          8           0        8.530383    4.758467   -3.234339
     40          6           0        8.671411    3.922779   -0.975077
     41          6           0        7.758071    5.028265   -0.520085
     42          8           0        6.518524    4.886634   -0.548917
     43          8           0        8.480685    5.977330    0.094445
     44          6           0        7.630877    7.089924    0.596556
     45          1           0        9.258982   -0.696264    4.176383
     46          1           0        7.537310   -5.206613    0.223333
     47          1           0        7.971304   -1.220055   -4.609699
     48          1           0        9.649506    3.725550    2.005700
     49          1           0        9.263797    1.892267    4.112297
     50          1           0       11.435189    2.238776    2.079843
     51          1           0       11.220959    0.567423    2.685606
     52          1           0       11.577789    1.823399    3.837031
     53          1           0        7.150951    2.764003    3.414230
     54          1           0        6.952491    3.896359    2.017498
     55          1           0        8.876846    4.992633    3.801325
     56          1           0        7.764908    4.166498    4.825506
     57          1           0        8.447196   -2.130852    5.490089
     58          1           0        8.586263   -3.844406    5.388071
     59          1           0        6.961178   -3.145009    5.605465
     60          1           0        7.404749   -5.702469    4.977687
     61          1           0        6.041068   -6.787072    4.351200
     62          1           0        5.793231   -5.068462    4.760940
     63          1           0        6.951660   -5.318818   -2.255556
     64          1           0        8.631687   -3.793438   -4.183952
     65          1           0        8.728236   -6.691962   -2.507825
     66          1           0        9.712338   -5.473278   -1.627435
     67          1           0        9.654272   -5.438114   -3.313367
     68          1           0        6.499410   -4.990463   -4.807523
     69          1           0        6.642926   -3.354072   -5.439560
     70          1           0        5.019336   -4.491096   -3.290649
     71          1           0        4.494360   -3.356921   -4.580896
     72          1           0        5.402866   -2.786543   -3.109845
     73          1           0        7.847213    2.318964   -5.532775
     74          1           0        8.149783    0.556796   -5.738406
     75          1           0        9.524496    1.639706   -5.266144
     76          1           0        9.721544    4.171689   -0.825457
     77          1           0        8.021990    8.011938    0.166260
     78          1           0        7.618362    7.004185    1.683247
     79          1           0        6.602886    7.113113    0.233187
     80         12           0       -7.965966    0.977733    0.127399
     81          6           0       -8.199723   -2.603210    0.162688
     82          6           0       -7.149493    0.742744   -3.176048
     83          6           0       -7.313171    4.082486    0.170035
     84          6           0       -7.671619    0.854042    3.597808
     85          7           0       -7.736893   -0.761260   -1.220078
     86          6           0       -7.911074   -2.069711   -1.110698
     87          6           0       -7.847092   -2.841766   -2.455831
     88          6           0       -6.962042   -1.794796   -3.292145
     89          6           0       -7.326981   -0.514062   -2.544348
     90          6           0       -5.466272   -2.021769   -3.148971
     91          6           0       -9.264291   -3.039139   -3.099729
     92          6           0       -9.313168   -4.046804   -4.250367
     93          1           0      -10.506901   -4.874409   -4.400556
     94          7           0       -7.806659    2.277177   -1.364129
     95          6           0       -7.489258    2.007601   -2.647814
     96          6           0       -7.483001    3.304796   -3.341651
     97          6           0       -7.660827    4.379785   -2.327997
     98          6           0       -7.577789    3.605832   -1.105633
     99          6           0       -7.398713    3.428260   -4.835325
    100          6           0       -7.858442    5.861217   -2.439898
    101          8           0       -7.752245    6.633442   -1.422446
    102          6           0       -8.087574    6.391776   -3.791753
    103          7           0       -7.340725    2.266503    1.634213
    104          6           0       -7.181564    3.580598    1.398086
    105          6           0       -6.997017    4.347739    2.685651
    106          6           0       -7.308176    3.303520    3.856285
    107          6           0       -7.542041    2.034387    3.007748
    108          6           0       -5.612900    4.958577    2.903525
    109          6           0       -8.391727    3.710015    4.892317
    110          6           0       -9.748980    3.756926    4.228193
    111          7           0       -8.121169   -0.549189    1.648076
    112          6           0       -7.936549   -0.389696    3.038969
    113          6           0       -8.030502   -1.732590    3.647443
    114          6           0       -8.242013   -2.589801    2.557052
    115          6           0       -8.257231   -1.836904    1.351895
    116          6           0       -7.874930   -2.032045    5.030276
    117          6           0       -8.445266   -3.961694    2.150469
    118          8           0       -8.612197   -5.027431    2.742122
    119          6           0       -8.300715   -4.047034    0.569896
    120          6           0       -9.460350   -4.845025    0.039831
    121          8           0      -10.622326   -4.412755    0.137600
    122          8           0       -8.990619   -5.877235   -0.684230
    123          6           0      -10.103474   -6.692136   -1.240391
    124          1           0       -6.665356    0.768763   -4.152686
    125          1           0       -7.190700    5.164892    0.252946
    126          1           0       -7.688385    0.743164    4.684134
    127          1           0       -7.342492   -3.799223   -2.406494
    128          1           0       -7.289646   -1.738634   -4.326980
    129          1           0       -5.242351   -2.778693   -2.412029
    130          1           0       -5.051324   -1.068115   -2.849951
    131          1           0       -5.024734   -2.250408   -4.123187
    132          1           0       -9.543130   -2.124644   -3.638875
    133          1           0       -9.987612   -3.306642   -2.354160
    134          1           0       -8.408563   -4.665361   -4.295291
    135          1           0       -9.308534   -3.496241   -5.194223
    136          1           0       -7.110148    2.478259   -5.301833
    137          1           0       -6.563774    4.102805   -5.053810
    138          1           0       -8.309568    3.839045   -5.276090
    139          1           0       -7.245369    6.132678   -4.428940
    140          1           0       -8.295193    7.455086   -3.657051
    141          1           0       -8.967925    5.897143   -4.217138
    142          1           0       -7.700479    5.168710    2.750900
    143          1           0       -6.419980    3.108544    4.475087
    144          1           0       -5.639266    6.052689    3.065673
    145          1           0       -4.994295    4.715466    2.049849
    146          1           0       -5.045000    4.532902    3.729054
    147          1           0       -8.195982    4.716635    5.269877
    148          1           0       -8.438945    3.047775    5.750341
    149          1           0       -9.764316    4.749393    3.767922
    150          1           0      -10.540850    3.652251    4.967133
    151          1           0       -9.818011    3.018217    3.421225
    152          1           0       -8.655363   -2.736316    5.286052
    153          1           0       -7.933651   -1.133342    5.640743
    154          1           0       -6.868820   -2.459808    5.025213
    155          1           0       -7.343430   -4.522879    0.353691
    156          1           0       -9.940865   -7.722731   -0.910063
    157          1           0      -10.094627   -6.505313   -2.330702
    158          1           0      -11.100993   -6.503400   -0.861195
 ---------------------------------------------------------------------

 SCF Done:  E(RCAM-B3LYP) =  -4069.81179911     A.U. after   19 cycles

 Excitation energies and oscillator strengths:

 Excited State   1:      Singlet-A      1.6700 eV  742.41 nm  f=0.0204  <S**2>=0.000
     309 -> 315        0.10328
     310 -> 316        0.13823
     311 -> 313        0.40955
     312 -> 314        0.55078
 This state for optimization and/or second-order correction.
 Total Energy, E(TD-HF/TD-DFT) =  -4069.75042688
 Copying the excited state density for this state as the 1-particle RhoCI density.

 Excited State   2:      Singlet-A      1.6856 eV  735.57 nm  f=0.7360  <S**2>=0.000
     309 -> 315        0.14203
     310 -> 316       -0.10513
     311 -> 313        0.54995
     312 -> 314       -0.40902

 Excited State   3:      Singlet-A      2.1859 eV  567.20 nm  f=0.0571  <S**2>=0.000
     309 -> 313        0.14196
     310 -> 314        0.62687
     312 -> 316       -0.26607

 Excited State   4:      Singlet-A      2.1932 eV  565.30 nm  f=0.1361  <S**2>=0.000
     309 -> 313        0.62487
     310 -> 314       -0.14088
     311 -> 315       -0.27176

 Excited State   5:      Singlet-A      2.7656 eV  448.31 nm  f=0.0000  <S**2>=0.000
     312 -> 313        0.70710

 The electronic state is 1-A.
 Alpha  occ. eigenvalues --  -46.87835 -46.87589 -19.26314 -19.26298 -19.19108
 Alpha  occ. eigenvalues --  -19.19054 -19.18836 -19.18633 -19.18207 -19.17990
 Alpha  occ. eigenvalues --  -14.42487 -14.42425 -14.41490 -14.41289 -14.39439
 Alpha  occ. eigenvalues --  -14.39279 -14.38627 -14.38531 -10.39113 -10.39037
 Alpha  occ. eigenvalues --  -10.35468 -10.35309 -10.34427 -10.34168 -10.31711
 Alpha  occ. eigenvalues --  -10.31705 -10.31443 -10.31240 -10.30948 -10.30941
 Alpha  occ. eigenvalues --  -10.30610 -10.30547 -10.30329 -10.30293 -10.30247
 Alpha  occ. eigenvalues --  -10.30069 -10.29964 -10.29828 -10.29668 -10.29362
 Alpha  occ. eigenvalues --  -10.29331 -10.29290 -10.28779 -10.28649 -10.28598
 Alpha  occ. eigenvalues --  -10.28562 -10.28400 -10.28332 -10.28147 -10.28065
 Alpha  occ. eigenvalues --  -10.27932 -10.27830 -10.27763 -10.27618 -10.27595
 Alpha  occ. eigenvalues --  -10.27554 -10.27502 -10.27498 -10.27459 -10.27440
 Alpha  occ. eigenvalues --  -10.27414 -10.27393 -10.27375 -10.27310 -10.27193
 Alpha  occ. eigenvalues --  -10.26988 -10.26733 -10.26630 -10.26414 -10.26324
 Alpha  occ. eigenvalues --  -10.26262 -10.26256 -10.26093 -10.26062 -10.25936
 Alpha  occ. eigenvalues --  -10.25897 -10.25869 -10.25808 -10.25478 -10.25320
 Alpha  occ. eigenvalues --  -10.24871 -10.24826 -10.24805 -10.24772 -10.24688
 Alpha  occ. eigenvalues --  -10.24618  -3.16578  -3.16339  -1.91460  -1.91221
 Alpha  occ. eigenvalues --   -1.91046  -1.90888  -1.90810  -1.90647  -1.16664
 Alpha  occ. eigenvalues --   -1.16592  -1.08665  -1.08600  -1.07237  -1.06893
 Alpha  occ. eigenvalues --   -1.06884  -1.06676  -1.04617  -1.04423  -1.03800
 Alpha  occ. eigenvalues --   -1.03592  -1.03272  -1.02969  -1.02450  -1.02041
 Alpha  occ. eigenvalues --   -0.92009  -0.91919  -0.89569  -0.89431  -0.89219
 Alpha  occ. eigenvalues --   -0.89079  -0.88334  -0.88156  -0.87913  -0.87733
 Alpha  occ. eigenvalues --   -0.87709  -0.87614  -0.87301  -0.87040  -0.85014
 Alpha  occ. eigenvalues --   -0.84930  -0.83988  -0.83815  -0.82994  -0.82853
 Alpha  occ. eigenvalues --   -0.82679  -0.82581  -0.81621  -0.81537  -0.80630
 Alpha  occ. eigenvalues --   -0.80377  -0.78830  -0.78562  -0.77258  -0.77077
 Alpha  occ. eigenvalues --   -0.76970  -0.76835  -0.75957  -0.75770  -0.74941
 Alpha  occ. eigenvalues --   -0.74735  -0.72815  -0.72632  -0.71709  -0.71510
 Alpha  occ. eigenvalues --   -0.69965  -0.69700  -0.68905  -0.68758  -0.67676
 Alpha  occ. eigenvalues --   -0.67533  -0.67247  -0.67130  -0.65321  -0.65204
 Alpha  occ. eigenvalues --   -0.64892  -0.64704  -0.64659  -0.64589  -0.64316
 Alpha  occ. eigenvalues --   -0.64141  -0.62333  -0.62220  -0.60475  -0.60265
 Alpha  occ. eigenvalues --   -0.59837  -0.59726  -0.59026  -0.58925  -0.58542
 Alpha  occ. eigenvalues --   -0.58359  -0.57621  -0.57494  -0.57348  -0.57169
 Alpha  occ. eigenvalues --   -0.56346  -0.56137  -0.56010  -0.55826  -0.55551
 Alpha  occ. eigenvalues --   -0.55385  -0.55382  -0.55187  -0.54566  -0.54429
 Alpha  occ. eigenvalues --   -0.53926  -0.53842  -0.53335  -0.53251  -0.53160
 Alpha  occ. eigenvalues --   -0.53072  -0.52951  -0.52837  -0.52781  -0.52586
 Alpha  occ. eigenvalues --   -0.52498  -0.52348  -0.51961  -0.51833  -0.51645
 Alpha  occ. eigenvalues --   -0.51588  -0.51237  -0.51139  -0.50594  -0.50393
 Alpha  occ. eigenvalues --   -0.50078  -0.49946  -0.49905  -0.49798  -0.49543
 Alpha  occ. eigenvalues --   -0.49414  -0.49249  -0.49132  -0.49128  -0.49037
 Alpha  occ. eigenvalues --   -0.48629  -0.48501  -0.48493  -0.48473  -0.48311
 Alpha  occ. eigenvalues --   -0.48262  -0.47729  -0.47524  -0.47330  -0.47044
 Alpha  occ. eigenvalues --   -0.46839  -0.46644  -0.46586  -0.46484  -0.46399
 Alpha  occ. eigenvalues --   -0.46204  -0.46203  -0.46023  -0.45861  -0.45764
 Alpha  occ. eigenvalues --   -0.45245  -0.45139  -0.44616  -0.44539  -0.44451
 Alpha  occ. eigenvalues --   -0.44407  -0.44187  -0.44120  -0.44058  -0.44050
 Alpha  occ. eigenvalues --   -0.44013  -0.43866  -0.43532  -0.43495  -0.43422
 Alpha  occ. eigenvalues --   -0.43318  -0.43065  -0.42871  -0.42838  -0.42739
 Alpha  occ. eigenvalues --   -0.42701  -0.42489  -0.42057  -0.41904  -0.41742
 Alpha  occ. eigenvalues --   -0.41604  -0.41567  -0.41392  -0.41177  -0.40918
 Alpha  occ. eigenvalues --   -0.40907  -0.40847  -0.40651  -0.40626  -0.40617
 Alpha  occ. eigenvalues --   -0.40430  -0.40261  -0.40159  -0.39502  -0.39370
 Alpha  occ. eigenvalues --   -0.38515  -0.38285  -0.37780  -0.37589  -0.37365
 Alpha  occ. eigenvalues --   -0.37296  -0.37201  -0.37130  -0.36750  -0.36716
 Alpha  occ. eigenvalues --   -0.36232  -0.36154  -0.34325  -0.34185  -0.33806
 Alpha  occ. eigenvalues --   -0.33805  -0.33225  -0.33106  -0.31367  -0.31192
 Alpha  occ. eigenvalues --   -0.31072  -0.30902  -0.30067  -0.29896  -0.29483
 Alpha  occ. eigenvalues --   -0.29360  -0.29253  -0.29144  -0.24119  -0.23966
 Alpha  occ. eigenvalues --   -0.21166  -0.21046
 Alpha virt. eigenvalues --   -0.08810  -0.08720  -0.01787  -0.01612  -0.00087
 Alpha virt. eigenvalues --    0.00048   0.02161   0.02272   0.03076   0.03290
 Alpha virt. eigenvalues --    0.04683   0.04800   0.05064   0.05220   0.06148

 Mulliken charges:
               1
     1  Mg   0.838581
     2  C   -0.002919
     3  C   -0.094021
     4  C   -0.045872
     5  C   -0.064086
     6  N   -0.256765
     7  C   -0.052503
     8  C   -0.014008
     9  C   -0.087007
    10  C    0.046337
    11  C    0.104781
    12  C    0.053451
    13  C   -0.071873
    14  H    0.036211
    15  N   -0.433178
    16  C    0.168462
    17  C   -0.177014
    18  C   -0.003881
    19  C    0.148713
    20  C    0.110136
    21  C    0.012373
    22  O   -0.249522
    23  C    0.062422
    24  N   -0.341109
    25  C    0.041242
    26  C   -0.028219
    27  C   -0.023907
    28  C    0.074742
    29  C    0.076137
    30  C    0.035188
    31  C   -0.004438
    32  N   -0.310416
    33  C    0.080269
    34  C   -0.169973
    35  C    0.008345
    36  C    0.082849
    37  C    0.127375
    38  C    0.045994
    39  O   -0.188538
    40  C   -0.005282
    41  C    0.212890
    42  O   -0.257198
    43  O   -0.304777
    44  C    0.157655
    45  H   -0.017438
    46  H   -0.016756
    47  H   -0.041746
    48  H    0.000985
    49  H   -0.003930
    50  H    0.025494
    51  H    0.016466
    52  H    0.016784
    53  H    0.011198
    54  H    0.044077
    55  H    0.017925
    56  H    0.018009
    57  H    0.005934
    58  H    0.027001
    59  H    0.039794
    60  H    0.037391
    61  H    0.036004
    62  H    0.031651
    63  H    0.016512
    64  H    0.009468
    65  H    0.023284
    66  H    0.012692
    67  H    0.004743
    68  H    0.006320
    69  H    0.004497
    70  H    0.008894
    71  H    0.017377
    72  H    0.029099
    73  H    0.047306
    74  H    0.008841
    75  H    0.046070
    76  H    0.035212
    77  H    0.043004
    78  H    0.046477
    79  H    0.053712
    80  Mg   0.837957
    81  C   -0.016836
    82  C   -0.087625
    83  C   -0.045238
    84  C   -0.064935
    85  N   -0.254590
    86  C   -0.049862
    87  C   -0.015091
    88  C   -0.090529
    89  C    0.045791
    90  C    0.114278
    91  C    0.062531
    92  C   -0.077816
    93  H    0.034659
    94  N   -0.423589
    95  C    0.162980
    96  C   -0.174186
    97  C   -0.007602
    98  C    0.152202
    99  C    0.099167
   100  C    0.015777
   101  O   -0.253085
   102  C    0.061155
   103  N   -0.349991
   104  C    0.037643
   105  C   -0.019931
   106  C   -0.034643
   107  C    0.088823
   108  C    0.073563
   109  C    0.034787
   110  C   -0.007635
   111  N   -0.324062
   112  C    0.078375
   113  C   -0.163352
   114  C    0.002158
   115  C    0.096125
   116  C    0.131512
   117  C    0.042231
   118  O   -0.188209
   119  C    0.000939
   120  C    0.211218
   121  O   -0.251113
   122  O   -0.305584
   123  C    0.152080
   124  H   -0.019298
   125  H   -0.015415
   126  H   -0.040821
   127  H   -0.000684
   128  H   -0.004374
   129  H    0.022485
   130  H    0.014944
   131  H    0.016342
   132  H    0.013895
   133  H    0.037570
   134  H    0.020790
   135  H    0.019595
   136  H    0.008853
   137  H    0.026848
   138  H    0.039716
   139  H    0.038705
   140  H    0.036417
   141  H    0.033696
   142  H    0.014290
   143  H    0.012181
   144  H    0.025078
   145  H    0.012417
   146  H    0.005475
   147  H    0.006079
   148  H    0.003358
   149  H    0.010946
   150  H    0.017697
   151  H    0.030204
   152  H    0.045780
   153  H    0.008254
   154  H    0.046686
   155  H    0.035069
   156  H    0.043801
   157  H    0.049505
   158  H    0.053469
 Sum of Mulliken charges =  -0.00000

 Dipole moment (field-independent basis, Debye):
    X=              4.0530    Y=             -0.2220    Z=              0.1658  Tot=              4.0624
 Quadrupole moment (field-independent basis, Debye-Ang):
   XX=           -521.2925   YY=           -550.1815   ZZ=           -447.5576
   XY=            -23.7070   XZ=             69.6745   YZ=             46.0052

 Normal termination of Gaussian 16 at Sat Sep 11 21:59:43 2021.
