 Gaussian 16, Revision A.03,
 Gaussian 16:  ES64L-G16RevA.03 25-Dec-2016

 -----------------------------------
 #p cam-b3lyp/Def2SVP td=(nstates=5)
 -----------------------------------

 --------------------------------
 TDDFT excited states in gaussian
 --------------------------------
 Symbolic Z-matrix:
 Charge =  0 Multiplicity = 1

                         Standard orientation:
 ---------------------------------------------------------------------
 Center     Atomic      Atomic             Coordinates (Angstroms)
 Number     Number       Type             X           Y           Z
 ---------------------------------------------------------------------
      1         12           0       -7.614547    0.693293   -0.169708
      2          6           0       -7.949757   -2.392628    1.612689
      3          6           0       -8.508360    2.283834    2.713752
      4          6           0       -7.767873    3.389262   -1.832496
      5          6           0       -7.864075   -1.151760   -3.115752
      6          7           0       -8.136430   -0.067216    1.842730
      7          6           0       -8.168857   -1.268228    2.411667
      8          6           0       -8.383135   -1.215669    3.953969
      9          6           0       -9.096547    0.206180    4.060687
     10          6           0       -8.519924    0.861144    2.817927
     11          6           0      -10.613929    0.138498    3.921144
     12          6           0       -7.030989   -1.238870    4.743206
     13          6           0       -7.155027   -1.518548    6.243789
     14          1           0       -6.116804   -2.299944    6.898665
     15          7           0       -7.592009    2.574127    0.434284
     16          6           0       -7.975256    3.039798    1.647362
     17          6           0       -7.770885    4.503741    1.605125
     18          6           0       -7.417428    4.873661    0.206439
     19          6           0       -7.606365    3.614484   -0.467470
     20          6           0       -7.866638    5.383120    2.813956
     21          6           0       -6.989088    6.160595   -0.424795
     22          8           0       -6.956174    6.318214   -1.693120
     23          6           0       -6.689898    7.274789    0.492865
     24          7           0       -8.010235    1.102429   -2.178109
     25          6           0       -7.956793    2.352338   -2.651242
     26          6           0       -7.993794    2.370632   -4.150653
     27          6           0       -7.838408    0.850846   -4.615260
     28          6           0       -7.820130    0.178349   -3.220383
     29          6           0       -9.257934    2.970473   -4.781646
     30          6           0       -6.688350    0.531602   -5.603121
     31          6           0       -5.354317    0.727268   -4.918163
     32          7           0       -7.685182   -1.410408   -0.699326
     33          6           0       -7.812831   -1.951948   -1.986616
     34          6           0       -7.924242   -3.413960   -1.831137
     35          6           0       -7.869968   -3.621331   -0.454222
     36          6           0       -7.759715   -2.366253    0.209792
     37          6           0       -8.113772   -4.351957   -2.884073
     38          6           0       -7.904254   -4.609430    0.611773
     39          8           0       -7.892542   -5.840525    0.653732
     40          6           0       -8.079935   -3.845309    1.997804
     41          6           0       -7.070887   -4.410897    2.959699
     42          8           0       -5.848297   -4.236248    2.780432
     43          8           0       -7.703360   -4.858794    4.055102
     44          6           0       -6.756497   -5.406328    5.062977
     45          1           0       -9.003431    2.873771    3.487587
     46          1           0       -7.714933    4.287092   -2.451799
     47          1           0       -7.859689   -1.798721   -3.994885
     48          1           0       -9.039143   -1.991877    4.348402
     49          1           0       -8.788380    0.750127    4.953366
     50          1           0      -10.944101   -0.861975    3.641926
     51          1           0      -10.866540    0.854840    3.139137
     52          1           0      -11.102653    0.498771    4.826753
     53          1           0       -6.616581   -0.231270    4.775914
     54          1           0       -6.337411   -1.953887    4.299330
     55          1           0       -8.142060   -1.906823    6.496607
     56          1           0       -7.093593   -0.568416    6.774520
     57          1           0       -8.302730    4.854173    3.660469
     58          1           0       -8.588373    6.166009    2.581808
     59          1           0       -6.907365    5.832173    3.071790
     60          1           0       -7.573943    7.495232    1.091545
     61          1           0       -6.314448    8.085381   -0.130696
     62          1           0       -5.916695    6.957523    1.193184
     63          1           0       -7.167683    2.954045   -4.555123
     64          1           0       -8.732298    0.484139   -5.120395
     65          1           0       -9.057401    3.800707   -5.459291
     66          1           0       -9.924563    3.275816   -3.975629
     67          1           0       -9.881860    2.258094   -5.320766
     68          1           0       -6.716593    1.214650   -6.451410
     69          1           0       -6.726963   -0.485049   -5.994506
     70          1           0       -5.183117    1.798311   -5.020087
     71          1           0       -4.577335    0.157368   -5.428775
     72          1           0       -5.418060    0.507452   -3.852281
     73          1           0       -7.444473   -5.186067   -2.673672
     74          1           0       -7.898270   -3.906317   -3.854931
     75          1           0       -9.170562   -4.586630   -2.757657
     76          1           0       -9.103372   -4.023404    2.326409
     77          1           0       -7.072242   -6.427106    5.278734
     78          1           0       -6.739638   -4.696399    5.890093
     79          1           0       -5.734239   -5.574750    4.722445
     80         12           0        8.240038    0.222818    0.193985
     81          6           0        6.103607   -1.710725   -1.945217
     82          6           0        6.743186    3.010340   -1.080293
     83          6           0       10.406165    1.964484    1.724302
     84          6           0       10.301745   -2.576789    0.433260
     85          7           0        6.642037    0.486693   -1.312346
     86          6           0        5.861951   -0.322751   -2.012796
     87          6           0        4.709319    0.390361   -2.769421
     88          6           0        5.363688    1.852590   -2.881492
     89          6           0        6.284094    1.802462   -1.663697
     90          6           0        6.222401    2.034162   -4.122049
     91          6           0        3.377657    0.419027   -1.940037
     92          6           0        2.133571    0.821882   -2.734839
     93          1           0        0.860501    0.187783   -2.403626
     94          7           0        8.228225    2.145645    0.685051
     95          6           0        7.546345    3.137287    0.074335
     96          6           0        7.889494    4.368914    0.801998
     97          6           0        8.957075    4.049068    1.788246
     98          6           0        9.259830    2.681941    1.414912
     99          6           0        7.169410    5.668426    0.587114
    100          6           0        9.607911    4.846419    2.877673
    101          8           0       10.679296    4.446604    3.456566
    102          6           0        9.006869    6.153116    3.182258
    103          7           0       10.191762   -0.165065    0.796186
    104          6           0       10.894605    0.746006    1.491824
    105          6           0       12.162580    0.145984    2.050917
    106          6           0       12.045438   -1.427245    1.788585
    107          6           0       10.712244   -1.455293    1.009367
    108          6           0       13.467077    0.666491    1.447809
    109          6           0       12.201002   -2.359751    3.021031
    110          6           0       11.031702   -2.172515    3.960753
    111          7           0        8.142763   -1.839446   -0.442928
    112          6           0        9.127050   -2.835588   -0.261363
    113          6           0        8.657043   -4.045697   -0.966444
    114          6           0        7.433030   -3.659519   -1.533141
    115          6           0        7.169175   -2.298387   -1.221374
    116          6           0        9.361004   -5.279187   -1.061687
    117          6           0        6.309263   -4.090692   -2.333115
    118          8           0        5.941527   -5.164948   -2.806893
    119          6           0        5.459293   -2.811236   -2.741669
    120          6           0        4.009749   -3.112258   -2.475720
    121          8           0        3.604289   -3.291468   -1.313787
    122          8           0        3.305978   -2.924660   -3.607042
    123          6           0        1.860573   -3.200210   -3.390984
    124          1           0        6.501396    3.950783   -1.576261
    125          1           0       11.135984    2.487318    2.346795
    126          1           0       10.840563   -3.520385    0.542655
    127          1           0        4.503976   -0.001886   -3.758230
    128          1           0        4.614515    2.630851   -2.761439
    129          1           0        6.346864    1.108946   -4.664835
    130          1           0        7.178515    2.396415   -3.767563
    131          1           0        5.812891    2.829973   -4.750791
    132          1           0        3.419897    1.249423   -1.223518
    133          1           0        3.208703   -0.524173   -1.457905
    134          1           0        2.308101    0.791159   -3.817213
    135          1           0        1.914962    1.872396   -2.528324
    136          1           0        6.547135    5.638961   -0.315839
    137          1           0        7.931603    6.423776    0.367186
    138          1           0        6.600864    5.984982    1.464164
    139          1           0        9.012539    6.770670    2.287240
    140          1           0        9.555184    6.532625    4.046668
    141          1           0        7.956060    6.000394    3.452595
    142          1           0       12.235187    0.319961    3.117481
    143          1           0       12.821881   -1.783738    1.095846
    144          1           0       14.157938    1.089763    2.201224
    145          1           0       13.224503    1.406069    0.696338
    146          1           0       14.036091   -0.065133    0.876711
    147          1           0       13.098373   -2.094784    3.585542
    148          1           0       12.282687   -3.409756    2.760627
    149          1           0       11.321767   -1.293079    4.543456
    150          1           0       10.909114   -3.045656    4.598440
    151          1           0       10.120146   -1.916065    3.408531
    152          1           0        8.636072   -6.064988   -0.895873
    153          1           0       10.174614   -5.329293   -0.341064
    154          1           0        9.726770   -5.216116   -2.090036
    155          1           0        5.649618   -2.614979   -3.797527
    156          1           0        1.565105   -3.952931   -4.128414
    157          1           0        1.357442   -2.216546   -3.445924
    158          1           0        1.576068   -3.687490   -2.465752
 ---------------------------------------------------------------------

 SCF Done:  E(RCAM-B3LYP) =  -4069.81162332     A.U. after   19 cycles

 Excitation energies and oscillator strengths:

 Excited State   1:      Singlet-A      1.6693 eV  742.73 nm  f=0.0156  <S**2>=0.000
     309 -> 315       -0.10577
     310 -> 316       -0.13572
     311 -> 313       -0.42062
     312 -> 314        0.54242
 This state for optimization and/or second-order correction.
 Total Energy, E(TD-HF/TD-DFT) =  -4069.75027734
 Copying the excited state density for this state as the 1-particle RhoCI density.

 Excited State   2:      Singlet-A      1.6857 eV  735.49 nm  f=0.7386  <S**2>=0.000
     309 -> 315        0.13966
     310 -> 316       -0.10782
     311 -> 313        0.54153
     312 -> 314        0.42003

 Excited State   3:      Singlet-A      2.1853 eV  567.36 nm  f=0.0887  <S**2>=0.000
     309 -> 313       -0.10443
     310 -> 314        0.63416
     312 -> 316        0.26887

 Excited State   4:      Singlet-A      2.1922 eV  565.56 nm  f=0.1108  <S**2>=0.000
     309 -> 313        0.63218
     310 -> 314        0.10366
     311 -> 315       -0.27440

 Excited State   5:      Singlet-A      2.7622 eV  448.86 nm  f=0.0000  <S**2>=0.000
     312 -> 313        0.70700

 The electronic state is 1-A.
 Alpha  occ. eigenvalues --  -46.87844 -46.87575 -19.26236 -19.26159 -19.18978
 Alpha  occ. eigenvalues --  -19.18978 -19.18890 -19.18652 -19.18181 -19.17942
 Alpha  occ. eigenvalues --  -14.42490 -14.42410 -14.41501 -14.41276 -14.39452
 Alpha  occ. eigenvalues --  -14.39269 -14.38631 -14.38512 -10.39043 -10.38915
 Alpha  occ. eigenvalues --  -10.35525 -10.35331 -10.34399 -10.34116 -10.31606
 Alpha  occ. eigenvalues --  -10.31526 -10.31436 -10.31214 -10.30943 -10.30931
 Alpha  occ. eigenvalues --  -10.30609 -10.30557 -10.30313 -10.30270 -10.30269
 Alpha  occ. eigenvalues --  -10.30068 -10.29974 -10.29812 -10.29678 -10.29359
 Alpha  occ. eigenvalues --  -10.29317 -10.29307 -10.28756 -10.28604 -10.28506
 Alpha  occ. eigenvalues --  -10.28488 -10.28404 -10.28316 -10.28131 -10.28038
 Alpha  occ. eigenvalues --  -10.27916 -10.27834 -10.27768 -10.27635 -10.27583
 Alpha  occ. eigenvalues --  -10.27582 -10.27534 -10.27527 -10.27454 -10.27439
 Alpha  occ. eigenvalues --  -10.27403 -10.27391 -10.27385 -10.27312 -10.27160
 Alpha  occ. eigenvalues --  -10.26927 -10.26690 -10.26549 -10.26501 -10.26372
 Alpha  occ. eigenvalues --  -10.26294 -10.26248 -10.26079 -10.26074 -10.25935
 Alpha  occ. eigenvalues --  -10.25874 -10.25854 -10.25766 -10.25506 -10.25343
 Alpha  occ. eigenvalues --  -10.24869 -10.24840 -10.24833 -10.24784 -10.24671
 Alpha  occ. eigenvalues --  -10.24608  -3.16587  -3.16325  -1.91469  -1.91207
 Alpha  occ. eigenvalues --   -1.91055  -1.90898  -1.90796  -1.90633  -1.16586
 Alpha  occ. eigenvalues --   -1.16456  -1.08633  -1.08542  -1.07294  -1.06906
 Alpha  occ. eigenvalues --   -1.06765  -1.06601  -1.04619  -1.04405  -1.03810
 Alpha  occ. eigenvalues --   -1.03578  -1.03281  -1.02956  -1.02458  -1.02026
 Alpha  occ. eigenvalues --   -0.92001  -0.91888  -0.89587  -0.89416  -0.89202
 Alpha  occ. eigenvalues --   -0.89045  -0.88355  -0.88147  -0.87907  -0.87710
 Alpha  occ. eigenvalues --   -0.87706  -0.87592  -0.87331  -0.87049  -0.85004
 Alpha  occ. eigenvalues --   -0.84894  -0.84009  -0.83800  -0.83040  -0.82867
 Alpha  occ. eigenvalues --   -0.82677  -0.82553  -0.81589  -0.81464  -0.80623
 Alpha  occ. eigenvalues --   -0.80331  -0.78846  -0.78557  -0.77264  -0.77052
 Alpha  occ. eigenvalues --   -0.76952  -0.76785  -0.75937  -0.75725  -0.74952
 Alpha  occ. eigenvalues --   -0.74719  -0.72818  -0.72614  -0.71709  -0.71490
 Alpha  occ. eigenvalues --   -0.69995  -0.69688  -0.68901  -0.68725  -0.67682
 Alpha  occ. eigenvalues --   -0.67509  -0.67240  -0.67093  -0.65306  -0.65161
 Alpha  occ. eigenvalues --   -0.64886  -0.64675  -0.64650  -0.64540  -0.64330
 Alpha  occ. eigenvalues --   -0.64122  -0.62295  -0.62138  -0.60501  -0.60266
 Alpha  occ. eigenvalues --   -0.59828  -0.59697  -0.59028  -0.58901  -0.58541
 Alpha  occ. eigenvalues --   -0.58329  -0.57592  -0.57428  -0.57351  -0.57150
 Alpha  occ. eigenvalues --   -0.56349  -0.56115  -0.55964  -0.55745  -0.55565
 Alpha  occ. eigenvalues --   -0.55384  -0.55353  -0.55149  -0.54548  -0.54374
 Alpha  occ. eigenvalues --   -0.53909  -0.53803  -0.53348  -0.53252  -0.53142
 Alpha  occ. eigenvalues --   -0.53039  -0.52937  -0.52802  -0.52785  -0.52591
 Alpha  occ. eigenvalues --   -0.52525  -0.52330  -0.51947  -0.51794  -0.51637
 Alpha  occ. eigenvalues --   -0.51551  -0.51228  -0.51099  -0.50641  -0.50412
 Alpha  occ. eigenvalues --   -0.50105  -0.49970  -0.49895  -0.49796  -0.49547
 Alpha  occ. eigenvalues --   -0.49400  -0.49244  -0.49113  -0.49101  -0.49001
 Alpha  occ. eigenvalues --   -0.48611  -0.48522  -0.48481  -0.48445  -0.48297
 Alpha  occ. eigenvalues --   -0.48253  -0.47733  -0.47500  -0.47339  -0.47032
 Alpha  occ. eigenvalues --   -0.46843  -0.46618  -0.46571  -0.46447  -0.46405
 Alpha  occ. eigenvalues --   -0.46196  -0.46183  -0.45986  -0.45833  -0.45705
 Alpha  occ. eigenvalues --   -0.45263  -0.45131  -0.44598  -0.44561  -0.44408
 Alpha  occ. eigenvalues --   -0.44380  -0.44204  -0.44111  -0.44045  -0.44033
 Alpha  occ. eigenvalues --   -0.43992  -0.43844  -0.43504  -0.43424  -0.43421
 Alpha  occ. eigenvalues --   -0.43282  -0.43063  -0.42822  -0.42758  -0.42755
 Alpha  occ. eigenvalues --   -0.42648  -0.42480  -0.42063  -0.41873  -0.41737
 Alpha  occ. eigenvalues --   -0.41571  -0.41556  -0.41355  -0.41177  -0.40910
 Alpha  occ. eigenvalues --   -0.40899  -0.40884  -0.40640  -0.40627  -0.40604
 Alpha  occ. eigenvalues --   -0.40411  -0.40238  -0.40108  -0.39537  -0.39357
 Alpha  occ. eigenvalues --   -0.38530  -0.38271  -0.37758  -0.37531  -0.37378
 Alpha  occ. eigenvalues --   -0.37282  -0.37183  -0.37093  -0.36711  -0.36618
 Alpha  occ. eigenvalues --   -0.36209  -0.36108  -0.34328  -0.34164  -0.33745
 Alpha  occ. eigenvalues --   -0.33696  -0.33225  -0.33084  -0.31419  -0.31210
 Alpha  occ. eigenvalues --   -0.31077  -0.30884  -0.30038  -0.29843  -0.29499
 Alpha  occ. eigenvalues --   -0.29361  -0.29247  -0.29123  -0.24124  -0.23948
 Alpha  occ. eigenvalues --   -0.21174  -0.21033
 Alpha virt. eigenvalues --   -0.08820  -0.08707  -0.01801  -0.01602  -0.00108
 Alpha virt. eigenvalues --    0.00051   0.02166   0.02301   0.03052   0.03317
 Alpha virt. eigenvalues --    0.04689   0.04832   0.05127   0.05330   0.06181

 Mulliken charges:
               1
     1  Mg   0.838379
     2  C   -0.002655
     3  C   -0.093908
     4  C   -0.046255
     5  C   -0.064279
     6  N   -0.256774
     7  C   -0.052284
     8  C   -0.014004
     9  C   -0.086994
    10  C    0.046306
    11  C    0.104789
    12  C    0.053407
    13  C   -0.072072
    14  H    0.037034
    15  N   -0.433112
    16  C    0.168264
    17  C   -0.177147
    18  C   -0.004278
    19  C    0.148612
    20  C    0.110142
    21  C    0.011885
    22  O   -0.250098
    23  C    0.062636
    24  N   -0.341090
    25  C    0.041190
    26  C   -0.028122
    27  C   -0.023932
    28  C    0.074705
    29  C    0.076158
    30  C    0.035227
    31  C   -0.004421
    32  N   -0.310522
    33  C    0.080350
    34  C   -0.169829
    35  C    0.008646
    36  C    0.082971
    37  C    0.127264
    38  C    0.046398
    39  O   -0.187657
    40  C   -0.005413
    41  C    0.212973
    42  O   -0.256524
    43  O   -0.304980
    44  C    0.157373
    45  H   -0.017485
    46  H   -0.017184
    47  H   -0.041581
    48  H    0.001175
    49  H   -0.003897
    50  H    0.025580
    51  H    0.016306
    52  H    0.016778
    53  H    0.011099
    54  H    0.044583
    55  H    0.017833
    56  H    0.017846
    57  H    0.006092
    58  H    0.026798
    59  H    0.039283
    60  H    0.037614
    61  H    0.035152
    62  H    0.031170
    63  H    0.015982
    64  H    0.009691
    65  H    0.023001
    66  H    0.012755
    67  H    0.004884
    68  H    0.006296
    69  H    0.004905
    70  H    0.008369
    71  H    0.017189
    72  H    0.028989
    73  H    0.047933
    74  H    0.008870
    75  H    0.046258
    76  H    0.035287
    77  H    0.043172
    78  H    0.046355
    79  H    0.054544
    80  Mg   0.837873
    81  C   -0.016518
    82  C   -0.087760
    83  C   -0.045658
    84  C   -0.065085
    85  N   -0.254552
    86  C   -0.049740
    87  C   -0.015012
    88  C   -0.090501
    89  C    0.045770
    90  C    0.114415
    91  C    0.062525
    92  C   -0.078422
    93  H    0.036610
    94  N   -0.423445
    95  C    0.162803
    96  C   -0.174766
    97  C   -0.008039
    98  C    0.152068
    99  C    0.099422
   100  C    0.015419
   101  O   -0.253439
   102  C    0.061282
   103  N   -0.350119
   104  C    0.037443
   105  C   -0.019752
   106  C   -0.034814
   107  C    0.089030
   108  C    0.073736
   109  C    0.034780
   110  C   -0.007675
   111  N   -0.324182
   112  C    0.078608
   113  C   -0.163097
   114  C    0.002394
   115  C    0.096309
   116  C    0.131445
   117  C    0.042598
   118  O   -0.187328
   119  C    0.000885
   120  C    0.211350
   121  O   -0.250198
   122  O   -0.306141
   123  C    0.151487
   124  H   -0.019771
   125  H   -0.015836
   126  H   -0.040560
   127  H   -0.000650
   128  H   -0.004214
   129  H    0.022369
   130  H    0.014200
   131  H    0.016177
   132  H    0.013715
   133  H    0.038387
   134  H    0.020293
   135  H    0.019465
   136  H    0.008805
   137  H    0.025901
   138  H    0.039423
   139  H    0.038179
   140  H    0.036072
   141  H    0.033700
   142  H    0.014232
   143  H    0.012300
   144  H    0.024922
   145  H    0.011588
   146  H    0.005538
   147  H    0.006059
   148  H    0.003649
   149  H    0.010771
   150  H    0.017899
   151  H    0.030310
   152  H    0.046327
   153  H    0.008384
   154  H    0.046826
   155  H    0.034810
   156  H    0.043855
   157  H    0.049328
   158  H    0.055535
 Sum of Mulliken charges =  -0.00000

 Dipole moment (field-independent basis, Debye):
    X=             -2.4024    Y=              7.2722    Z=              1.1525  Tot=              7.7450
 Quadrupole moment (field-independent basis, Debye-Ang):
   XX=           -474.2730   YY=           -542.3504   ZZ=           -472.6644
   XY=            -20.8783   XZ=            -28.2952   YZ=             -2.6542

 Normal termination of Gaussian 16 at Sun Sep 12 00:56:22 2021.
