 Gaussian 16, Revision A.03,
 Gaussian 16:  ES64L-G16RevA.03 25-Dec-2016

 -----------------------------------
 #p cam-b3lyp/Def2SVP td=(nstates=5)
 -----------------------------------

 --------------------------------
 TDDFT excited states in gaussian
 --------------------------------
 Symbolic Z-matrix:
 Charge =  0 Multiplicity = 1

                         Standard orientation:
 ---------------------------------------------------------------------
 Center     Atomic      Atomic             Coordinates (Angstroms)
 Number     Number       Type             X           Y           Z
 ---------------------------------------------------------------------
      1         12           0      -15.943532    0.768531    0.385495
      2          6           0      -16.259076   -1.912723   -1.964723
      3          6           0      -16.929041   -1.430776    2.801045
      4          6           0      -16.111579    3.217269    2.393495
      5          6           0      -16.094767    2.960930   -2.319349
      6          7           0      -16.494315   -1.374070    0.304599
      7          6           0      -16.516438   -2.300983   -0.648036
      8          6           0      -16.764876   -3.739787   -0.104442
      9          6           0      -17.507006   -3.369750    1.257290
     10          6           0      -16.916122   -1.990196    1.488828
     11          6           0      -19.019487   -3.237960    1.110542
     12          6           0      -15.429868   -4.513227    0.162536
     13          6           0      -15.580962   -6.021526    0.380614
     14          1           0      -14.542609   -6.909078   -0.120805
     15          7           0      -15.969359    0.806387    2.360526
     16          6           0      -16.387357   -0.184701    3.184120
     17          6           0      -16.209659    0.326737    4.560178
     18          6           0      -15.833132    1.764608    4.466115
     19          6           0      -15.983805    1.996728    3.052327
     20          6           0      -16.347960   -0.530382    5.780821
     21          6           0      -15.415528    2.772626    5.489657
     22          8           0      -15.358236    4.022976    5.229046
     23          6           0      -15.157180    2.261374    6.847935
     24          7           0      -16.303431    2.806583    0.112634
     25          6           0      -16.263287    3.658417    1.143047
     26          6           0      -16.268281    5.083209    0.674130
     27          6           0      -16.074390    5.027960   -0.909886
     28          6           0      -16.073569    3.490314   -1.094044
     29          6           0      -17.529564    5.892568    1.005964
     30          6           0      -14.897503    5.842482   -1.503104
     31          6           0      -13.582462    5.238869   -1.063311
     32          7           0      -15.963200    0.588788   -1.777455
     33          6           0      -16.052863    1.632804   -2.709477
     34          6           0      -16.140119    1.013541   -4.044755
     35          6           0      -16.111665   -0.356899   -3.793897
     36          6           0      -16.039354   -0.579860   -2.389137
     37          6           0      -16.289244    1.708284   -5.277447
     38          6           0      -16.150365   -1.684967   -4.384314
     39          8           0      -16.116438   -2.123780   -5.534873
     40          6           0      -16.370218   -2.745912   -3.217315
     41          6           0      -15.371703   -3.853529   -3.415965
     42          8           0      -14.149027   -3.644863   -3.278527
     43          8           0      -16.019126   -5.025792   -3.500724
     44          6           0      -15.084101   -6.170160   -3.668955
     45          1           0      -17.451678   -1.964501    3.597241
     46          1           0      -16.062170    4.093281    3.043571
     47          1           0      -16.059271    3.582805   -3.215710
     48          1           0      -17.414541   -4.355041   -0.727195
     49          1           0      -17.228434   -4.042298    2.068338
     50          1           0      -19.324709   -3.293330    0.065700
     51          1           0      -19.268586   -2.262481    1.528733
     52          1           0      -19.534309   -3.970850    1.732318
     53          1           0      -15.035262   -4.223572    1.136418
     54          1           0      -14.713570   -4.334994   -0.640257
     55          1           0      -16.565750   -6.372367    0.070756
     56          1           0      -15.548847   -6.216534    1.452594
     57          1           0      -16.792194   -1.496290    5.543705
     58          1           0      -17.079100   -0.046747    6.428309
     59          1           0      -15.403075   -0.642487    6.312757
     60          1           0      -16.057915    1.779162    7.228325
     61          1           0      -14.783662    3.108525    7.422104
     62          1           0      -14.393436    1.485038    6.793660
     63          1           0      -15.444744    5.643043    1.115491
     64          1           0      -16.950132    5.399742   -1.442359
     65          1           0      -17.330094    6.799749    1.576876
     66          1           0      -18.219038    5.238631    1.539145
     67          1           0      -18.128226    6.180613    0.142221
     68          1           0      -14.920270    6.866657   -1.132302
     69          1           0      -14.908562    5.883796   -2.592334
     70          1           0      -13.429253    5.679917   -0.079017
     71          1           0      -12.784081    5.526062   -1.748380
     72          1           0      -13.665036    4.160302   -0.927816
     73          1           0      -15.609088    1.229372   -5.981719
     74          1           0      -16.061265    2.767975   -5.164833
     75          1           0      -17.343920    1.527785   -5.484659
     76          1           0      -17.396978   -3.099809   -3.304745
     77          1           0      -15.385195   -6.700528   -4.572441
     78          1           0      -15.098422   -6.722731   -2.729346
     79          1           0      -14.051753   -5.917258   -3.913166
     80         12           0       15.769373   -0.665000    0.511671
     81          6           0       16.804908    1.567711   -2.100176
     82          6           0       17.363771    1.402467    2.706688
     83          6           0       15.262664   -2.835247    2.770139
     84          6           0       15.269173   -3.085168   -1.945621
     85          7           0       16.901653    1.212550    0.220074
     86          6           0       17.176993    1.998699   -0.809731
     87          6           0       17.819922    3.358699   -0.426859
     88          6           0       18.450740    2.936545    0.988307
     89          6           0       17.495999    1.801475    1.352659
     90          6           0       19.853419    2.362982    0.874879
     91          6           0       16.754253    4.498746   -0.263566
     92          6           0       17.332024    5.914097   -0.194978
     93          1           0       16.574731    7.005207   -0.801992
     94          7           0       15.806496   -0.494047    2.488534
     95          6           0       16.488694    0.416888    3.213848
     96          6           0       16.201516    0.106148    4.622796
     97          6           0       15.426528   -1.163279    4.674633
     98          6           0       15.487758   -1.566470    3.284032
     99          6           0       16.583518    1.018999    5.751592
    100          6           0       14.753945   -1.899834    5.793246
    101          8           0       14.341822   -3.105460    5.653752
    102          6           0       14.675804   -1.201329    7.084557
    103          7           0       15.532544   -2.729715    0.455326
    104          6           0       15.271207   -3.426426    1.575250
    105          6           0       14.868841   -4.845854    1.253234
    106          6           0       14.679432   -4.889111   -0.334160
    107          6           0       15.110570   -3.446889   -0.679856
    108          6           0       15.859017   -5.930421    1.677102
    109          6           0       13.312241   -5.399469   -0.866147
    110          6           0       12.220004   -4.417564   -0.508013
    111          7           0       15.808925   -0.720301   -1.647823
    112          6           0       15.595587   -1.843732   -2.476360
    113          6           0       15.839189   -1.411096   -3.867734
    114          6           0       16.202645   -0.061163   -3.749128
    115          6           0       16.206281    0.315204   -2.378789
    116          6           0       15.762334   -2.240150   -5.022234
    117          6           0       16.594368    1.128188   -4.470726
    118          8           0       16.678534    1.434956   -5.659226
    119          6           0       17.124525    2.201834   -3.425453
    120          6           0       16.476483    3.520995   -3.745421
    121          8           0       15.248257    3.669106   -3.618423
    122          8           0       17.433562    4.446928   -3.937822
    123          6           0       16.839972    5.774984   -4.247229
    124          1           0       18.021807    1.856652    3.448037
    125          1           0       14.974792   -3.595369    3.500091
    126          1           0       15.039144   -3.754588   -2.777271
    127          1           0       18.601783    3.696119   -1.096649
    128          1           0       18.375625    3.744796    1.711120
    129          1           0       20.149821    2.223902   -0.154173
    130          1           0       19.825476    1.412930    1.392254
    131          1           0       20.561566    2.986640    1.427974
    132          1           0       16.306593    4.429895    0.736236
    133          1           0       16.017950    4.446345   -1.041856
    134          1           0       18.379829    5.947655   -0.517359
    135          1           0       17.363594    6.225674    0.851905
    136          1           0       17.287317    1.793301    5.422181
    137          1           0       17.155200    0.419436    6.468233
    138          1           0       15.716340    1.445673    6.260153
    139          1           0       15.679279   -0.953960    7.422627
    140          1           0       14.083174   -1.850161    7.732385
    141          1           0       14.150217   -0.251252    6.937148
    142          1           0       13.927730   -5.097857    1.726435
    143          1           0       15.408792   -5.558554   -0.813446
    144          1           0       15.413548   -6.690848    2.345958
    145          1           0       16.704660   -5.453016    2.154079
    146          1           0       16.330518   -6.470887    0.858090
    147          1           0       13.048578   -6.345435   -0.386796
    148          1           0       13.301267   -5.567479   -1.937896
    149          1           0       11.965540   -4.695346    0.519202
    150          1           0       11.365978   -4.535629   -1.171901
    151          1           0       12.604914   -3.391400   -0.486266
    152          1           0       15.241790   -1.670475   -5.780531
    153          1           0       15.251351   -3.176113   -4.806289
    154          1           0       16.825974   -2.390572   -5.225492
    155          1           0       18.210063    2.244861   -3.522082
    156          1           0       17.271712    6.104362   -5.197388
    157          1           0       17.037129    6.404536   -3.359228
    158          1           0       15.780580    5.810173   -4.472803
 ---------------------------------------------------------------------

 SCF Done:  E(RCAM-B3LYP) =  -4069.81175442     A.U. after   19 cycles

 Excitation energies and oscillator strengths:

 Excited State   1:      Singlet-A      1.6753 eV  740.06 nm  f=0.2143  <S**2>=0.000
     310 -> 316        0.16866
     311 -> 313        0.66679
     312 -> 314       -0.16145
     310 <- 316        0.10168
 This state for optimization and/or second-order correction.
 Total Energy, E(TD-HF/TD-DFT) =  -4069.75018759
 Copying the excited state density for this state as the 1-particle RhoCI density.

 Excited State   2:      Singlet-A      1.6801 eV  737.95 nm  f=0.5632  <S**2>=0.000
     309 -> 315        0.17067
     311 -> 313        0.16140
     312 -> 314        0.66642
     309 <- 315        0.10218

 Excited State   3:      Singlet-A      2.1861 eV  567.16 nm  f=0.0965  <S**2>=0.000
     310 -> 313        0.64219
     311 -> 316       -0.27298

 Excited State   4:      Singlet-A      2.1925 eV  565.49 nm  f=0.1038  <S**2>=0.000
     309 -> 314        0.64042
     312 -> 315       -0.27817

 Excited State   5:      Singlet-A      3.0591 eV  405.30 nm  f=0.0000  <S**2>=0.000
     312 -> 313        0.70711

 The electronic state is 1-A.
 Alpha  occ. eigenvalues --  -46.87754 -46.87661 -19.26346 -19.26239 -19.19157
 Alpha  occ. eigenvalues --  -19.18974 -19.18774 -19.18716 -19.18126 -19.18051
 Alpha  occ. eigenvalues --  -14.42498 -14.42407 -14.41407 -14.41360 -14.39360
 Alpha  occ. eigenvalues --  -14.39352 -14.38600 -14.38544 -10.39088 -10.39034
 Alpha  occ. eigenvalues --  -10.35407 -10.35393 -10.34346 -10.34228 -10.31752
 Alpha  occ. eigenvalues --  -10.31634 -10.31362 -10.31309 -10.31024 -10.30866
 Alpha  occ. eigenvalues --  -10.30527 -10.30465 -10.30398 -10.30361 -10.30165
 Alpha  occ. eigenvalues --  -10.30142 -10.29895 -10.29878 -10.29588 -10.29438
 Alpha  occ. eigenvalues --  -10.29401 -10.29212 -10.28719 -10.28706 -10.28652
 Alpha  occ. eigenvalues --  -10.28494 -10.28405 -10.28322 -10.28141 -10.28075
 Alpha  occ. eigenvalues --  -10.28001 -10.27750 -10.27685 -10.27670 -10.27542
 Alpha  occ. eigenvalues --  -10.27518 -10.27484 -10.27469 -10.27466 -10.27459
 Alpha  occ. eigenvalues --  -10.27440 -10.27408 -10.27377 -10.27361 -10.27115
 Alpha  occ. eigenvalues --  -10.27050 -10.26691 -10.26660 -10.26417 -10.26370
 Alpha  occ. eigenvalues --  -10.26194 -10.26140 -10.26135 -10.26028 -10.25977
 Alpha  occ. eigenvalues --  -10.25935 -10.25850 -10.25800 -10.25401 -10.25396
 Alpha  occ. eigenvalues --  -10.24873 -10.24790 -10.24745 -10.24726 -10.24691
 Alpha  occ. eigenvalues --  -10.24641  -3.16496  -3.16411  -1.91378  -1.91293
 Alpha  occ. eigenvalues --   -1.90965  -1.90881  -1.90807  -1.90718  -1.16640
 Alpha  occ. eigenvalues --   -1.16588  -1.08658  -1.08584  -1.07175  -1.06968
 Alpha  occ. eigenvalues --   -1.06942  -1.06597  -1.04538  -1.04496  -1.03718
 Alpha  occ. eigenvalues --   -1.03664  -1.03191  -1.03039  -1.02368  -1.02112
 Alpha  occ. eigenvalues --   -0.91987  -0.91929  -0.89494  -0.89477  -0.89152
 Alpha  occ. eigenvalues --   -0.89145  -0.88244  -0.88220  -0.87827  -0.87794
 Alpha  occ. eigenvalues --   -0.87684  -0.87630  -0.87232  -0.87121  -0.85000
 Alpha  occ. eigenvalues --   -0.84939  -0.83894  -0.83876  -0.82933  -0.82926
 Alpha  occ. eigenvalues --   -0.82653  -0.82606  -0.81595  -0.81542  -0.80553
 Alpha  occ. eigenvalues --   -0.80442  -0.78755  -0.78636  -0.77176  -0.77145
 Alpha  occ. eigenvalues --   -0.76898  -0.76891  -0.75880  -0.75839  -0.74856
 Alpha  occ. eigenvalues --   -0.74804  -0.72732  -0.72699  -0.71630  -0.71582
 Alpha  occ. eigenvalues --   -0.69864  -0.69757  -0.68830  -0.68827  -0.67602
 Alpha  occ. eigenvalues --   -0.67599  -0.67200  -0.67177  -0.65271  -0.65243
 Alpha  occ. eigenvalues --   -0.64811  -0.64770  -0.64653  -0.64578  -0.64227
 Alpha  occ. eigenvalues --   -0.64204  -0.62277  -0.62254  -0.60400  -0.60341
 Alpha  occ. eigenvalues --   -0.59797  -0.59762  -0.58993  -0.58945  -0.58461
 Alpha  occ. eigenvalues --   -0.58426  -0.57553  -0.57541  -0.57266  -0.57237
 Alpha  occ. eigenvalues --   -0.56267  -0.56204  -0.55934  -0.55885  -0.55478
 Alpha  occ. eigenvalues --   -0.55452  -0.55296  -0.55247  -0.54487  -0.54480
 Alpha  occ. eigenvalues --   -0.53913  -0.53852  -0.53256  -0.53228  -0.53179
 Alpha  occ. eigenvalues --   -0.53142  -0.52901  -0.52871  -0.52714  -0.52669
 Alpha  occ. eigenvalues --   -0.52399  -0.52394  -0.51884  -0.51872  -0.51659
 Alpha  occ. eigenvalues --   -0.51574  -0.51201  -0.51153  -0.50531  -0.50477
 Alpha  occ. eigenvalues --   -0.49989  -0.49981  -0.49877  -0.49868  -0.49488
 Alpha  occ. eigenvalues --   -0.49472  -0.49203  -0.49172  -0.49105  -0.49054
 Alpha  occ. eigenvalues --   -0.48558  -0.48550  -0.48420  -0.48403  -0.48377
 Alpha  occ. eigenvalues --   -0.48340  -0.47652  -0.47595  -0.47255  -0.47119
 Alpha  occ. eigenvalues --   -0.46754  -0.46709  -0.46554  -0.46512  -0.46316
 Alpha  occ. eigenvalues --   -0.46271  -0.46120  -0.46086  -0.45821  -0.45779
 Alpha  occ. eigenvalues --   -0.45210  -0.45159  -0.44535  -0.44514  -0.44476
 Alpha  occ. eigenvalues --   -0.44464  -0.44128  -0.44102  -0.44077  -0.44046
 Alpha  occ. eigenvalues --   -0.43977  -0.43940  -0.43552  -0.43451  -0.43386
 Alpha  occ. eigenvalues --   -0.43343  -0.42984  -0.42929  -0.42901  -0.42655
 Alpha  occ. eigenvalues --   -0.42611  -0.42553  -0.41966  -0.41963  -0.41669
 Alpha  occ. eigenvalues --   -0.41661  -0.41491  -0.41458  -0.41099  -0.40990
 Alpha  occ. eigenvalues --   -0.40826  -0.40781  -0.40723  -0.40699  -0.40529
 Alpha  occ. eigenvalues --   -0.40493  -0.40226  -0.40191  -0.39424  -0.39397
 Alpha  occ. eigenvalues --   -0.38426  -0.38351  -0.37705  -0.37653  -0.37278
 Alpha  occ. eigenvalues --   -0.37266  -0.37220  -0.37199  -0.36769  -0.36669
 Alpha  occ. eigenvalues --   -0.36217  -0.36149  -0.34254  -0.34243  -0.33859
 Alpha  occ. eigenvalues --   -0.33725  -0.33176  -0.33143  -0.31303  -0.31275
 Alpha  occ. eigenvalues --   -0.30993  -0.30973  -0.29985  -0.29955  -0.29407
 Alpha  occ. eigenvalues --   -0.29328  -0.29279  -0.29212  -0.24038  -0.24037
 Alpha  occ. eigenvalues --   -0.21117  -0.21085
 Alpha virt. eigenvalues --   -0.08793  -0.08732  -0.01707  -0.01684  -0.00030
 Alpha virt. eigenvalues --   -0.00016   0.02207   0.02243   0.03168   0.03230
 Alpha virt. eigenvalues --    0.04730   0.04760   0.05143   0.05168   0.06184

 Mulliken charges:
               1
     1  Mg   0.838807
     2  C   -0.002941
     3  C   -0.094115
     4  C   -0.045864
     5  C   -0.063973
     6  N   -0.256776
     7  C   -0.052468
     8  C   -0.014016
     9  C   -0.087025
    10  C    0.046342
    11  C    0.104829
    12  C    0.053457
    13  C   -0.071814
    14  H    0.036188
    15  N   -0.433147
    16  C    0.168427
    17  C   -0.177159
    18  C   -0.004007
    19  C    0.148705
    20  C    0.110183
    21  C    0.012279
    22  O   -0.249645
    23  C    0.062479
    24  N   -0.341164
    25  C    0.041252
    26  C   -0.028166
    27  C   -0.023990
    28  C    0.074873
    29  C    0.076191
    30  C    0.035129
    31  C   -0.004509
    32  N   -0.310475
    33  C    0.080436
    34  C   -0.169688
    35  C    0.008362
    36  C    0.083010
    37  C    0.127304
    38  C    0.046136
    39  O   -0.188427
    40  C   -0.005333
    41  C    0.212860
    42  O   -0.257036
    43  O   -0.304823
    44  C    0.157677
    45  H   -0.017637
    46  H   -0.016864
    47  H   -0.041487
    48  H    0.000919
    49  H   -0.004032
    50  H    0.025455
    51  H    0.016424
    52  H    0.016623
    53  H    0.011236
    54  H    0.044168
    55  H    0.017830
    56  H    0.017946
    57  H    0.005862
    58  H    0.026775
    59  H    0.039574
    60  H    0.037308
    61  H    0.035622
    62  H    0.031544
    63  H    0.016565
    64  H    0.009426
    65  H    0.023179
    66  H    0.012515
    67  H    0.004719
    68  H    0.006337
    69  H    0.004740
    70  H    0.008776
    71  H    0.018215
    72  H    0.029006
    73  H    0.047615
    74  H    0.009125
    75  H    0.045969
    76  H    0.035115
    77  H    0.042928
    78  H    0.046395
    79  H    0.053744
    80  Mg   0.837912
    81  C   -0.016825
    82  C   -0.087803
    83  C   -0.045528
    84  C   -0.064894
    85  N   -0.254556
    86  C   -0.049815
    87  C   -0.015114
    88  C   -0.090481
    89  C    0.045749
    90  C    0.114374
    91  C    0.062527
    92  C   -0.077917
    93  H    0.034963
    94  N   -0.423491
    95  C    0.162925
    96  C   -0.174623
    97  C   -0.007816
    98  C    0.152121
    99  C    0.099364
   100  C    0.015575
   101  O   -0.253200
   102  C    0.061194
   103  N   -0.350087
   104  C    0.037527
   105  C   -0.019829
   106  C   -0.034827
   107  C    0.088957
   108  C    0.073665
   109  C    0.034718
   110  C   -0.007680
   111  N   -0.324127
   112  C    0.078469
   113  C   -0.163097
   114  C    0.002243
   115  C    0.096219
   116  C    0.131474
   117  C    0.042407
   118  O   -0.187818
   119  C    0.000922
   120  C    0.211259
   121  O   -0.250955
   122  O   -0.305657
   123  C    0.152013
   124  H   -0.019673
   125  H   -0.015579
   126  H   -0.040421
   127  H   -0.000654
   128  H   -0.004311
   129  H    0.022448
   130  H    0.014405
   131  H    0.016274
   132  H    0.013936
   133  H    0.037715
   134  H    0.020766
   135  H    0.019592
   136  H    0.008760
   137  H    0.026118
   138  H    0.039816
   139  H    0.038231
   140  H    0.036380
   141  H    0.033927
   142  H    0.014424
   143  H    0.012401
   144  H    0.025129
   145  H    0.011606
   146  H    0.005657
   147  H    0.006262
   148  H    0.003690
   149  H    0.010925
   150  H    0.018043
   151  H    0.030105
   152  H    0.046082
   153  H    0.008550
   154  H    0.046914
   155  H    0.035004
   156  H    0.043922
   157  H    0.049487
   158  H    0.053635
 Sum of Mulliken charges =  -0.00000

 Dipole moment (field-independent basis, Debye):
    X=              0.2784    Y=             -0.1931    Z=              7.5036  Tot=              7.5113
 Quadrupole moment (field-independent basis, Debye-Ang):
   XX=           -369.8163   YY=           -464.7528   ZZ=           -539.3394
   XY=             52.2825   XZ=              3.1533   YZ=             -4.6555

 Normal termination of Gaussian 16 at Sun Sep 12 12:01:19 2021.
