 Gaussian 16, Revision A.03,
 Gaussian 16:  ES64L-G16RevA.03 25-Dec-2016

 -----------------------------------
 #p cam-b3lyp/Def2SVP td=(nstates=5)
 -----------------------------------

 --------------------------------
 TDDFT excited states in gaussian
 --------------------------------
 Symbolic Z-matrix:
 Charge =  0 Multiplicity = 1

                         Standard orientation:
 ---------------------------------------------------------------------
 Center     Atomic      Atomic             Coordinates (Angstroms)
 Number     Number       Type             X           Y           Z
 ---------------------------------------------------------------------
      1         12           0      -15.789676    0.701150    0.308690
      2          6           0      -16.042291   -2.314517   -1.602893
      3          6           0      -16.601771   -1.149554    3.057956
      4          6           0      -16.018347    3.414866    1.933521
      5          6           0      -16.120304    2.452650   -2.686071
      6          7           0      -16.239779   -1.450849    0.567448
      7          6           0      -16.244174   -2.510743   -0.234908
      8          6           0      -16.408573   -3.860597    0.525515
      9          6           0      -17.129366   -3.321913    1.841674
     10          6           0      -16.598680   -1.899138    1.844224
     11          6           0      -18.649902   -3.278796    1.729359
     12          6           0      -15.031326   -4.526960    0.858505
     13          6           0      -15.104264   -5.990294    1.304248
     14          1           0      -14.039134   -6.897822    0.905200
     15          7           0      -15.762387    1.034872    2.255671
     16          6           0      -16.109640    0.162098    3.231870
     17          6           0      -15.918344    0.882093    4.509248
     18          6           0      -15.613515    2.304225    4.188759
     19          6           0      -15.814304    2.314092    2.762238
     20          6           0      -15.981677    0.213440    5.848145
     21          6           0      -15.216135    3.471885    5.035395
     22          8           0      -15.225749    4.670018    4.589349
     23          6           0      -14.896078    3.182592    6.444975
     24          7           0      -16.253718    2.657508   -0.252526
     25          6           0      -16.225590    3.655738    0.637266
     26          6           0      -16.311495    4.992115   -0.038495
     27          6           0      -16.159282    4.707319   -1.602297
     28          6           0      -16.090314    3.160946   -1.554927
     29          6           0      -17.600201    5.787303    0.212351
     30          6           0      -15.039480    5.472987   -2.350771
     31          6           0      -13.685460    4.999524   -1.871647
     32          7           0      -15.860852    0.197037   -1.801250
     33          6           0      -16.026022    1.083957   -2.874919
     34          6           0      -16.120742    0.267494   -4.099045
     35          6           0      -16.020063   -1.047036   -3.647690
     36          6           0      -15.898204   -1.052582   -2.228743
     37          6           0      -16.336997    0.761616   -5.415674
     38          6           0      -16.011831   -2.449298   -4.031683
     39          8           0      -15.989018   -3.054515   -5.104383
     40          6           0      -16.148370   -3.330841   -2.712568
     41          6           0      -15.104119   -4.411831   -2.778210
     42          8           0      -13.889429   -4.132540   -2.715851
     43          8           0      -15.697057   -5.610196   -2.664679
     44          6           0      -14.713603   -6.725630   -2.692581
     45          1           0      -17.076058   -1.579228    3.942474
     46          1           0      -15.992690    4.380093    2.443537
     47          1           0      -16.139400    2.933384   -3.665858
     48          1           0      -17.045239   -4.589944    0.024381
     49          1           0      -16.796636   -3.852056    2.733841
     50          1           0      -18.981054   -3.503945    0.715669
     51          1           0      -18.933480   -2.263070    2.005720
     52          1           0      -19.111742   -3.931110    2.470956
     53          1           0      -14.624060   -4.077267    1.764028
     54          1           0      -14.346919   -4.441070    0.013795
     55          1           0      -16.079446   -6.425759    1.084477
     56          1           0      -15.033118   -6.020076    2.391562
     57          1           0      -16.385800   -0.795335    5.773298
     58          1           0      -16.716755    0.757226    6.441159
     59          1           0      -15.018107    0.223404    6.357818
     60          1           0      -15.761896    2.724939    6.923997
     61          1           0      -14.547539    4.121800    6.873063
     62          1           0      -14.098014    2.440456    6.480712
     63          1           0      -15.503622    5.646874    0.285633
     64          1           0      -17.066202    4.956718   -2.153632
     65          1           0      -17.428396    6.777836    0.634290
     66          1           0      -18.242651    5.192126    0.860666
     67          1           0      -18.235677    5.916006   -0.663448
     68          1           0      -15.100709    6.539391   -2.136340
     69          1           0      -15.082758    5.349277   -3.432933
     70          1           0      -13.526148    5.589945   -0.970062
     71          1           0      -12.921015    5.214284   -2.619117
     72          1           0      -13.712752    3.951124   -1.573991
     73          1           0      -15.654627    0.211755   -6.063742
     74          1           0      -16.156727    1.834982   -5.470365
     75          1           0      -17.387224    0.506850   -5.557002
     76          1           0      -17.159134   -3.737628   -2.710626
     77          1           0      -15.014073   -7.398450   -3.495865
     78          1           0      -14.675464   -7.130492   -1.681127
     79          1           0      -13.701663   -6.468298   -3.007378
     80         12           0       15.959170    0.657910   -0.445079
     81          6           0       15.785919   -2.568438    1.116890
     82          6           0       15.156346    2.002511    2.585121
     83          6           0       15.661393    3.470411   -1.883336
     84          6           0       15.616019   -0.962161   -3.511563
     85          7           0       15.549106   -0.266514    1.522032
     86          6           0       15.572969   -1.497663    2.009942
     87          6           0       15.436285   -1.580374    3.553973
     88          6           0       14.684268   -0.183645    3.803974
     89          6           0       15.183823    0.585003    2.582375
     90          6           0       13.170990   -0.290559    3.715030
     91          6           0       16.828796   -1.620283    4.276024
     92          6           0       16.775531   -2.010959    5.754636
     93          1           0       17.869492   -2.807131    6.304026
     94          7           0       15.963687    2.493286    0.309863
     95          6           0       15.631419    2.857199    1.566231
     96          6           0       15.779300    4.320080    1.613765
     97          6           0       16.066858    4.807454    0.237361
     98          6           0       15.883876    3.584824   -0.518798
     99          6           0       15.725326    5.102221    2.893905
    100          6           0       16.431974    6.154186   -0.309632
    101          8           0       16.403064    6.400617   -1.567119
    102          6           0       16.733958    7.202285    0.676158
    103          7           0       15.467829    1.201605   -2.390671
    104          6           0       15.460875    2.492463   -2.766924
    105          6           0       15.350687    2.622722   -4.267355
    106          6           0       15.529307    1.140826   -4.841510
    107          6           0       15.627061    0.363748   -3.510347
    108          6           0       14.042320    3.216171   -4.789261
    109          6           0       16.640862    0.927458   -5.905276
    110          6           0       18.001652    1.120224   -5.275614
    111          7           0       15.924528   -1.392358   -1.125708
    112          6           0       15.744440   -1.848594   -2.449906
    113          6           0       15.679418   -3.323521   -2.397165
    114          6           0       15.804119   -3.624348   -1.032451
    115          6           0       15.917169   -2.420906   -0.285165
    116          6           0       15.476347   -4.187577   -3.509957
    117          6           0       15.855156   -4.685861   -0.053032
    118          8           0       15.894178   -5.914489   -0.104842
    119          6           0       15.718613   -4.044518    1.394876
    120          6           0       16.786068   -4.642026    2.270111
    121          8           0       17.988390   -4.424077    2.038742
    122          8           0       16.210266   -5.188996    3.356225
    123          6           0       17.229608   -5.784998    4.260411
    124          1           0       14.688624    2.510730    3.428824
    125          1           0       15.661291    4.409565   -2.441428
    126          1           0       15.608635   -1.545029   -4.435079
    127          1           0       14.826117   -2.400610    3.912706
    128          1           0       15.027051    0.291160    4.719622
    129          1           0       12.855093   -1.267507    3.380482
    130          1           0       12.863458    0.469088    3.008334
    131          1           0       12.716756   -0.014496    4.670953
    132          1           0       17.214989   -0.596803    4.365902
    133          1           0       17.509276   -2.266086    3.755923
    134          1           0       15.807281   -2.445400    6.031569
    135          1           0       16.843197   -1.101468    6.356509
    136          1           0       15.336085    4.494803    3.720306
    137          1           0       14.974423    5.887915    2.757165
    138          1           0       16.681414    5.566851    3.144271
    139          1           0       15.874631    7.344057    1.327253
    140          1           0       17.059095    8.066454    0.093603
    141          1           0       17.557138    6.857801    1.312012
    142          1           0       16.141777    3.249547   -4.660237
    143          1           0       14.618257    0.786722   -5.345920
    144          1           0       14.190580    4.114781   -5.417441
    145          1           0       13.409253    3.444609   -3.942170
    146          1           0       13.421213    2.531054   -5.363759
    147          1           0       16.556267    1.676114   -6.696814
    148          1           0       16.603772   -0.047779   -6.379119
    149          1           0       18.134047    2.205986   -5.301647
    150          1           0       18.768738    0.614969   -5.859002
    151          1           0       17.995213    0.814074   -4.223059
    152          1           0       16.169341   -5.010498   -3.395694
    153          1           0       15.629898   -3.665369   -4.452022
    154          1           0       14.428408   -4.459217   -3.357270
    155          1           0       14.715979   -4.270337    1.759973
    156          1           0       16.947960   -6.831354    4.413719
    157          1           0       17.253482   -5.133632    5.154224
    158          1           0       18.237999   -5.891263    3.877918
 ---------------------------------------------------------------------

 SCF Done:  E(RCAM-B3LYP) =  -4069.81177451     A.U. after   19 cycles

 Excitation energies and oscillator strengths:

 Excited State   1:      Singlet-A      1.6755 eV  739.99 nm  f=0.3395  <S**2>=0.000
     310 -> 316        0.17208
     312 -> 313        0.68004
     310 <- 316        0.10373
 This state for optimization and/or second-order correction.
 Total Energy, E(TD-HF/TD-DFT) =  -4069.75020133
 Copying the excited state density for this state as the 1-particle RhoCI density.

 Excited State   2:      Singlet-A      1.6799 eV  738.04 nm  f=0.4369  <S**2>=0.000
     309 -> 315        0.17400
     311 -> 314        0.67969
     309 <- 315        0.10420

 Excited State   3:      Singlet-A      2.1861 eV  567.15 nm  f=0.1008  <S**2>=0.000
     310 -> 313        0.64240
     312 -> 316       -0.27310

 Excited State   4:      Singlet-A      2.1925 eV  565.50 nm  f=0.1001  <S**2>=0.000
     309 -> 314        0.64064
     311 -> 315       -0.27823

 Excited State   5:      Singlet-A      3.0657 eV  404.43 nm  f=0.0000  <S**2>=0.000
     311 -> 313        0.70711

 The electronic state is 1-A.
 Alpha  occ. eigenvalues --  -46.87796 -46.87661 -19.26354 -19.26278 -19.19164
 Alpha  occ. eigenvalues --  -19.19015 -19.18817 -19.18714 -19.18167 -19.18052
 Alpha  occ. eigenvalues --  -14.42498 -14.42449 -14.41449 -14.41359 -14.39402
 Alpha  occ. eigenvalues --  -14.39352 -14.38600 -14.38586 -10.39094 -10.39075
 Alpha  occ. eigenvalues --  -10.35450 -10.35391 -10.34387 -10.34230 -10.31762
 Alpha  occ. eigenvalues --  -10.31671 -10.31403 -10.31310 -10.31024 -10.30908
 Alpha  occ. eigenvalues --  -10.30569 -10.30507 -10.30398 -10.30361 -10.30207
 Alpha  occ. eigenvalues --  -10.30140 -10.29920 -10.29894 -10.29630 -10.29437
 Alpha  occ. eigenvalues --  -10.29401 -10.29254 -10.28746 -10.28721 -10.28659
 Alpha  occ. eigenvalues --  -10.28532 -10.28405 -10.28364 -10.28142 -10.28114
 Alpha  occ. eigenvalues --  -10.28001 -10.27792 -10.27726 -10.27670 -10.27584
 Alpha  occ. eigenvalues --  -10.27515 -10.27502 -10.27484 -10.27482 -10.27468
 Alpha  occ. eigenvalues --  -10.27465 -10.27451 -10.27402 -10.27373 -10.27155
 Alpha  occ. eigenvalues --  -10.27052 -10.26700 -10.26696 -10.26414 -10.26414
 Alpha  occ. eigenvalues --  -10.26231 -10.26186 -10.26135 -10.26027 -10.26019
 Alpha  occ. eigenvalues --  -10.25934 -10.25850 -10.25842 -10.25437 -10.25393
 Alpha  occ. eigenvalues --  -10.24873 -10.24832 -10.24787 -10.24729 -10.24690
 Alpha  occ. eigenvalues --  -10.24689  -3.16539  -3.16411  -1.91420  -1.91293
 Alpha  occ. eigenvalues --   -1.91007  -1.90881  -1.90849  -1.90718  -1.16647
 Alpha  occ. eigenvalues --   -1.16627  -1.08660  -1.08625  -1.07218  -1.06966
 Alpha  occ. eigenvalues --   -1.06949  -1.06637  -1.04580  -1.04496  -1.03760
 Alpha  occ. eigenvalues --   -1.03663  -1.03233  -1.03039  -1.02410  -1.02111
 Alpha  occ. eigenvalues --   -0.91988  -0.91970  -0.89520  -0.89494  -0.89185
 Alpha  occ. eigenvalues --   -0.89153  -0.88287  -0.88219  -0.87869  -0.87794
 Alpha  occ. eigenvalues --   -0.87685  -0.87672  -0.87274  -0.87120  -0.85001
 Alpha  occ. eigenvalues --   -0.84980  -0.83937  -0.83875  -0.82969  -0.82931
 Alpha  occ. eigenvalues --   -0.82654  -0.82647  -0.81598  -0.81582  -0.80595
 Alpha  occ. eigenvalues --   -0.80444  -0.78797  -0.78636  -0.77217  -0.77145
 Alpha  occ. eigenvalues --   -0.76932  -0.76900  -0.75921  -0.75840  -0.74898
 Alpha  occ. eigenvalues --   -0.74802  -0.72773  -0.72699  -0.71671  -0.71581
 Alpha  occ. eigenvalues --   -0.69908  -0.69756  -0.68871  -0.68829  -0.67640
 Alpha  occ. eigenvalues --   -0.67602  -0.67218  -0.67202  -0.65284  -0.65273
 Alpha  occ. eigenvalues --   -0.64852  -0.64771  -0.64655  -0.64619  -0.64269
 Alpha  occ. eigenvalues --   -0.64203  -0.62294  -0.62280  -0.60442  -0.60339
 Alpha  occ. eigenvalues --   -0.59802  -0.59798  -0.58993  -0.58986  -0.58503
 Alpha  occ. eigenvalues --   -0.58426  -0.57582  -0.57556  -0.57308  -0.57236
 Alpha  occ. eigenvalues --   -0.56309  -0.56205  -0.55974  -0.55889  -0.55520
 Alpha  occ. eigenvalues --   -0.55453  -0.55338  -0.55248  -0.54521  -0.54488
 Alpha  occ. eigenvalues --   -0.53914  -0.53892  -0.53298  -0.53228  -0.53220
 Alpha  occ. eigenvalues --   -0.53143  -0.52913  -0.52904  -0.52756  -0.52669
 Alpha  occ. eigenvalues --   -0.52439  -0.52400  -0.51913  -0.51885  -0.51660
 Alpha  occ. eigenvalues --   -0.51615  -0.51202  -0.51194  -0.50574  -0.50475
 Alpha  occ. eigenvalues --   -0.50032  -0.49980  -0.49918  -0.49866  -0.49513
 Alpha  occ. eigenvalues --   -0.49488  -0.49213  -0.49203  -0.49106  -0.49094
 Alpha  occ. eigenvalues --   -0.48591  -0.48560  -0.48462  -0.48445  -0.48375
 Alpha  occ. eigenvalues --   -0.48339  -0.47694  -0.47595  -0.47296  -0.47118
 Alpha  occ. eigenvalues --   -0.46796  -0.46709  -0.46555  -0.46553  -0.46358
 Alpha  occ. eigenvalues --   -0.46271  -0.46161  -0.46086  -0.45824  -0.45819
 Alpha  occ. eigenvalues --   -0.45207  -0.45202  -0.44576  -0.44515  -0.44507
 Alpha  occ. eigenvalues --   -0.44477  -0.44144  -0.44128  -0.44086  -0.44078
 Alpha  occ. eigenvalues --   -0.44018  -0.43940  -0.43555  -0.43492  -0.43387
 Alpha  occ. eigenvalues --   -0.43384  -0.43026  -0.42933  -0.42902  -0.42696
 Alpha  occ. eigenvalues --   -0.42653  -0.42553  -0.42009  -0.41964  -0.41703
 Alpha  occ. eigenvalues --   -0.41670  -0.41531  -0.41460  -0.41140  -0.40990
 Alpha  occ. eigenvalues --   -0.40868  -0.40824  -0.40723  -0.40699  -0.40571
 Alpha  occ. eigenvalues --   -0.40493  -0.40231  -0.40229  -0.39442  -0.39424
 Alpha  occ. eigenvalues --   -0.38469  -0.38349  -0.37745  -0.37656  -0.37320
 Alpha  occ. eigenvalues --   -0.37266  -0.37261  -0.37201  -0.36774  -0.36710
 Alpha  occ. eigenvalues --   -0.36218  -0.36190  -0.34285  -0.34254  -0.33865
 Alpha  occ. eigenvalues --   -0.33766  -0.33185  -0.33176  -0.31347  -0.31273
 Alpha  occ. eigenvalues --   -0.31035  -0.30973  -0.30026  -0.29957  -0.29449
 Alpha  occ. eigenvalues --   -0.29327  -0.29321  -0.29212  -0.24079  -0.24036
 Alpha  occ. eigenvalues --   -0.21127  -0.21117
 Alpha virt. eigenvalues --   -0.08792  -0.08774  -0.01749  -0.01684  -0.00058
 Alpha virt. eigenvalues --   -0.00029   0.02201   0.02206   0.03121   0.03225
 Alpha virt. eigenvalues --    0.04720   0.04729   0.05103   0.05162   0.06180

 Mulliken charges:
               1
     1  Mg   0.838692
     2  C   -0.002961
     3  C   -0.094082
     4  C   -0.045886
     5  C   -0.063966
     6  N   -0.256763
     7  C   -0.052459
     8  C   -0.014008
     9  C   -0.086990
    10  C    0.046294
    11  C    0.104810
    12  C    0.053469
    13  C   -0.071832
    14  H    0.036195
    15  N   -0.433126
    16  C    0.168409
    17  C   -0.177161
    18  C   -0.004025
    19  C    0.148717
    20  C    0.110185
    21  C    0.012275
    22  O   -0.249661
    23  C    0.062480
    24  N   -0.341123
    25  C    0.041229
    26  C   -0.028150
    27  C   -0.023992
    28  C    0.074849
    29  C    0.076174
    30  C    0.035138
    31  C   -0.004502
    32  N   -0.310461
    33  C    0.080400
    34  C   -0.169712
    35  C    0.008376
    36  C    0.082986
    37  C    0.127310
    38  C    0.046129
    39  O   -0.188402
    40  C   -0.005346
    41  C    0.212887
    42  O   -0.257093
    43  O   -0.304802
    44  C    0.157677
    45  H   -0.017599
    46  H   -0.016865
    47  H   -0.041495
    48  H    0.000956
    49  H   -0.004019
    50  H    0.025481
    51  H    0.016433
    52  H    0.016670
    53  H    0.011197
    54  H    0.044133
    55  H    0.017879
    56  H    0.017951
    57  H    0.005890
    58  H    0.026810
    59  H    0.039532
    60  H    0.037354
    61  H    0.035602
    62  H    0.031492
    63  H    0.016527
    64  H    0.009462
    65  H    0.023186
    66  H    0.012551
    67  H    0.004754
    68  H    0.006342
    69  H    0.004737
    70  H    0.008753
    71  H    0.018136
    72  H    0.029000
    73  H    0.047587
    74  H    0.009104
    75  H    0.046017
    76  H    0.035165
    77  H    0.042974
    78  H    0.046415
    79  H    0.053712
    80  Mg   0.837844
    81  C   -0.016838
    82  C   -0.087797
    83  C   -0.045498
    84  C   -0.064880
    85  N   -0.254572
    86  C   -0.049861
    87  C   -0.015066
    88  C   -0.090508
    89  C    0.045767
    90  C    0.114366
    91  C    0.062523
    92  C   -0.077892
    93  H    0.034878
    94  N   -0.423510
    95  C    0.162923
    96  C   -0.174604
    97  C   -0.007784
    98  C    0.152138
    99  C    0.099357
   100  C    0.015574
   101  O   -0.253150
   102  C    0.061197
   103  N   -0.350073
   104  C    0.037543
   105  C   -0.019833
   106  C   -0.034836
   107  C    0.088954
   108  C    0.073627
   109  C    0.034721
   110  C   -0.007680
   111  N   -0.324112
   112  C    0.078453
   113  C   -0.163122
   114  C    0.002244
   115  C    0.096208
   116  C    0.131488
   117  C    0.042390
   118  O   -0.187883
   119  C    0.000924
   120  C    0.211249
   121  O   -0.251023
   122  O   -0.305628
   123  C    0.152028
   124  H   -0.019655
   125  H   -0.015538
   126  H   -0.040418
   127  H   -0.000662
   128  H   -0.004342
   129  H    0.022469
   130  H    0.014468
   131  H    0.016271
   132  H    0.013922
   133  H    0.037672
   134  H    0.020776
   135  H    0.019589
   136  H    0.008754
   137  H    0.026174
   138  H    0.039794
   139  H    0.038267
   140  H    0.036418
   141  H    0.033883
   142  H    0.014406
   143  H    0.012481
   144  H    0.025175
   145  H    0.011663
   146  H    0.005747
   147  H    0.006304
   148  H    0.003671
   149  H    0.010939
   150  H    0.017936
   151  H    0.030076
   152  H    0.045997
   153  H    0.008540
   154  H    0.046988
   155  H    0.035026
   156  H    0.043897
   157  H    0.049483
   158  H    0.053580
 Sum of Mulliken charges =  -0.00000

 Dipole moment (field-independent basis, Debye):
    X=             -3.8318    Y=              2.1077    Z=              6.9434  Tot=              8.2059
 Quadrupole moment (field-independent basis, Debye-Ang):
   XX=           -516.9576   YY=           -527.0161   ZZ=           -471.8412
   XY=             62.8173   XZ=            -19.0802   YZ=            -25.5102

 Normal termination of Gaussian 16 at Sun Sep 12 17:45:46 2021.
