 Gaussian 16, Revision A.03,
 Gaussian 16:  ES64L-G16RevA.03 25-Dec-2016

 -----------------------------------
 #p cam-b3lyp/Def2SVP td=(nstates=5)
 -----------------------------------

 --------------------------------
 TDDFT excited states in gaussian
 --------------------------------
 Symbolic Z-matrix:
 Charge =  0 Multiplicity = 1

                         Standard orientation:
 ---------------------------------------------------------------------
 Center     Atomic      Atomic             Coordinates (Angstroms)
 Number     Number       Type             X           Y           Z
 ---------------------------------------------------------------------
      1         12           0       -4.106725    0.872954    0.026447
      2          6           0       -4.586227   -2.213957    1.773807
      3          6           0       -4.797238    2.469827    2.961793
      4          6           0       -4.136268    3.600871   -1.590407
      5          6           0       -4.575339   -0.901710   -2.936091
      6          7           0       -4.610828    0.114476    2.044178
      7          6           0       -4.703815   -1.091253    2.596213
      8          6           0       -4.862914   -1.050792    4.145544
      9          6           0       -5.476709    0.412828    4.297428
     10          6           0       -4.899496    1.049411    3.045425
     11          6           0       -6.999032    0.447298    4.208855
     12          6           0       -3.489859   -1.176060    4.887676
     13          6           0       -3.582341   -1.472294    6.387358
     14          1           0       -2.576991   -2.331128    6.994831
     15          7           0       -3.939726    2.737778    0.656838
     16          6           0       -4.250894    3.207055    1.889006
     17          6           0       -3.951574    4.654923    1.861285
     18          6           0       -3.620951    5.024405    0.456911
     19          6           0       -3.915058    3.791915   -0.228542
     20          6           0       -3.948791    5.518149    3.085451
     21          6           0       -3.129514    6.290912   -0.169653
     22          8           0       -3.128289    6.467428   -1.435912
     23          6           0       -2.726977    7.367396    0.753488
     24          7           0       -4.540802    1.341053   -1.961038
     25          6           0       -4.420445    2.592568   -2.417337
     26          6           0       -4.505824    2.638574   -3.914178
     27          6           0       -4.466868    1.119929   -4.406065
     28          6           0       -4.446932    0.424219   -3.022642
     29          6           0       -5.747699    3.330702   -4.492725
     30          6           0       -3.373837    0.742584   -5.437236
     31          6           0       -2.007812    0.838631   -4.795482
     32          7           0       -4.333978   -1.212323   -0.531245
     33          6           0       -4.539785   -1.722492   -1.821224
     34          6           0       -4.742520   -3.176450   -1.683488
     35          6           0       -4.656491   -3.410164   -0.312422
     36          6           0       -4.441453   -2.176428    0.365772
     37          6           0       -5.028518   -4.082059   -2.742974
     38          6           0       -4.720766   -4.411741    0.739514
     39          8           0       -4.789192   -5.641481    0.762987
     40          6           0       -4.799449   -3.661252    2.141799
     41          6           0       -3.798733   -4.308045    3.060241
     42          8           0       -2.573877   -4.211052    2.841870
     43          8           0       -4.422818   -4.731880    4.169937
     44          6           0       -3.481398   -5.357353    5.136717
     45          1           0       -5.226253    3.077845    3.760667
     46          1           0       -4.044564    4.503619   -2.197922
     47          1           0       -4.642926   -1.532622   -3.824254
     48          1           0       -5.555433   -1.788799    4.550743
     49          1           0       -5.103796    0.920210    5.186934
     50          1           0       -7.403780   -0.524475    3.926442
     51          1           0       -7.229445    1.191788    3.446531
     52          1           0       -7.432555    0.823540    5.135827
     53          1           0       -3.008803   -0.198544    4.920974
     54          1           0       -2.860227   -1.927479    4.409911
     55          1           0       -4.583990   -1.799132    6.668044
     56          1           0       -3.440591   -0.537347    6.929557
     57          1           0       -4.390648    5.004758    3.938526
     58          1           0       -4.624413    6.350550    2.889616
     59          1           0       -2.953879    5.898823    3.316902
     60          1           0       -3.574163    7.635272    1.385205
     61          1           0       -2.319562    8.162000    0.129414
     62          1           0       -1.953689    6.988259    1.422240
     63          1           0       -3.656764    3.173228   -4.338049
     64          1           0       -5.399320    0.821295   -4.885674
     65          1           0       -5.515214    4.157303   -5.164578
     66          1           0       -6.365574    3.665503   -3.660001
     67          1           0       -6.434936    2.670038   -5.020593
     68          1           0       -3.384898    1.440243   -6.273954
     69          1           0       -3.492614   -0.262581   -5.841942
     70          1           0       -1.769559    1.897689   -4.887478
     71          1           0       -1.287610    0.227646   -5.340658
     72          1           0       -2.050608    0.605504   -3.731383
     73          1           0       -4.409298   -4.961752   -2.567831
     74          1           0       -4.816281   -3.635197   -3.713991
     75          1           0       -6.093753   -4.248932   -2.583965
     76          1           0       -5.820977   -3.777282    2.502547
     77          1           0       -3.856699   -6.358693    5.348146
     78          1           0       -3.390180   -4.664135    5.973098
     79          1           0       -2.484379   -5.586763    4.759008
     80         12           0        4.838492    0.014664   -0.075802
     81          6           0        2.336898   -1.802358   -1.897761
     82          6           0        3.252820    2.875095   -1.044430
     83          6           0        7.269343    1.654642    1.136180
     84          6           0        6.821897   -2.847462   -0.217239
     85          7           0        3.036471    0.362064   -1.310430
     86          6           0        2.132196   -0.406812   -1.898186
     87          6           0        0.900006    0.357744   -2.452023
     88          6           0        1.575646    1.803209   -2.633728
     89          6           0        2.670850    1.695981   -1.574622
     90          6           0        2.238025    1.991926   -3.988347
     91          6           0       -0.286132    0.403012   -1.425848
     92          6           0       -1.624441    0.861110   -2.009671
     93          1           0       -2.850762    0.255134   -1.498411
     94          7           0        4.964042    1.923920    0.451043
     95          6           0        4.228141    2.949736   -0.025843
     96          6           0        4.718635    4.152194    0.665289
     97          6           0        5.914832    3.777171    1.467283
     98          6           0        6.112513    2.411959    1.023190
     99          6           0        4.015924    5.476654    0.591673
    100          6           0        6.751110    4.527715    2.459005
    101          8           0        7.885645    4.083055    2.856411
    102          6           0        6.246330    5.842745    2.880186
    103          7           0        6.846354   -0.443624    0.208429
    104          6           0        7.676861    0.429121    0.805509
    105          6           0        8.996086   -0.220665    1.148723
    106          6           0        8.789660   -1.782743    0.875060
    107          6           0        7.351993   -1.753095    0.311479
    108          6           0       10.207872    0.277844    0.361673
    109          6           0        9.103635   -2.750394    2.048837
    110          6           0        8.099920   -2.554095    3.162124
    111          7           0        4.578259   -2.027106   -0.732687
    112          6           0        5.546432   -3.055055   -0.726626
    113          6           0        4.934836   -4.232985   -1.375353
    114          6           0        3.651017   -3.797935   -1.737334
    115          6           0        3.482061   -2.438258   -1.360197
    116          6           0        5.575885   -5.483114   -1.604176
    117          6           0        2.404089   -4.176534   -2.362252
    118          8           0        1.933503   -5.227517   -2.795545
    119          6           0        1.542571   -2.863497   -2.607435
    120          6           0        0.142549   -3.129972   -2.126344
    121          8           0       -0.084294   -3.327177   -0.919595
    122          8           0       -0.720982   -2.893722   -3.130770
    123          6           0       -2.123801   -3.133595   -2.699082
    124          1           0        2.967578    3.834349   -1.477266
    125          1           0        8.102789    2.140530    1.648774
    126          1           0        7.340711   -3.808441   -0.212319
    127          1           0        0.532135   -0.003194   -3.405000
    128          1           0        0.879225    2.599085   -2.382861
    129          1           0        2.247623    1.077682   -4.562982
    130          1           0        3.248470    2.317759   -3.778875
    131          1           0        1.762049    2.814797   -4.529327
    132          1           0       -0.107333    1.213342   -0.707431
    133          1           0       -0.408733   -0.547000   -0.943080
    134          1           0       -1.620072    0.853041   -3.106428
    135          1           0       -1.774875    1.911790   -1.749971
    136          1           0        3.261164    5.487874   -0.204325
    137          1           0        4.758805    6.215454    0.272024
    138          1           0        3.599922    5.786746    1.552636
    139          1           0        6.133570    6.482499    2.008137
    140          1           0        6.933294    6.184398    3.656860
    141          1           0        5.245468    5.713038    3.306876
    142          1           0        9.237904   -0.076069    2.194530
    143          1           0        9.438121   -2.143343    0.063085
    144          1           0       11.019871    0.662018    1.007547
    145          1           0        9.876013    1.042920   -0.327578
    146          1           0       10.658281   -0.454829   -0.305806
    147          1           0       10.085360   -2.525458    2.472827
    148          1           0        9.110560   -3.795313    1.757141
    149          1           0        8.504367   -1.698374    3.710981
    150          1           0        8.049341   -3.439373    3.792805
    151          1           0        7.122734   -2.257903    2.763317
    152          1           0        4.860487   -6.252012   -1.344388
    153          1           0        6.488925   -5.574622   -1.019570
    154          1           0        5.780434   -5.404248   -2.675257
    155          1           0        1.573895   -2.645863   -3.675715
    156          1           0       -2.553413   -3.858588   -3.397286
    157          1           0       -2.597679   -2.134975   -2.654904
    158          1           0       -2.277567   -3.636031   -1.751256
 ---------------------------------------------------------------------

 SCF Done:  E(RCAM-B3LYP) =  -4069.68011499     A.U. after   19 cycles

 Excitation energies and oscillator strengths:

 Excited State   1:      Singlet-A      1.6047 eV  772.64 nm  f=0.0637  <S**2>=0.000
     309 -> 315        0.14293
     311 -> 313        0.61236
     312 -> 314       -0.31559
 This state for optimization and/or second-order correction.
 Total Energy, E(TD-HF/TD-DFT) =  -4069.62114384
 Copying the excited state density for this state as the 1-particle RhoCI density.

 Excited State   2:      Singlet-A      1.6902 eV  733.56 nm  f=0.6148  <S**2>=0.000
     310 -> 316        0.15665
     311 -> 313        0.31214
     312 -> 314        0.60912

 Excited State   3:      Singlet-A      2.1391 eV  579.61 nm  f=0.0824  <S**2>=0.000
     309 -> 313        0.63302
     311 -> 315       -0.25444
     312 -> 313       -0.10920

 Excited State   4:      Singlet-A      2.1793 eV  568.91 nm  f=0.0596  <S**2>=0.000
     310 -> 314        0.47870
     312 -> 313        0.47088
     312 -> 316       -0.20130

 Excited State   5:      Singlet-A      2.1855 eV  567.29 nm  f=0.0581  <S**2>=0.000
     309 -> 313        0.13225
     310 -> 314       -0.41954
     312 -> 313        0.51436
     312 -> 316        0.17659

 The electronic state is 1-A.
 Alpha  occ. eigenvalues --  -46.87996 -46.87312 -19.26088 -19.25279 -19.19334
 Alpha  occ. eigenvalues --  -19.18753 -19.18464 -19.18387 -19.18207 -19.17588
 Alpha  occ. eigenvalues --  -14.42843 -14.42145 -14.41501 -14.41018 -14.39697
 Alpha  occ. eigenvalues --  -14.39186 -14.39013 -14.38236 -10.38874 -10.38160
 Alpha  occ. eigenvalues --  -10.35965 -10.35151 -10.34586 -10.33747 -10.31797
 Alpha  occ. eigenvalues --  -10.31458 -10.31121 -10.31063 -10.31049 -10.30922
 Alpha  occ. eigenvalues --  -10.30663 -10.30565 -10.30396 -10.30228 -10.30076
 Alpha  occ. eigenvalues --  -10.30049 -10.29983 -10.29850 -10.29682 -10.29554
 Alpha  occ. eigenvalues --  -10.29126 -10.29056 -10.28893 -10.28658 -10.28514
 Alpha  occ. eigenvalues --  -10.28343 -10.28305 -10.28174 -10.28091 -10.28062
 Alpha  occ. eigenvalues --  -10.28032 -10.27930 -10.27930 -10.27923 -10.27791
 Alpha  occ. eigenvalues --  -10.27752 -10.27651 -10.27315 -10.27277 -10.27263
 Alpha  occ. eigenvalues --  -10.27227 -10.27136 -10.27115 -10.27093 -10.26909
 Alpha  occ. eigenvalues --  -10.26711 -10.26594 -10.26488 -10.26453 -10.26439
 Alpha  occ. eigenvalues --  -10.26287 -10.26258 -10.26142 -10.26016 -10.25911
 Alpha  occ. eigenvalues --  -10.25824 -10.25703 -10.25608 -10.25519 -10.25281
 Alpha  occ. eigenvalues --  -10.25171 -10.25159 -10.24507 -10.24504 -10.24350
 Alpha  occ. eigenvalues --  -10.24020  -3.16752  -3.16062  -1.91614  -1.91234
 Alpha  occ. eigenvalues --   -1.91081  -1.90944  -1.90533  -1.90369  -1.16434
 Alpha  occ. eigenvalues --   -1.15623  -1.08793  -1.08155  -1.07739  -1.06724
 Alpha  occ. eigenvalues --   -1.06396  -1.05988  -1.04965  -1.04193  -1.04131
 Alpha  occ. eigenvalues --   -1.03740  -1.03316  -1.02877  -1.02700  -1.01762
 Alpha  occ. eigenvalues --   -0.92366  -0.91563  -0.90262  -0.89427  -0.89178
 Alpha  occ. eigenvalues --   -0.89024  -0.88721  -0.88521  -0.88097  -0.87928
 Alpha  occ. eigenvalues --   -0.87766  -0.87477  -0.87387  -0.86839  -0.85571
 Alpha  occ. eigenvalues --   -0.85186  -0.84346  -0.83592  -0.83498  -0.83005
 Alpha  occ. eigenvalues --   -0.82684  -0.82340  -0.81829  -0.81146  -0.80808
 Alpha  occ. eigenvalues --   -0.80011  -0.79286  -0.78558  -0.78310  -0.77350
 Alpha  occ. eigenvalues --   -0.76909  -0.76576  -0.76156  -0.75656  -0.75166
 Alpha  occ. eigenvalues --   -0.74461  -0.73427  -0.72548  -0.72156  -0.72025
 Alpha  occ. eigenvalues --   -0.71171  -0.69483  -0.69275  -0.68568  -0.68065
 Alpha  occ. eigenvalues --   -0.67585  -0.67440  -0.67198  -0.65816  -0.65385
 Alpha  occ. eigenvalues --   -0.65178  -0.64870  -0.64491  -0.64357  -0.64166
 Alpha  occ. eigenvalues --   -0.63872  -0.62384  -0.61712  -0.60921  -0.60097
 Alpha  occ. eigenvalues --   -0.60043  -0.59459  -0.59362  -0.58893  -0.58651
 Alpha  occ. eigenvalues --   -0.58130  -0.57892  -0.57531  -0.57223  -0.57028
 Alpha  occ. eigenvalues --   -0.56799  -0.56500  -0.56080  -0.55871  -0.55843
 Alpha  occ. eigenvalues --   -0.55580  -0.55277  -0.55050  -0.54860  -0.54605
 Alpha  occ. eigenvalues --   -0.54119  -0.54099  -0.53701  -0.53536  -0.53465
 Alpha  occ. eigenvalues --   -0.53198  -0.53110  -0.52962  -0.52905  -0.52554
 Alpha  occ. eigenvalues --   -0.52488  -0.52189  -0.51918  -0.51846  -0.51511
 Alpha  occ. eigenvalues --   -0.51454  -0.51262  -0.51091  -0.50974  -0.50863
 Alpha  occ. eigenvalues --   -0.50315  -0.50238  -0.50002  -0.49800  -0.49616
 Alpha  occ. eigenvalues --   -0.49537  -0.49497  -0.49264  -0.49095  -0.48986
 Alpha  occ. eigenvalues --   -0.48881  -0.48772  -0.48729  -0.48302  -0.48100
 Alpha  occ. eigenvalues --   -0.48063  -0.47987  -0.47703  -0.47600  -0.47357
 Alpha  occ. eigenvalues --   -0.47028  -0.46881  -0.46714  -0.46662  -0.46413
 Alpha  occ. eigenvalues --   -0.46190  -0.46032  -0.45944  -0.45728  -0.45593
 Alpha  occ. eigenvalues --   -0.45339  -0.45119  -0.44883  -0.44846  -0.44723
 Alpha  occ. eigenvalues --   -0.44406  -0.44326  -0.44029  -0.43947  -0.43864
 Alpha  occ. eigenvalues --   -0.43765  -0.43708  -0.43534  -0.43381  -0.43358
 Alpha  occ. eigenvalues --   -0.43231  -0.42989  -0.42736  -0.42598  -0.42528
 Alpha  occ. eigenvalues --   -0.42397  -0.42258  -0.42024  -0.41960  -0.41888
 Alpha  occ. eigenvalues --   -0.41747  -0.41504  -0.41474  -0.41263  -0.41211
 Alpha  occ. eigenvalues --   -0.41106  -0.40904  -0.40629  -0.40369  -0.40333
 Alpha  occ. eigenvalues --   -0.40262  -0.40018  -0.39713  -0.39184  -0.38928
 Alpha  occ. eigenvalues --   -0.38348  -0.37932  -0.37887  -0.37512  -0.37024
 Alpha  occ. eigenvalues --   -0.36930  -0.36893  -0.36268  -0.36206  -0.36046
 Alpha  occ. eigenvalues --   -0.35256  -0.34531  -0.33916  -0.33603  -0.33246
 Alpha  occ. eigenvalues --   -0.33069  -0.32897  -0.32611  -0.31833  -0.31110
 Alpha  occ. eigenvalues --   -0.31019  -0.30573  -0.30194  -0.29876  -0.29650
 Alpha  occ. eigenvalues --   -0.29473  -0.29006  -0.28839  -0.24414  -0.23669
 Alpha  occ. eigenvalues --   -0.21478  -0.20771
 Alpha virt. eigenvalues --   -0.09289  -0.08445  -0.02265  -0.01349  -0.00510
 Alpha virt. eigenvalues --    0.00293   0.01515   0.02602   0.03499   0.04216
 Alpha virt. eigenvalues --    0.04515   0.05160   0.05312   0.05852   0.06104

 Mulliken charges:
               1
     1  Mg   0.685931
     2  C    0.007190
     3  C   -0.092904
     4  C   -0.052817
     5  C   -0.038174
     6  N   -0.244242
     7  C   -0.057069
     8  C   -0.014055
     9  C   -0.087175
    10  C    0.046295
    11  C    0.104774
    12  C    0.053249
    13  C   -0.072362
    14  H    0.038632
    15  N   -0.426975
    16  C    0.172177
    17  C   -0.176496
    18  C   -0.006001
    19  C    0.154412
    20  C    0.109850
    21  C    0.010573
    22  O   -0.250062
    23  C    0.062686
    24  N   -0.315358
    25  C    0.042718
    26  C   -0.024123
    27  C   -0.011956
    28  C    0.031291
    29  C    0.078055
    30  C    0.072998
    31  C   -0.042862
    32  N   -0.293405
    33  C    0.036163
    34  C   -0.244133
    35  C    0.036898
    36  C    0.087434
    37  C    0.133985
    38  C    0.045540
    39  O   -0.180779
    40  C   -0.010740
    41  C    0.211199
    42  O   -0.245937
    43  O   -0.306562
    44  C    0.157102
    45  H   -0.016438
    46  H   -0.018774
    47  H   -0.043269
    48  H    0.001783
    49  H   -0.003320
    50  H    0.026492
    51  H    0.015899
    52  H    0.017543
    53  H    0.010942
    54  H    0.048434
    55  H    0.017482
    56  H    0.017337
    57  H    0.007625
    58  H    0.028190
    59  H    0.040359
    60  H    0.038779
    61  H    0.035569
    62  H    0.030624
    63  H    0.012046
    64  H    0.009030
    65  H    0.023172
    66  H    0.013764
    67  H    0.006094
    68  H    0.002526
    69  H    0.003856
    70  H    0.007024
    71  H    0.028426
    72  H    0.160645
    73  H    0.049191
    74  H    0.015480
    75  H    0.047972
    76  H    0.035839
    77  H    0.042817
    78  H    0.045350
    79  H    0.057002
    80  Mg   0.837660
    81  C   -0.014651
    82  C   -0.088325
    83  C   -0.046318
    84  C   -0.065925
    85  N   -0.254913
    86  C   -0.042709
    87  C   -0.021127
    88  C   -0.094087
    89  C    0.046886
    90  C    0.114820
    91  C    0.101058
    92  C   -0.036036
    93  H    0.131824
    94  N   -0.423197
    95  C    0.161938
    96  C   -0.175403
    97  C   -0.008918
    98  C    0.151871
    99  C    0.099278
   100  C    0.014735
   101  O   -0.254180
   102  C    0.061742
   103  N   -0.350250
   104  C    0.037186
   105  C   -0.019489
   106  C   -0.034816
   107  C    0.089383
   108  C    0.073985
   109  C    0.034918
   110  C   -0.007555
   111  N   -0.324447
   112  C    0.079350
   113  C   -0.162993
   114  C    0.002939
   115  C    0.096721
   116  C    0.131197
   117  C    0.044240
   118  O   -0.186121
   119  C    0.003566
   120  C    0.211901
   121  O   -0.241233
   122  O   -0.311794
   123  C    0.156546
   124  H   -0.019111
   125  H   -0.016710
   126  H   -0.041069
   127  H   -0.006070
   128  H    0.000534
   129  H    0.020829
   130  H    0.013770
   131  H    0.016261
   132  H    0.006663
   133  H    0.044287
   134  H   -0.182021
   135  H    0.037988
   136  H    0.009786
   137  H    0.025438
   138  H    0.036562
   139  H    0.038029
   140  H    0.035207
   141  H    0.032322
   142  H    0.013630
   143  H    0.011906
   144  H    0.024279
   145  H    0.011484
   146  H    0.005072
   147  H    0.005461
   148  H    0.003504
   149  H    0.010263
   150  H    0.017450
   151  H    0.030957
   152  H    0.047208
   153  H    0.007815
   154  H    0.046182
   155  H    0.031616
   156  H    0.029953
   157  H    0.068039
   158  H    0.062767
 Sum of Mulliken charges =  -0.00000

 Dipole moment (field-independent basis, Debye):
    X=             -2.9200    Y=              7.0923    Z=              2.0284  Tot=              7.9336
 Quadrupole moment (field-independent basis, Debye-Ang):
   XX=           -491.0547   YY=           -539.2726   ZZ=           -472.3793
   XY=            -30.1482   XZ=            -18.5066   YZ=              0.0031

 Normal termination of Gaussian 16 at Thu Sep  9 21:37:54 2021.
