 Gaussian 16, Revision A.03,
 Gaussian 16:  ES64L-G16RevA.03 25-Dec-2016

 -----------------------------------
 #p cam-b3lyp/Def2SVP td=(nstates=5)
 -----------------------------------

 --------------------------------
 TDDFT excited states in gaussian
 --------------------------------
 Symbolic Z-matrix:
 Charge =  0 Multiplicity = 1

                         Standard orientation:
 ---------------------------------------------------------------------
 Center     Atomic      Atomic             Coordinates (Angstroms)
 Number     Number       Type             X           Y           Z
 ---------------------------------------------------------------------
      1         12           0        5.532129    0.136922    0.070523
      2          6           0        5.379579   -3.273563   -1.005363
      3          6           0        6.377533    0.953977   -3.132722
      4          6           0        6.115467    3.082222    1.091086
      5          6           0        5.795402   -1.058537    3.333531
      6          7           0        5.809775   -1.092570   -1.749342
      7          6           0        5.662796   -2.381035   -2.041619
      8          6           0        5.763437   -2.684018   -3.566560
      9          6           0        6.622742   -1.419300   -4.018314
     10          6           0        6.220263   -0.448196   -2.922462
     11          6           0        8.128948   -1.647803   -3.943260
     12          6           0        4.361126   -2.702182   -4.262924
     13          6           0        4.338002   -3.306831   -5.669772
     14          1           0        3.171238   -4.071068   -6.084444
     15          7           0        5.676316    1.834421   -0.929757
     16          6           0        6.016135    1.980069   -2.233058
     17          6           0        5.982337    3.433554   -2.503097
     18          6           0        5.780614    4.133165   -1.203887
     19          6           0        5.876858    3.031778   -0.280273
     20          6           0        6.084424    4.017469   -3.878732
     21          6           0        5.549836    5.568310   -0.850006
     22          8           0        5.631732    5.993916    0.352793
     23          6           0        5.309401    6.491550   -1.973777
     24          7           0        6.123470    0.908674    1.917778
     25          6           0        6.247853    2.226891    2.107024
     26          6           0        6.400883    2.557573    3.562074
     27          6           0        6.110610    1.202983    4.356166
     28          6           0        5.910164    0.258125    3.145656
     29          6           0        7.769116    3.112161    3.982055
     30          6           0        5.010519    1.248784    5.446176
     31          6           0        3.658835    1.462505    4.802458
     32          7           0        5.404733   -1.798400    1.044864
     33          6           0        5.568124   -2.066653    2.411619
     34          6           0        5.501415   -3.530465    2.575540
     35          6           0        5.319244   -4.016228    1.282214
     36          6           0        5.301241   -2.926697    0.365213
     37          6           0        5.663440   -4.240396    3.797907
     38          6           0        5.160276   -5.203909    0.458806
     39          8           0        5.006344   -6.404287    0.688784
     40          6           0        5.315010   -4.779362   -1.068167
     41          6           0        4.178133   -5.403217   -1.830811
     42          8           0        3.000360   -5.040914   -1.633443
     43          8           0        4.670575   -6.149532   -2.831339
     44          6           0        3.593838   -6.773521   -3.645851
     45          1           0        6.875660    1.298912   -4.040924
     46          1           0        6.211701    4.090165    1.500022
     47          1           0        5.784961   -1.498666    4.332346
     48          1           0        6.295530   -3.602966   -3.813212
     49          1           0        6.310873   -1.042218   -4.992105
     50          1           0        8.364256   -2.600026   -3.468053
     51          1           0        8.519772   -0.820018   -3.351212
     52          1           0        8.584787   -1.552531   -4.929115
     53          1           0        4.061965   -1.680144   -4.495309
     54          1           0        3.627054   -3.213045   -3.638837
     55          1           0        5.252667   -3.861846   -5.880140
     56          1           0        4.344059   -2.490761   -6.392401
     57          1           0        6.392134    3.270250   -4.609160
     58          1           0        6.905596    4.733745   -3.860458
     59          1           0        5.165199    4.519678   -4.180633
     60          1           0        6.164466    6.466198   -2.649625
     61          1           0        5.076601    7.456768   -1.525438
     62          1           0        4.454172    6.133827   -2.547855
     63          1           0        5.679252    3.313398    3.869326
     64          1           0        6.993220    0.841255    4.884205
     65          1           0        7.715942    4.085682    4.470044
     66          1           0        8.402583    3.152734    3.096411
     67          1           0        8.347807    2.456908    4.632575
     68          1           0        5.180360    2.086808    6.121317
     69          1           0        4.963712    0.341630    6.048779
     70          1           0        3.618046    2.543692    4.675175
     71          1           0        2.863626    1.116983    5.463873
     72          1           0        3.615884    1.015604    3.809019
     73          1           0        4.890083   -5.008351    3.809449
     74          1           0        5.574326   -3.575544    4.656762
     75          1           0        6.674205   -4.628636    3.673489
     76          1           0        6.283714   -5.151378   -1.400338
     77          1           0        3.774825   -7.848451   -3.647732
     78          1           0        3.594314   -6.258659   -4.606747
     79          1           0        2.588050   -6.734914   -3.226044
     80         12           0       -5.008557    1.126736    0.434269
     81          6           0       -7.262699   -1.658325    0.230945
     82          6           0       -6.422223    2.289302   -2.444030
     83          6           0       -2.744912    3.347963    0.336893
     84          6           0       -3.052652   -0.791860    2.588121
     85          7           0       -6.626194    0.329864   -0.846558
     86          6           0       -7.451594   -0.704518   -0.790829
     87          6           0       -8.591194   -0.675520   -1.844410
     88          6           0       -7.882973    0.262221   -2.938913
     89          6           0       -6.939986    1.038694   -2.022111
     90          6           0       -7.043946   -0.511719   -3.942100
     91          6           0       -9.903128   -0.018875   -1.287937
     92          6           0      -11.146943   -0.234163   -2.153008
     93          1           0      -12.436496   -0.401350   -1.488485
     94          7           0       -4.935387    2.843114   -0.559346
     95          6           0       -5.590823    3.152991   -1.697619
     96          6           0       -5.184951    4.526292   -2.034457
     97          6           0       -4.110252    4.942138   -1.092750
     98          6           0       -3.868711    3.692417   -0.399977
     99          6           0       -5.858330    5.334251   -3.105526
    100          6           0       -3.406325    6.245269   -0.863571
    101          8           0       -2.339434    6.319116   -0.157082
    102          6           0       -3.949643    7.416440   -1.566894
    103          7           0       -3.061232    1.188103    1.159866
    104          6           0       -2.309150    2.294945    1.028688
    105          6           0       -1.054051    2.203707    1.863426
    106          6           0       -1.237691    0.902247    2.774514
    107          6           0       -2.586951    0.394040    2.220785
    108          6           0        0.256816    2.098414    1.084367
    109          6           0       -1.092788    1.091488    4.309390
    110          6           0       -2.234053    1.931567    4.835850
    111          7           0       -5.199171   -0.786506    1.419787
    112          6           0       -4.250759   -1.412384    2.258166
    113          6           0       -4.782057   -2.749168    2.594542
    114          6           0       -6.001697   -2.817762    1.904433
    115          6           0       -6.205889   -1.617002    1.172324
    116          6           0       -4.128701   -3.726094    3.397578
    117          6           0       -7.157821   -3.637126    1.620322
    118          8           0       -7.576840   -4.719585    2.028298
    119          6           0       -7.965780   -2.973360    0.423236
    120          6           0       -9.420065   -2.940918    0.806048
    121          8           0       -9.807830   -2.239458    1.756938
    122          8           0      -10.139471   -3.567991   -0.142421
    123          6           0      -11.589671   -3.552422    0.186956
    124          1           0       -6.637597    2.624187   -3.459092
    125          1           0       -1.982500    4.125393    0.425224
    126          1           0       -2.548736   -1.411812    3.332713
    127          1           0       -8.832220   -1.638012   -2.279468
    128          1           0       -8.598671    0.933446   -3.406465
    129          1           0       -6.966883   -1.556873   -3.681626
    130          1           0       -6.067283   -0.045850   -3.930279
    131          1           0       -7.435252   -0.365784   -4.952999
    132          1           0       -9.813704    1.072977   -1.355887
    133          1           0      -10.098502   -0.348000   -0.285883
    134          1           0      -10.996370   -1.020091   -2.903060
    135          1           0      -11.320207    0.669368   -2.742605
    136          1           0       -6.499994    4.708410   -3.737984
    137          1           0       -5.072112    5.687427   -3.781553
    138          1           0       -6.395706    6.197385   -2.706924
    139          1           0       -3.938665    7.231402   -2.638393
    140          1           0       -3.369066    8.268350   -1.207651
    141          1           0       -4.999721    7.540908   -1.279753
    142          1           0       -0.952494    3.070368    2.505059
    143          1           0       -0.490323    0.130627    2.538120
    144          1           0        0.979169    2.897941    1.335415
    145          1           0        0.027525    2.111348    0.027111
    146          1           0        0.784912    1.152822    1.194685
    147          1           0       -0.174208    1.637213    4.538641
    148          1           0       -1.057417    0.156450    4.858442
    149          1           0       -1.897925    2.954380    4.641003
    150          1           0       -2.377134    1.759231    5.900685
    151          1           0       -3.146283    1.767251    4.250631
    152          1           0       -4.879999   -4.140414    4.056660
    153          1           0       -3.302784   -3.292609    3.957678
    154          1           0       -3.782301   -4.415401    2.622892
    155          1           0       -7.790045   -3.579382   -0.466382
    156          1           0      -11.929493   -4.592700    0.182541
    157          1           0      -12.055226   -2.867319   -0.546276
    158          1           0      -11.873514   -3.241453    1.185552
 ---------------------------------------------------------------------

 SCF Done:  E(RCAM-B3LYP) =  -4069.81192757     A.U. after   19 cycles

 Excitation energies and oscillator strengths:

 Excited State   1:      Singlet-A      1.6556 eV  748.86 nm  f=0.0037  <S**2>=0.000
     309 -> 315       -0.11213
     310 -> 316        0.12628
     311 -> 313       -0.45463
     312 -> 314        0.51530
 This state for optimization and/or second-order correction.
 Total Energy, E(TD-HF/TD-DFT) =  -4069.75108367
 Copying the excited state density for this state as the 1-particle RhoCI density.

 Excited State   2:      Singlet-A      1.6977 eV  730.29 nm  f=0.7127  <S**2>=0.000
     309 -> 315        0.13521
     310 -> 316        0.11834
     311 -> 313        0.51341
     312 -> 314        0.45294

 Excited State   3:      Singlet-A      2.1837 eV  567.78 nm  f=0.0763  <S**2>=0.000
     309 -> 313       -0.17775
     310 -> 314        0.61837
     312 -> 316       -0.26066

 Excited State   4:      Singlet-A      2.1956 eV  564.69 nm  f=0.1183  <S**2>=0.000
     309 -> 313        0.61537
     310 -> 314        0.17514
     311 -> 315       -0.26924

 Excited State   5:      Singlet-A      2.4776 eV  500.42 nm  f=0.0000  <S**2>=0.000
     312 -> 313        0.70667

 The electronic state is 1-A.
 Alpha  occ. eigenvalues --  -46.87877 -46.87485 -19.26320 -19.26218 -19.19065
 Alpha  occ. eigenvalues --  -19.19023 -19.18790 -19.18577 -19.18214 -19.17876
 Alpha  occ. eigenvalues --  -14.42516 -14.42327 -14.41528 -14.41179 -14.39462
 Alpha  occ. eigenvalues --  -14.39183 -14.38664 -14.38418 -10.39125 -10.38949
 Alpha  occ. eigenvalues --  -10.35419 -10.35259 -10.34436 -10.34054 -10.31703
 Alpha  occ. eigenvalues --  -10.31641 -10.31476 -10.31135 -10.30957 -10.30874
 Alpha  occ. eigenvalues --  -10.30641 -10.30574 -10.30277 -10.30213 -10.30177
 Alpha  occ. eigenvalues --  -10.30006 -10.29962 -10.29702 -10.29684 -10.29308
 Alpha  occ. eigenvalues --  -10.29265 -10.29224 -10.28799 -10.28585 -10.28585
 Alpha  occ. eigenvalues --  -10.28555 -10.28420 -10.28240 -10.28170 -10.28002
 Alpha  occ. eigenvalues --  -10.27844 -10.27824 -10.27790 -10.27626 -10.27617
 Alpha  occ. eigenvalues --  -10.27545 -10.27503 -10.27495 -10.27463 -10.27357
 Alpha  occ. eigenvalues --  -10.27313 -10.27311 -10.27301 -10.27206 -10.27192
 Alpha  occ. eigenvalues --  -10.26886 -10.26754 -10.26575 -10.26373 -10.26326
 Alpha  occ. eigenvalues --  -10.26316 -10.26282 -10.26101 -10.25968 -10.25912
 Alpha  occ. eigenvalues --  -10.25894 -10.25737 -10.25573 -10.25501 -10.25239
 Alpha  occ. eigenvalues --  -10.24984 -10.24887 -10.24855 -10.24690 -10.24583
 Alpha  occ. eigenvalues --  -10.24515  -3.16617  -3.16235  -1.91499  -1.91117
 Alpha  occ. eigenvalues --   -1.91085  -1.90927  -1.90706  -1.90543  -1.16670
 Alpha  occ. eigenvalues --   -1.16511  -1.08673  -1.08484  -1.07185  -1.06832
 Alpha  occ. eigenvalues --   -1.06807  -1.06686  -1.04644  -1.04328  -1.03831
 Alpha  occ. eigenvalues --   -1.03489  -1.03300  -1.02858  -1.02480  -1.01934
 Alpha  occ. eigenvalues --   -0.92031  -0.91815  -0.89628  -0.89314  -0.89243
 Alpha  occ. eigenvalues --   -0.89009  -0.88387  -0.88042  -0.87932  -0.87736
 Alpha  occ. eigenvalues --   -0.87588  -0.87514  -0.87292  -0.86978  -0.85034
 Alpha  occ. eigenvalues --   -0.84853  -0.84056  -0.83706  -0.82984  -0.82800
 Alpha  occ. eigenvalues --   -0.82683  -0.82511  -0.81638  -0.81438  -0.80644
 Alpha  occ. eigenvalues --   -0.80285  -0.78836  -0.78472  -0.77296  -0.77000
 Alpha  occ. eigenvalues --   -0.76986  -0.76746  -0.75978  -0.75687  -0.74981
 Alpha  occ. eigenvalues --   -0.74638  -0.72843  -0.72516  -0.71734  -0.71417
 Alpha  occ. eigenvalues --   -0.70057  -0.69586  -0.68922  -0.68680  -0.67690
 Alpha  occ. eigenvalues --   -0.67437  -0.67253  -0.67067  -0.65347  -0.65123
 Alpha  occ. eigenvalues --   -0.64921  -0.64690  -0.64600  -0.64497  -0.64365
 Alpha  occ. eigenvalues --   -0.64029  -0.62354  -0.62124  -0.60483  -0.60183
 Alpha  occ. eigenvalues --   -0.59859  -0.59642  -0.59055  -0.58819  -0.58566
 Alpha  occ. eigenvalues --   -0.58258  -0.57637  -0.57388  -0.57373  -0.57068
 Alpha  occ. eigenvalues --   -0.56358  -0.56033  -0.56022  -0.55744  -0.55549
 Alpha  occ. eigenvalues --   -0.55429  -0.55303  -0.55073  -0.54607  -0.54326
 Alpha  occ. eigenvalues --   -0.53947  -0.53772  -0.53355  -0.53245  -0.53065
 Alpha  occ. eigenvalues --   -0.52992  -0.52979  -0.52770  -0.52753  -0.52586
 Alpha  occ. eigenvalues --   -0.52546  -0.52234  -0.51980  -0.51650  -0.51649
 Alpha  occ. eigenvalues --   -0.51521  -0.51269  -0.51032  -0.50571  -0.50353
 Alpha  occ. eigenvalues --   -0.50134  -0.49938  -0.49838  -0.49706  -0.49542
 Alpha  occ. eigenvalues --   -0.49346  -0.49257  -0.49144  -0.49049  -0.48944
 Alpha  occ. eigenvalues --   -0.48649  -0.48531  -0.48450  -0.48399  -0.48201
 Alpha  occ. eigenvalues --   -0.48196  -0.47748  -0.47447  -0.47342  -0.46963
 Alpha  occ. eigenvalues --   -0.46881  -0.46604  -0.46539  -0.46429  -0.46412
 Alpha  occ. eigenvalues --   -0.46234  -0.46101  -0.45909  -0.45880  -0.45643
 Alpha  occ. eigenvalues --   -0.45291  -0.45047  -0.44640  -0.44550  -0.44365
 Alpha  occ. eigenvalues --   -0.44312  -0.44230  -0.44137  -0.44044  -0.43979
 Alpha  occ. eigenvalues --   -0.43920  -0.43792  -0.43553  -0.43450  -0.43400
 Alpha  occ. eigenvalues --   -0.43228  -0.43095  -0.42807  -0.42783  -0.42733
 Alpha  occ. eigenvalues --   -0.42723  -0.42387  -0.42115  -0.41804  -0.41765
 Alpha  occ. eigenvalues --   -0.41592  -0.41504  -0.41310  -0.41200  -0.40953
 Alpha  occ. eigenvalues --   -0.40828  -0.40814  -0.40664  -0.40592  -0.40554
 Alpha  occ. eigenvalues --   -0.40322  -0.40273  -0.40104  -0.39607  -0.39250
 Alpha  occ. eigenvalues --   -0.38564  -0.38178  -0.37803  -0.37519  -0.37410
 Alpha  occ. eigenvalues --   -0.37318  -0.37092  -0.37044  -0.36773  -0.36626
 Alpha  occ. eigenvalues --   -0.36262  -0.36052  -0.34355  -0.34079  -0.33819
 Alpha  occ. eigenvalues --   -0.33717  -0.33251  -0.32999  -0.31327  -0.31134
 Alpha  occ. eigenvalues --   -0.31092  -0.30803  -0.30076  -0.29780  -0.29491
 Alpha  occ. eigenvalues --   -0.29380  -0.29164  -0.29025  -0.24150  -0.23857
 Alpha  occ. eigenvalues --   -0.21193  -0.20942
 Alpha virt. eigenvalues --   -0.08828  -0.08619  -0.01813  -0.01519  -0.00078
 Alpha virt. eigenvalues --    0.00120   0.02143   0.02389   0.02627   0.03391
 Alpha virt. eigenvalues --    0.04652   0.04889   0.05052   0.05309   0.06085

 Mulliken charges:
               1
     1  Mg   0.835046
     2  C   -0.002780
     3  C   -0.093831
     4  C   -0.046116
     5  C   -0.064440
     6  N   -0.256609
     7  C   -0.052722
     8  C   -0.013921
     9  C   -0.087073
    10  C    0.046519
    11  C    0.104765
    12  C    0.053398
    13  C   -0.071805
    14  H    0.036137
    15  N   -0.433495
    16  C    0.168882
    17  C   -0.176727
    18  C   -0.003154
    19  C    0.148900
    20  C    0.110201
    21  C    0.013679
    22  O   -0.248947
    23  C    0.061986
    24  N   -0.340745
    25  C    0.041014
    26  C   -0.028416
    27  C   -0.024072
    28  C    0.073977
    29  C    0.076038
    30  C    0.036560
    31  C   -0.009351
    32  N   -0.310287
    33  C    0.079269
    34  C   -0.170519
    35  C    0.008392
    36  C    0.082154
    37  C    0.127439
    38  C    0.045915
    39  O   -0.188186
    40  C   -0.005296
    41  C    0.213002
    42  O   -0.257377
    43  O   -0.304748
    44  C    0.157546
    45  H   -0.017334
    46  H   -0.016461
    47  H   -0.042038
    48  H    0.001070
    49  H   -0.003931
    50  H    0.025615
    51  H    0.016521
    52  H    0.016815
    53  H    0.011221
    54  H    0.044080
    55  H    0.017990
    56  H    0.017890
    57  H    0.005677
    58  H    0.027079
    59  H    0.040436
    60  H    0.036561
    61  H    0.037089
    62  H    0.033067
    63  H    0.016530
    64  H    0.009956
    65  H    0.023708
    66  H    0.012945
    67  H    0.004918
    68  H    0.007055
    69  H    0.004563
    70  H    0.009611
    71  H    0.019093
    72  H    0.027913
    73  H    0.047311
    74  H    0.008627
    75  H    0.046338
    76  H    0.035362
    77  H    0.043250
    78  H    0.046333
    79  H    0.053908
    80  Mg   0.838114
    81  C   -0.017024
    82  C   -0.088225
    83  C   -0.046026
    84  C   -0.062639
    85  N   -0.254545
    86  C   -0.049584
    87  C   -0.015102
    88  C   -0.090534
    89  C    0.045792
    90  C    0.114526
    91  C    0.062620
    92  C   -0.077653
    93  H    0.034532
    94  N   -0.423300
    95  C    0.162742
    96  C   -0.175447
    97  C   -0.008300
    98  C    0.151922
    99  C    0.099754
   100  C    0.014797
   101  O   -0.253048
   102  C    0.061307
   103  N   -0.349860
   104  C    0.037361
   105  C   -0.020536
   106  C   -0.035867
   107  C    0.089066
   108  C    0.070658
   109  C    0.031703
   110  C   -0.007583
   111  N   -0.324352
   112  C    0.078407
   113  C   -0.161987
   114  C    0.002365
   115  C    0.096507
   116  C    0.131686
   117  C    0.042808
   118  O   -0.187674
   119  C    0.000780
   120  C    0.211174
   121  O   -0.251224
   122  O   -0.305588
   123  C    0.152147
   124  H   -0.020528
   125  H   -0.015467
   126  H   -0.039050
   127  H   -0.000759
   128  H   -0.004834
   129  H    0.022744
   130  H    0.014426
   131  H    0.015487
   132  H    0.013811
   133  H    0.037651
   134  H    0.020658
   135  H    0.019306
   136  H    0.008337
   137  H    0.024940
   138  H    0.039299
   139  H    0.037348
   140  H    0.036058
   141  H    0.033862
   142  H    0.014611
   143  H    0.015589
   144  H    0.029279
   145  H    0.011083
   146  H    0.006457
   147  H    0.008824
   148  H    0.003570
   149  H    0.010755
   150  H    0.017025
   151  H    0.030084
   152  H    0.045359
   153  H    0.008841
   154  H    0.049902
   155  H    0.035249
   156  H    0.043779
   157  H    0.049235
   158  H    0.053428
 Sum of Mulliken charges =  -0.00000

 Dipole moment (field-independent basis, Debye):
    X=              2.2034    Y=              4.3711    Z=             -7.2431  Tot=              8.7421
 Quadrupole moment (field-independent basis, Debye-Ang):
   XX=           -478.1335   YY=           -559.1304   ZZ=           -455.7402
   XY=            -20.8699   XZ=             27.4286   YZ=             -0.3451

 Normal termination of Gaussian 16 at Sat Sep 11 00:36:08 2021.
