 Gaussian 16, Revision A.03,
 Gaussian 16:  ES64L-G16RevA.03 25-Dec-2016

 -----------------------------------
 #p cam-b3lyp/Def2SVP td=(nstates=5)
 -----------------------------------

 --------------------------------
 TDDFT excited states in gaussian
 --------------------------------
 Symbolic Z-matrix:
 Charge =  0 Multiplicity = 1

                         Standard orientation:
 ---------------------------------------------------------------------
 Center     Atomic      Atomic             Coordinates (Angstroms)
 Number     Number       Type             X           Y           Z
 ---------------------------------------------------------------------
      1         12           0        6.749460   -0.567382    0.694766
      2          6           0        7.109461    2.391563   -1.286966
      3          6           0        7.330496    1.378029    3.437181
      4          6           0        6.887345   -3.226515    2.417153
      5          6           0        7.325123   -2.404977   -2.209975
      6          7           0        7.153334    1.597698    0.918291
      7          6           0        7.205533    2.632461    0.085398
      8          6           0        7.296285    4.007179    0.812921
      9          6           0        7.922352    3.519351    2.195695
     10          6           0        7.409846    2.089946    2.203524
     11          6           0        9.447432    3.494362    2.198877
     12          6           0        5.890106    4.663852    1.020697
     13          6           0        5.911990    6.141046    1.424149
     14          1           0        4.869235    7.020735    0.918030
     15          7           0        6.579740   -0.841633    2.643825
     16          6           0        6.842228    0.065482    3.615179
     17          6           0        6.563916   -0.617667    4.896792
     18          6           0        6.300904   -2.053129    4.599528
     19          6           0        6.608535   -2.103863    3.193055
     20          6           0        6.518439    0.092534    6.214858
     21          6           0        5.854805   -3.199808    5.450560
     22          8           0        5.912118   -4.410792    5.044597
     23          6           0        5.426222   -2.872017    6.822388
     24          7           0        7.277514   -2.533248    0.231989
     25          6           0        7.194344   -3.504038    1.148304
     26          6           0        7.346641   -4.859146    0.523463
     27          6           0        7.309136   -4.624593   -1.055566
     28          6           0        7.218511   -3.078627   -1.062414
     29          6           0        8.622144   -5.627933    0.895044
     30          6           0        6.257945   -5.428631   -1.861135
     31          6           0        4.866214   -4.959940   -1.499871
     32          7           0        6.973182   -0.127209   -1.418819
     33          6           0        7.229129   -1.044187   -2.448536
     34          6           0        7.405998   -0.264362   -3.687349
     35          6           0        7.256108    1.061824   -3.286587
     36          6           0        7.027800    1.109126   -1.881621
     37          6           0        7.726511   -0.795487   -4.967822
     38          6           0        7.260197    2.451402   -3.714271
     39          8           0        7.310982    3.023076   -4.804272
     40          6           0        7.286683    3.374803   -2.417176
     41          6           0        6.237614    4.438369   -2.594914
     42          8           0        5.025063    4.143936   -2.614810
     43          8           0        6.806113    5.647931   -2.475292
     44          6           0        5.814418    6.747940   -2.611955
     45          1           0        7.731786    1.841285    4.340674
     46          1           0        6.834816   -4.175926    2.954087
     47          1           0        7.423553   -2.915192   -3.169894
     48          1           0        7.960171    4.729773    0.338014
     49          1           0        7.517205    4.071819    3.043255
     50          1           0        9.851212    3.693008    1.206192
     51          1           0        9.721414    2.491702    2.527662
     52          1           0        9.844429    4.175575    2.951949
     53          1           0        5.421226    4.236395    1.906977
     54          1           0        5.272243    4.542426    0.130288
     55          1           0        6.895721    6.583344    1.264294
     56          1           0        5.758907    6.203124    2.501605
     57          1           0        6.915085    1.104167    6.138594
     58          1           0        7.213208   -0.422352    6.878106
     59          1           0        5.519446    0.084543    6.651070
     60          1           0        6.248078   -2.387676    7.350134
     61          1           0        5.057604   -3.802509    7.252686
     62          1           0        4.619008   -2.140517    6.774829
     63          1           0        6.524478   -5.515046    0.806782
     64          1           0        8.257846   -4.877896   -1.529340
     65          1           0        8.430816   -6.607405    1.334058
     66          1           0        9.206919   -5.004123    1.570462
     67          1           0        9.323177   -5.774398    0.073754
     68          1           0        6.315482   -6.486987   -1.609109
     69          1           0        6.381037   -5.337542   -2.940395
     70          1           0        4.646530   -5.524652   -0.594514
     71          1           0        4.162756   -5.208316   -2.295275
     72          1           0        4.858634   -3.902629   -1.234311
     73          1           0        7.088367   -0.275470   -5.682190
     74          1           0        7.563576   -1.872472   -5.001877
     75          1           0        8.781306   -0.530317   -5.038164
     76          1           0        8.289553    3.795740   -2.352482
     77          1           0        6.166482    7.400015   -3.411381
     78          1           0        5.695516    7.183027   -1.619500
     79          1           0        4.832141    6.466768   -2.993286
     80         12           0       -6.407662   -0.739927   -0.605706
     81          6           0       -8.763009    1.585522    0.781283
     82          6           0       -4.852556    1.928395   -2.053571
     83          6           0       -4.590405   -2.792388   -2.203339
     84          6           0       -8.752289   -3.250841   -0.019418
     85          7           0       -6.845411    1.427817   -0.566678
     86          6           0       -7.730206    2.201407    0.044102
     87          6           0       -7.448217    3.722838   -0.079577
     88          6           0       -6.575385    3.696838   -1.427310
     89          6           0       -6.023606    2.275757   -1.333789
     90          6           0       -7.414589    3.801243   -2.689915
     91          6           0       -6.618706    4.277368    1.131376
     92          6           0       -6.571467    5.803511    1.233420
     93          1           0       -6.563171    6.412426    2.560688
     94          7           0       -4.669425   -0.470831   -1.524783
     95          6           0       -4.185992    0.683631   -2.029555
     96          6           0       -2.880854    0.349139   -2.620225
     97          6           0       -2.707382   -1.128004   -2.568712
     98          6           0       -4.019978   -1.531576   -2.105761
     99          6           0       -1.908326    1.392307   -3.088656
    100          6           0       -1.555426   -2.029238   -2.895785
    101          8           0       -1.702846   -3.297766   -3.005063
    102          6           0       -0.269512   -1.374041   -3.176182
    103          7           0       -6.714398   -2.694818   -1.243380
    104          6           0       -5.741509   -3.377633   -1.872020
    105          6           0       -6.090461   -4.842282   -1.987922
    106          6           0       -7.396933   -5.045166   -1.088177
    107          6           0       -7.639656   -3.581023   -0.660659
    108          6           0       -6.363456   -5.351123   -3.403176
    109          6           0       -7.328869   -6.135884    0.015625
    110          6           0       -6.345241   -5.724788    1.087473
    111          7           0       -8.319707   -0.880714    0.390450
    112          6           0       -9.144312   -2.022160    0.496380
    113          6           0      -10.392697   -1.597120    1.162181
    114          6           0      -10.215800   -0.222180    1.378420
    115          6           0       -8.955184    0.185184    0.864246
    116          6           0      -11.511777   -2.431052    1.442083
    117          6           0      -10.813313    0.979298    1.915187
    118          8           0      -11.834370    1.231155    2.553740
    119          6           0       -9.952684    2.227889    1.439047
    120          6           0       -9.703317    3.103805    2.636166
    121          8           0       -9.007002    2.697049    3.582901
    122          8           0      -10.143145    4.347524    2.371433
    123          6           0       -9.907783    5.256121    3.525061
    124          1           0       -4.424967    2.664377   -2.735033
    125          1           0       -3.956936   -3.563377   -2.648043
    126          1           0       -9.491655   -3.993757    0.287318
    127          1           0       -8.328951    4.338228   -0.218795
    128          1           0       -5.767458    4.422877   -1.388713
    129          1           0       -8.472059    3.756627   -2.475646
    130          1           0       -7.118574    2.965123   -3.309850
    131          1           0       -7.144085    4.701588   -3.248961
    132          1           0       -5.554679    4.067319    0.962658
    133          1           0       -6.971779    3.864130    2.056147
    134          1           0       -7.323943    6.282769    0.595431
    135          1           0       -5.617262    6.149020    0.828285
    136          1           0       -2.379202    2.380959   -3.153660
    137          1           0       -1.649470    1.146125   -4.124152
    138          1           0       -0.994199    1.414345   -2.491528
    139          1           0       -0.387708   -0.689908   -4.013111
    140          1           0        0.450770   -2.185018   -3.300160
    141          1           0        0.009338   -0.765153   -2.308943
    142          1           0       -5.293632   -5.461926   -1.595229
    143          1           0       -8.265732   -5.344111   -1.692880
    144          1           0       -5.711576   -6.195483   -3.696739
    145          1           0       -6.247857   -4.524346   -4.091377
    146          1           0       -7.388435   -5.666385   -3.590887
    147          1           0       -6.957979   -7.074996   -0.402302
    148          1           0       -8.288754   -6.345090    0.475911
    149          1           0       -5.382243   -6.034494    0.670575
    150          1           0       -6.556512   -6.243284    2.020513
    151          1           0       -6.319935   -4.634799    1.201274
    152          1           0      -11.835561   -2.190992    2.446091
    153          1           0      -11.256312   -3.484370    1.347081
    154          1           0      -12.200085   -2.103307    0.658444
    155          1           0      -10.523694    2.743776    0.666142
    156          1           0      -10.875127    5.694641    3.788922
    157          1           0       -9.111328    5.951616    3.199935
    158          1           0       -9.615956    4.805580    4.466496
 ---------------------------------------------------------------------

 SCF Done:  E(RCAM-B3LYP) =  -4069.81233861     A.U. after   19 cycles

 Excitation energies and oscillator strengths:

 Excited State   1:      Singlet-A      1.6667 eV  743.87 nm  f=0.1931  <S**2>=0.000
     309 -> 315        0.11199
     310 -> 316        0.13086
     311 -> 313       -0.44496
     312 -> 314        0.52280
 This state for optimization and/or second-order correction.
 Total Energy, E(TD-HF/TD-DFT) =  -4069.75108716
 Copying the excited state density for this state as the 1-particle RhoCI density.

 Excited State   2:      Singlet-A      1.6881 eV  734.45 nm  f=0.5779  <S**2>=0.000
     309 -> 315       -0.13552
     310 -> 316        0.11462
     311 -> 313        0.52179
     312 -> 314        0.44427

 Excited State   3:      Singlet-A      2.1875 eV  566.79 nm  f=0.0314  <S**2>=0.000
     309 -> 313       -0.23968
     310 -> 314        0.59639
     311 -> 315       -0.10148
     312 -> 316       -0.25397

 Excited State   4:      Singlet-A      2.1947 eV  564.93 nm  f=0.1566  <S**2>=0.000
     309 -> 313        0.59431
     310 -> 314        0.23807
     311 -> 315        0.25948
     312 -> 316       -0.10391

 Excited State   5:      Singlet-A      2.6325 eV  470.97 nm  f=0.0000  <S**2>=0.000
     312 -> 313        0.70697

 The electronic state is 1-A.
 Alpha  occ. eigenvalues --  -46.87890 -46.87517 -19.26495 -19.26274 -19.19245
 Alpha  occ. eigenvalues --  -19.19077 -19.18859 -19.18504 -19.18298 -19.17923
 Alpha  occ. eigenvalues --  -14.42545 -14.42355 -14.41527 -14.41218 -14.39490
 Alpha  occ. eigenvalues --  -14.39199 -14.38689 -14.38457 -10.39292 -10.39003
 Alpha  occ. eigenvalues --  -10.35489 -10.35169 -10.34522 -10.34104 -10.31905
 Alpha  occ. eigenvalues --  -10.31700 -10.31511 -10.31175 -10.31008 -10.30868
 Alpha  occ. eigenvalues --  -10.30669 -10.30594 -10.30262 -10.30256 -10.30214
 Alpha  occ. eigenvalues --  -10.29996 -10.29985 -10.29770 -10.29717 -10.29332
 Alpha  occ. eigenvalues --  -10.29270 -10.29232 -10.28875 -10.28705 -10.28597
 Alpha  occ. eigenvalues --  -10.28576 -10.28464 -10.28250 -10.28227 -10.28010
 Alpha  occ. eigenvalues --  -10.27885 -10.27844 -10.27816 -10.27665 -10.27538
 Alpha  occ. eigenvalues --  -10.27515 -10.27513 -10.27506 -10.27470 -10.27398
 Alpha  occ. eigenvalues --  -10.27342 -10.27302 -10.27287 -10.27260 -10.27122
 Alpha  occ. eigenvalues --  -10.26935 -10.26868 -10.26591 -10.26425 -10.26330
 Alpha  occ. eigenvalues --  -10.26145 -10.26091 -10.26088 -10.26033 -10.25937
 Alpha  occ. eigenvalues --  -10.25896 -10.25791 -10.25734 -10.25453 -10.25292
 Alpha  occ. eigenvalues --  -10.24934 -10.24864 -10.24723 -10.24628 -10.24607
 Alpha  occ. eigenvalues --  -10.24549  -3.16634  -3.16267  -1.91516  -1.91149
 Alpha  occ. eigenvalues --   -1.91102  -1.90944  -1.90738  -1.90574  -1.16845
 Alpha  occ. eigenvalues --   -1.16565  -1.08765  -1.08537  -1.07257  -1.06862
 Alpha  occ. eigenvalues --   -1.06860  -1.06757  -1.04679  -1.04351  -1.03841
 Alpha  occ. eigenvalues --   -1.03518  -1.03322  -1.02894  -1.02499  -1.01966
 Alpha  occ. eigenvalues --   -0.92082  -0.91850  -0.89566  -0.89362  -0.89303
 Alpha  occ. eigenvalues --   -0.89026  -0.88327  -0.88095  -0.87966  -0.87765
 Alpha  occ. eigenvalues --   -0.87656  -0.87541  -0.87340  -0.86889  -0.85091
 Alpha  occ. eigenvalues --   -0.84867  -0.83971  -0.83757  -0.83005  -0.82746
 Alpha  occ. eigenvalues --   -0.82721  -0.82479  -0.81723  -0.81483  -0.80701
 Alpha  occ. eigenvalues --   -0.80304  -0.78874  -0.78440  -0.77297  -0.77042
 Alpha  occ. eigenvalues --   -0.76996  -0.76783  -0.76037  -0.75702  -0.74953
 Alpha  occ. eigenvalues --   -0.74675  -0.72858  -0.72553  -0.71760  -0.71447
 Alpha  occ. eigenvalues --   -0.69914  -0.69638  -0.68974  -0.68686  -0.67733
 Alpha  occ. eigenvalues --   -0.67456  -0.67329  -0.67045  -0.65402  -0.65145
 Alpha  occ. eigenvalues --   -0.64959  -0.64715  -0.64637  -0.64527  -0.64319
 Alpha  occ. eigenvalues --   -0.64076  -0.62441  -0.62171  -0.60505  -0.60144
 Alpha  occ. eigenvalues --   -0.59912  -0.59660  -0.59077  -0.58857  -0.58598
 Alpha  occ. eigenvalues --   -0.58287  -0.57729  -0.57439  -0.57383  -0.57084
 Alpha  occ. eigenvalues --   -0.56406  -0.56135  -0.56047  -0.55770  -0.55602
 Alpha  occ. eigenvalues --   -0.55418  -0.55278  -0.55130  -0.54620  -0.54378
 Alpha  occ. eigenvalues --   -0.54013  -0.53785  -0.53375  -0.53321  -0.53079
 Alpha  occ. eigenvalues --   -0.53035  -0.52981  -0.52828  -0.52771  -0.52437
 Alpha  occ. eigenvalues --   -0.52434  -0.52282  -0.52015  -0.51759  -0.51726
 Alpha  occ. eigenvalues --   -0.51499  -0.51291  -0.51072  -0.50615  -0.50220
 Alpha  occ. eigenvalues --   -0.50068  -0.49981  -0.49800  -0.49716  -0.49608
 Alpha  occ. eigenvalues --   -0.49317  -0.49310  -0.49204  -0.49038  -0.48976
 Alpha  occ. eigenvalues --   -0.48715  -0.48537  -0.48507  -0.48428  -0.48254
 Alpha  occ. eigenvalues --   -0.48136  -0.47777  -0.47433  -0.47376  -0.46937
 Alpha  occ. eigenvalues --   -0.46875  -0.46670  -0.46574  -0.46446  -0.46415
 Alpha  occ. eigenvalues --   -0.46252  -0.46114  -0.45958  -0.45947  -0.45710
 Alpha  occ. eigenvalues --   -0.45247  -0.45080  -0.44693  -0.44575  -0.44387
 Alpha  occ. eigenvalues --   -0.44335  -0.44225  -0.44170  -0.44110  -0.43991
 Alpha  occ. eigenvalues --   -0.43931  -0.43739  -0.43623  -0.43472  -0.43446
 Alpha  occ. eigenvalues --   -0.43253  -0.43118  -0.42870  -0.42823  -0.42769
 Alpha  occ. eigenvalues --   -0.42687  -0.42409  -0.42069  -0.41844  -0.41800
 Alpha  occ. eigenvalues --   -0.41635  -0.41536  -0.41331  -0.41230  -0.40957
 Alpha  occ. eigenvalues --   -0.40883  -0.40855  -0.40614  -0.40586  -0.40518
 Alpha  occ. eigenvalues --   -0.40372  -0.40362  -0.40090  -0.39434  -0.39309
 Alpha  occ. eigenvalues --   -0.38519  -0.38230  -0.37876  -0.37539  -0.37380
 Alpha  occ. eigenvalues --   -0.37377  -0.37136  -0.37060  -0.36878  -0.36679
 Alpha  occ. eigenvalues --   -0.36296  -0.36098  -0.34380  -0.34114  -0.33974
 Alpha  occ. eigenvalues --   -0.33766  -0.33282  -0.33033  -0.31390  -0.31125
 Alpha  occ. eigenvalues --   -0.31070  -0.30827  -0.30162  -0.29832  -0.29534
 Alpha  occ. eigenvalues --   -0.29420  -0.29156  -0.29059  -0.24173  -0.23895
 Alpha  occ. eigenvalues --   -0.21214  -0.20967
 Alpha virt. eigenvalues --   -0.08861  -0.08634  -0.01829  -0.01537  -0.00136
 Alpha virt. eigenvalues --    0.00153   0.02098   0.02345   0.02973   0.03353
 Alpha virt. eigenvalues --    0.04613   0.04858   0.04900   0.05258   0.06035

 Mulliken charges:
               1
     1  Mg   0.837630
     2  C   -0.003828
     3  C   -0.094231
     4  C   -0.045406
     5  C   -0.063645
     6  N   -0.256868
     7  C   -0.052816
     8  C   -0.013921
     9  C   -0.087009
    10  C    0.046241
    11  C    0.104740
    12  C    0.053498
    13  C   -0.071612
    14  H    0.034983
    15  N   -0.433294
    16  C    0.168529
    17  C   -0.176964
    18  C   -0.003622
    19  C    0.148780
    20  C    0.110092
    21  C    0.012680
    22  O   -0.248943
    23  C    0.062313
    24  N   -0.341182
    25  C    0.041433
    26  C   -0.028312
    27  C   -0.024003
    28  C    0.074863
    29  C    0.076089
    30  C    0.034936
    31  C   -0.004779
    32  N   -0.310208
    33  C    0.079736
    34  C   -0.170173
    35  C    0.007983
    36  C    0.082075
    37  C    0.127468
    38  C    0.045236
    39  O   -0.189115
    40  C   -0.004996
    41  C    0.213166
    42  O   -0.259206
    43  O   -0.304247
    44  C    0.158018
    45  H   -0.017357
    46  H   -0.016204
    47  H   -0.041084
    48  H    0.000913
    49  H   -0.003952
    50  H    0.025506
    51  H    0.016734
    52  H    0.016890
    53  H    0.011233
    54  H    0.042770
    55  H    0.018288
    56  H    0.018415
    57  H    0.005882
    58  H    0.027201
    59  H    0.040075
    60  H    0.037344
    61  H    0.036290
    62  H    0.031825
    63  H    0.017330
    64  H    0.009470
    65  H    0.023644
    66  H    0.012364
    67  H    0.004894
    68  H    0.006906
    69  H    0.004733
    70  H    0.009608
    71  H    0.020823
    72  H    0.027216
    73  H    0.046799
    74  H    0.009609
    75  H    0.046178
    76  H    0.035432
    77  H    0.043202
    78  H    0.046666
    79  H    0.052242
    80  Mg   0.837390
    81  C   -0.016889
    82  C   -0.087411
    83  C   -0.045563
    84  C   -0.064968
    85  N   -0.254506
    86  C   -0.050324
    87  C   -0.015061
    88  C   -0.090484
    89  C    0.045583
    90  C    0.114354
    91  C    0.062516
    92  C   -0.077608
    93  H    0.033895
    94  N   -0.423651
    95  C    0.162797
    96  C   -0.174136
    97  C   -0.007581
    98  C    0.152159
    99  C    0.098973
   100  C    0.015239
   101  O   -0.254203
   102  C    0.061719
   103  N   -0.350037
   104  C    0.037680
   105  C   -0.019858
   106  C   -0.034609
   107  C    0.088574
   108  C    0.073758
   109  C    0.034831
   110  C   -0.007611
   111  N   -0.323935
   112  C    0.077950
   113  C   -0.163586
   114  C    0.001999
   115  C    0.095838
   116  C    0.131593
   117  C    0.042012
   118  O   -0.188687
   119  C    0.000983
   120  C    0.211200
   121  O   -0.251325
   122  O   -0.305577
   123  C    0.152201
   124  H   -0.018847
   125  H   -0.015714
   126  H   -0.040924
   127  H   -0.000956
   128  H   -0.004065
   129  H    0.022208
   130  H    0.014639
   131  H    0.016380
   132  H    0.014075
   133  H    0.037341
   134  H    0.020738
   135  H    0.019718
   136  H    0.009043
   137  H    0.027612
   138  H    0.043822
   139  H    0.040420
   140  H    0.035663
   141  H    0.035328
   142  H    0.014259
   143  H    0.012109
   144  H    0.024852
   145  H    0.011790
   146  H    0.005458
   147  H    0.005937
   148  H    0.003389
   149  H    0.010936
   150  H    0.017606
   151  H    0.030225
   152  H    0.045518
   153  H    0.008195
   154  H    0.046577
   155  H    0.034787
   156  H    0.043633
   157  H    0.049386
   158  H    0.053235
 Sum of Mulliken charges =  -0.00000

 Dipole moment (field-independent basis, Debye):
    X=              4.2291    Y=              2.9806    Z=              1.0818  Tot=              5.2859
 Quadrupole moment (field-independent basis, Debye-Ang):
   XX=           -537.7055   YY=           -465.6781   ZZ=           -520.1823
   XY=             11.5224   XZ=             59.8087   YZ=             25.4903

 Normal termination of Gaussian 16 at Sat Sep 11 04:14:10 2021.
