 Gaussian 16, Revision A.03,
 Gaussian 16:  ES64L-G16RevA.03 25-Dec-2016

 -----------------------------------
 #p cam-b3lyp/Def2SVP td=(nstates=5)
 -----------------------------------

 --------------------------------
 TDDFT excited states in gaussian
 --------------------------------
 Symbolic Z-matrix:
 Charge =  0 Multiplicity = 1

                         Standard orientation:
 ---------------------------------------------------------------------
 Center     Atomic      Atomic             Coordinates (Angstroms)
 Number     Number       Type             X           Y           Z
 ---------------------------------------------------------------------
      1         12           0        4.231247    0.197586    0.664907
      2          6           0        4.392258   -2.910500   -1.103168
      3          6           0        5.536987    1.677796   -2.118452
      4          6           0        4.523306    2.865818    2.353652
      5          6           0        4.025604   -1.656868    3.608437
      6          7           0        4.843508   -0.618546   -1.299708
      7          6           0        4.798165   -1.817502   -1.872089
      8          6           0        5.150749   -1.791458   -3.389449
      9          6           0        6.017294   -0.453575   -3.423598
     10          6           0        5.406892    0.261679   -2.231229
     11          6           0        7.500947   -0.681556   -3.152859
     12          6           0        3.877916   -1.672846   -4.293638
     13          6           0        4.102287   -1.967495   -5.779637
     14          1           0        3.048376   -2.635800   -6.527960
     15          7           0        4.460867    2.068825    0.074493
     16          6           0        4.995798    2.488463   -1.097275
     17          6           0        4.944691    3.965918   -1.062709
     18          6           0        4.511533    4.374411    0.302429
     19          6           0        4.506456    3.103821    0.981363
     20          6           0        5.238288    4.827441   -2.252385
     21          6           0        4.168366    5.700951    0.902979
     22          8           0        4.041626    5.864037    2.164690
     23          6           0        4.070182    6.838525   -0.029399
     24          7           0        4.491014    0.566965    2.702973
     25          6           0        4.529091    1.816555    3.178430
     26          6           0        4.436657    1.834206    4.675455
     27          6           0        4.081210    0.340539    5.114055
     28          6           0        4.113781   -0.329372    3.718194
     29          6           0        5.697208    2.297958    5.418393
     30          6           0        2.821916    0.147352    5.995687
     31          6           0        1.581088    0.481909    5.198496
     32          7           0        4.032169   -1.900533    1.183855
     33          6           0        3.988778   -2.449650    2.473530
     34          6           0        3.957904   -3.915579    2.318069
     35          6           0        4.002503   -4.119131    0.940236
     36          6           0        4.084221   -2.860942    0.277986
     37          6           0        3.954305   -4.866010    3.376890
     38          6           0        4.024981   -5.107694   -0.125640
     39          8           0        3.886684   -6.330689   -0.177119
     40          6           0        4.401028   -4.369660   -1.485685
     41          6           0        3.425696   -4.827165   -2.535793
     42          8           0        2.217512   -4.523378   -2.462506
     43          8           0        4.100469   -5.342113   -3.575048
     44          6           0        3.192663   -5.788368   -4.665414
     45          1           0        6.157458    2.210126   -2.842041
     46          1           0        4.511825    3.765594    2.972288
     47          1           0        3.875931   -2.297725    4.479272
     48          1           0        5.752817   -2.633778   -3.730675
     49          1           0        5.847649    0.117981   -4.335885
     50          1           0        7.697651   -1.710780   -2.852980
     51          1           0        7.758687    0.005705   -2.346797
     52          1           0        8.102328   -0.377217   -4.009886
     53          1           0        3.576987   -0.627041   -4.355239
     54          1           0        3.076404   -2.309233   -3.916920
     55          1           0        5.060951   -2.458875   -5.948220
     56          1           0        4.188423   -1.017410   -6.307006
     57          1           0        5.688209    4.253299   -3.061382
     58          1           0        6.015805    5.529856   -1.952735
     59          1           0        4.358179    5.375157   -2.589652
     60          1           0        5.021513    6.962572   -0.547212
     61          1           0        3.729634    7.685783    0.564764
     62          1           0        3.331900    6.603507   -0.796637
     63          1           0        3.644804    2.502890    5.010503
     64          1           0        4.883664   -0.117799    5.692560
     65          1           0        5.527275    3.146310    6.081813
     66          1           0        6.460289    2.529025    4.675692
     67          1           0        6.192680    1.524620    6.004800
     68          1           0        2.848095    0.825462    6.847994
     69          1           0        2.718307   -0.866770    6.381787
     70          1           0        1.516018    1.565299    5.292647
     71          1           0        0.706497   -0.001180    5.635448
     72          1           0        1.714089    0.254163    4.140701
     73          1           0        3.221403   -5.624870    3.103113
     74          1           0        3.703198   -4.397828    4.328391
     75          1           0        4.987284   -5.211770    3.341383
     76          1           0        5.424629   -4.656079   -1.725115
     77          1           0        3.416179   -6.837370   -4.860016
     78          1           0        3.323416   -5.082528   -5.485840
     79          1           0        2.132494   -5.846606   -4.416438
     80         12           0       -3.641527    0.809473   -0.201477
     81          6           0       -6.457977   -1.381558    0.180666
     82          6           0       -5.748729    3.005944   -1.740899
     83          6           0       -1.105446    2.561502   -0.953880
     84          6           0       -1.592033   -1.962413    0.310334
     85          7           0       -5.802906    0.711664   -0.660952
     86          6           0       -6.782992   -0.144048   -0.412939
     87          6           0       -8.201758    0.387411   -0.750925
     88          6           0       -7.791637    1.488293   -1.845800
     89          6           0       -6.370418    1.786183   -1.372413
     90          6           0       -7.718048    0.933601   -3.258679
     91          6           0       -8.904995    1.044141    0.488501
     92          6           0      -10.402709    1.305442    0.314390
     93          1           0      -11.275519    1.152278    1.475085
     94          7           0       -3.512150    2.712205   -0.750493
     95          6           0       -4.470972    3.455590   -1.341519
     96          6           0       -3.874255    4.782485   -1.559298
     97          6           0       -2.432060    4.713146   -1.198744
     98          6           0       -2.286054    3.289866   -0.968465
     99          6           0       -4.677987    5.975777   -1.987678
    100          6           0       -1.358577    5.753625   -1.092788
    101          8           0       -0.120577    5.436312   -0.995218
    102          6           0       -1.790690    7.154751   -1.200568
    103          7           0       -1.642632    0.333530   -0.518102
    104          6           0       -0.736963    1.292039   -0.780697
    105          6           0        0.670216    0.750456   -0.697402
    106          6           0        0.529081   -0.719903   -0.084465
    107          6           0       -1.010283   -0.811723    0.001100
    108          6           0        1.434973    0.679392   -2.018953
    109          6           0        1.360238   -1.034045    1.189570
    110          6           0        0.843115   -0.223311    2.356058
    111          7           0       -3.931311   -1.256769    0.359544
    112          6           0       -2.938396   -2.252175    0.491268
    113          6           0       -3.632656   -3.524559    0.776722
    114          6           0       -4.993410   -3.182834    0.768397
    115          6           0       -5.138014   -1.799488    0.476956
    116          6           0       -3.008265   -4.791420    0.953657
    117          6           0       -6.340863   -3.679977    0.929385
    118          8           0       -6.835751   -4.753464    1.270622
    119          6           0       -7.354890   -2.562010    0.431100
    120          6           0       -8.432120   -2.415380    1.470623
    121          8           0       -8.160956   -1.985072    2.605481
    122          8           0       -9.632162   -2.599185    0.890557
    123          6           0      -10.733420   -2.452748    1.879293
    124          1           0       -6.269998    3.664671   -2.436045
    125          1           0       -0.191406    3.142139   -1.098401
    126          1           0       -1.019152   -2.852401    0.579413
    127          1           0       -8.868091   -0.344643   -1.191238
    128          1           0       -8.414018    2.375770   -1.765913
    129          1           0       -7.838884   -0.139333   -3.277077
    130          1           0       -6.741288    1.210802   -3.633028
    131          1           0       -8.442525    1.441901   -3.901414
    132          1           0       -8.545946    2.075456    0.599043
    133          1           0       -8.740453    0.460604    1.373390
    134          1           0      -10.816298    0.772542   -0.550433
    135          1           0      -10.544834    2.361320    0.071637
    136          1           0       -5.676497    5.684194   -2.336036
    137          1           0       -4.189462    6.387687   -2.877361
    138          1           0       -4.724148    6.750411   -1.219254
    139          1           0       -2.289668    7.306392   -2.154753
    140          1           0       -0.896423    7.751734   -1.011407
    141          1           0       -2.535167    7.352189   -0.421219
    142          1           0        1.277278    1.351836   -0.031890
    143          1           0        0.850690   -1.491808   -0.799003
    144          1           0        2.390091    1.237514   -2.001074
    145          1           0        0.792058    1.051026   -2.805768
    146          1           0        1.666101   -0.326513   -2.365251
    147          1           0        2.402325   -0.738950    1.044217
    148          1           0        1.357679   -2.085020    1.458700
    149          1           0        1.340444    0.742414    2.225144
    150          1           0        1.123947   -0.687213    3.299433
    151          1           0       -0.236224   -0.052721    2.269058
    152          1           0       -3.491413   -5.261150    1.800070
    153          1           0       -1.937041   -4.687837    1.113464
    154          1           0       -3.236565   -5.257482   -0.008598
    155          1           0       -7.754944   -2.887455   -0.529944
    156          1           0      -11.323641   -3.373444    1.838830
    157          1           0      -11.249959   -1.511207    1.613881
    158          1           0      -10.463956   -2.420199    2.928479
 ---------------------------------------------------------------------

 SCF Done:  E(RCAM-B3LYP) =  -4069.77894637     A.U. after   19 cycles

 Excitation energies and oscillator strengths:

 Excited State   1:      Singlet-A      1.6230 eV  763.92 nm  f=0.0009  <S**2>=0.000
     309 -> 315        0.11249
     310 -> 316       -0.10899
     311 -> 313        0.49251
     312 -> 314       -0.48154
 This state for optimization and/or second-order correction.
 Total Energy, E(TD-HF/TD-DFT) =  -4069.71930226
 Copying the excited state density for this state as the 1-particle RhoCI density.

 Excited State   2:      Singlet-A      1.7102 eV  724.97 nm  f=0.6582  <S**2>=0.000
     309 -> 315        0.12768
     310 -> 316        0.12739
     311 -> 313        0.47766
     312 -> 314        0.48845

 Excited State   3:      Singlet-A      2.1637 eV  573.03 nm  f=0.0793  <S**2>=0.000
     309 -> 313        0.62217
     311 -> 315       -0.25807
     312 -> 313        0.17613

 Excited State   4:      Singlet-A      2.1795 eV  568.88 nm  f=0.1196  <S**2>=0.000
     310 -> 314        0.64134
     312 -> 316       -0.26241

 Excited State   5:      Singlet-A      2.2199 eV  558.52 nm  f=0.0059  <S**2>=0.000
     309 -> 313       -0.15978
     312 -> 313        0.68157

 The electronic state is 1-A.
 Alpha  occ. eigenvalues --  -46.88050 -46.87428 -19.26530 -19.26192 -19.19376
 Alpha  occ. eigenvalues --  -19.18994 -19.18739 -19.18539 -19.18248 -19.17839
 Alpha  occ. eigenvalues --  -14.42553 -14.42265 -14.41509 -14.41115 -14.39482
 Alpha  occ. eigenvalues --  -14.39135 -14.38352 -14.38297 -10.39374 -10.38919
 Alpha  occ. eigenvalues --  -10.35384 -10.35157 -10.34486 -10.34014 -10.31863
 Alpha  occ. eigenvalues --  -10.31619 -10.31594 -10.31057 -10.30966 -10.30846
 Alpha  occ. eigenvalues --  -10.30765 -10.30633 -10.30212 -10.30146 -10.30092
 Alpha  occ. eigenvalues --  -10.30051 -10.29875 -10.29708 -10.29656 -10.29210
 Alpha  occ. eigenvalues --  -10.29205 -10.29164 -10.28884 -10.28685 -10.28550
 Alpha  occ. eigenvalues --  -10.28528 -10.28304 -10.28244 -10.28205 -10.27956
 Alpha  occ. eigenvalues --  -10.27850 -10.27821 -10.27768 -10.27601 -10.27538
 Alpha  occ. eigenvalues --  -10.27435 -10.27367 -10.27353 -10.27330 -10.27309
 Alpha  occ. eigenvalues --  -10.27299 -10.27269 -10.27262 -10.27257 -10.27011
 Alpha  occ. eigenvalues --  -10.26901 -10.26849 -10.26544 -10.26428 -10.26330
 Alpha  occ. eigenvalues --  -10.26141 -10.25917 -10.25857 -10.25789 -10.25786
 Alpha  occ. eigenvalues --  -10.25771 -10.25575 -10.25360 -10.25355 -10.24987
 Alpha  occ. eigenvalues --  -10.24884 -10.24839 -10.24635 -10.24471 -10.24231
 Alpha  occ. eigenvalues --  -10.23459  -3.16804  -3.16178  -1.91706  -1.91256
 Alpha  occ. eigenvalues --   -1.91116  -1.91060  -1.90648  -1.90485  -1.16886
 Alpha  occ. eigenvalues --   -1.16483  -1.08732  -1.08446  -1.06969  -1.06950
 Alpha  occ. eigenvalues --   -1.06920  -1.06778  -1.04692  -1.04274  -1.03844
 Alpha  occ. eigenvalues --   -1.03431  -1.03332  -1.02793  -1.02490  -1.01876
 Alpha  occ. eigenvalues --   -0.92100  -0.91758  -0.89503  -0.89367  -0.89257
 Alpha  occ. eigenvalues --   -0.88969  -0.88246  -0.88141  -0.87877  -0.87780
 Alpha  occ. eigenvalues --   -0.87499  -0.87429  -0.87153  -0.86968  -0.85087
 Alpha  occ. eigenvalues --   -0.84814  -0.83966  -0.83731  -0.82904  -0.82754
 Alpha  occ. eigenvalues --   -0.82527  -0.82487  -0.81697  -0.81395  -0.80627
 Alpha  occ. eigenvalues --   -0.80250  -0.78767  -0.78428  -0.77294  -0.77109
 Alpha  occ. eigenvalues --   -0.76887  -0.76701  -0.76034  -0.75651  -0.74954
 Alpha  occ. eigenvalues --   -0.74557  -0.72829  -0.72477  -0.71757  -0.71356
 Alpha  occ. eigenvalues --   -0.70535  -0.69350  -0.68833  -0.68643  -0.67709
 Alpha  occ. eigenvalues --   -0.67400  -0.67240  -0.67056  -0.65452  -0.65143
 Alpha  occ. eigenvalues --   -0.64994  -0.64762  -0.64541  -0.64460  -0.64292
 Alpha  occ. eigenvalues --   -0.63983  -0.62440  -0.62097  -0.60394  -0.60190
 Alpha  occ. eigenvalues --   -0.59940  -0.59596  -0.59066  -0.58789  -0.58567
 Alpha  occ. eigenvalues --   -0.58235  -0.57745  -0.57342  -0.57291  -0.57104
 Alpha  occ. eigenvalues --   -0.56528  -0.56155  -0.55985  -0.55773  -0.55708
 Alpha  occ. eigenvalues --   -0.55459  -0.55291  -0.55233  -0.54726  -0.54299
 Alpha  occ. eigenvalues --   -0.54056  -0.53732  -0.53394  -0.53274  -0.53193
 Alpha  occ. eigenvalues --   -0.53024  -0.52990  -0.52839  -0.52711  -0.52562
 Alpha  occ. eigenvalues --   -0.52544  -0.52247  -0.51989  -0.51634  -0.51543
 Alpha  occ. eigenvalues --   -0.51484  -0.51355  -0.51012  -0.50434  -0.50289
 Alpha  occ. eigenvalues --   -0.50145  -0.49974  -0.49793  -0.49507  -0.49462
 Alpha  occ. eigenvalues --   -0.49345  -0.49213  -0.49139  -0.49008  -0.48902
 Alpha  occ. eigenvalues --   -0.48666  -0.48402  -0.48358  -0.48343  -0.48233
 Alpha  occ. eigenvalues --   -0.48013  -0.47655  -0.47421  -0.47276  -0.47013
 Alpha  occ. eigenvalues --   -0.46914  -0.46813  -0.46601  -0.46512  -0.46434
 Alpha  occ. eigenvalues --   -0.46319  -0.46010  -0.45914  -0.45808  -0.45568
 Alpha  occ. eigenvalues --   -0.45266  -0.45044  -0.44889  -0.44463  -0.44360
 Alpha  occ. eigenvalues --   -0.44275  -0.44147  -0.44019  -0.43963  -0.43882
 Alpha  occ. eigenvalues --   -0.43779  -0.43763  -0.43543  -0.43421  -0.43297
 Alpha  occ. eigenvalues --   -0.43198  -0.43127  -0.43007  -0.42792  -0.42708
 Alpha  occ. eigenvalues --   -0.42562  -0.42376  -0.42005  -0.41964  -0.41755
 Alpha  occ. eigenvalues --   -0.41486  -0.41367  -0.41299  -0.41155  -0.40873
 Alpha  occ. eigenvalues --   -0.40685  -0.40672  -0.40571  -0.40521  -0.40410
 Alpha  occ. eigenvalues --   -0.40217  -0.40090  -0.39954  -0.39379  -0.38446
 Alpha  occ. eigenvalues --   -0.38221  -0.37863  -0.37823  -0.37426  -0.37385
 Alpha  occ. eigenvalues --   -0.37135  -0.37001  -0.36983  -0.36792  -0.36481
 Alpha  occ. eigenvalues --   -0.36215  -0.35569  -0.34185  -0.34061  -0.33769
 Alpha  occ. eigenvalues --   -0.33672  -0.33235  -0.32922  -0.31271  -0.31196
 Alpha  occ. eigenvalues --   -0.31005  -0.30735  -0.30091  -0.29740  -0.29386
 Alpha  occ. eigenvalues --   -0.29151  -0.29070  -0.28961  -0.24112  -0.23783
 Alpha  occ. eigenvalues --   -0.21241  -0.20877
 Alpha virt. eigenvalues --   -0.08846  -0.08566  -0.01863  -0.01455   0.00019
 Alpha virt. eigenvalues --    0.00111   0.02090   0.02448   0.03393   0.04438
 Alpha virt. eigenvalues --    0.04770   0.04927   0.05229   0.05372   0.05951

 Mulliken charges:
               1
     1  Mg   0.668586
     2  C    0.007828
     3  C   -0.090142
     4  C   -0.048157
     5  C   -0.056580
     6  N   -0.244234
     7  C   -0.061558
     8  C   -0.014138
     9  C   -0.085985
    10  C    0.046002
    11  C    0.104953
    12  C    0.038108
    13  C   -0.067679
    14  H    0.036469
    15  N   -0.430390
    16  C    0.166612
    17  C   -0.175872
    18  C    0.002657
    19  C    0.154982
    20  C    0.110340
    21  C    0.023140
    22  O   -0.249607
    23  C    0.056810
    24  N   -0.322332
    25  C    0.044254
    26  C   -0.026679
    27  C   -0.019645
    28  C    0.063880
    29  C    0.077386
    30  C    0.040797
    31  C    0.026537
    32  N   -0.319168
    33  C    0.065444
    34  C   -0.168684
    35  C    0.012390
    36  C    0.071120
    37  C    0.128489
    38  C    0.040711
    39  O   -0.188250
    40  C   -0.009239
    41  C    0.214354
    42  O   -0.261372
    43  O   -0.303735
    44  C    0.157022
    45  H   -0.017939
    46  H   -0.016327
    47  H   -0.042774
    48  H   -0.000861
    49  H   -0.003759
    50  H    0.026084
    51  H    0.017995
    52  H    0.017057
    53  H    0.018131
    54  H    0.050470
    55  H    0.017952
    56  H    0.018477
    57  H    0.004487
    58  H    0.026567
    59  H    0.047528
    60  H    0.032588
    61  H    0.034017
    62  H    0.046852
    63  H    0.018403
    64  H    0.008632
    65  H    0.023638
    66  H    0.012442
    67  H    0.004962
    68  H    0.003511
    69  H   -0.000342
    70  H   -0.001673
    71  H    0.014031
    72  H   -0.014356
    73  H    0.045179
    74  H    0.009063
    75  H    0.046342
    76  H    0.036207
    77  H    0.044064
    78  H    0.047048
    79  H    0.053672
    80  Mg   0.838269
    81  C   -0.017653
    82  C   -0.088380
    83  C   -0.044225
    84  C   -0.067056
    85  N   -0.254664
    86  C   -0.049353
    87  C   -0.015166
    88  C   -0.090383
    89  C    0.045460
    90  C    0.114619
    91  C    0.062598
    92  C   -0.077586
    93  H    0.034398
    94  N   -0.423097
    95  C    0.162321
    96  C   -0.175622
    97  C   -0.009666
    98  C    0.151963
    99  C    0.099690
   100  C    0.017090
   101  O   -0.258037
   102  C    0.061339
   103  N   -0.350448
   104  C    0.036851
   105  C   -0.050672
   106  C   -0.026561
   107  C    0.094554
   108  C    0.064766
   109  C    0.018936
   110  C    0.007256
   111  N   -0.324339
   112  C    0.076710
   113  C   -0.161275
   114  C    0.001811
   115  C    0.096946
   116  C    0.132146
   117  C    0.042826
   118  O   -0.187636
   119  C    0.000909
   120  C    0.211183
   121  O   -0.251308
   122  O   -0.305616
   123  C    0.152164
   124  H   -0.020840
   125  H   -0.016479
   126  H   -0.029319
   127  H   -0.000881
   128  H   -0.004933
   129  H    0.022366
   130  H    0.014259
   131  H    0.015437
   132  H    0.013916
   133  H    0.037592
   134  H    0.020622
   135  H    0.019313
   136  H    0.008450
   137  H    0.024342
   138  H    0.039035
   139  H    0.037715
   140  H    0.033591
   141  H    0.035595
   142  H    0.032254
   143  H    0.033574
   144  H    0.051127
   145  H    0.004840
   146  H    0.016127
   147  H    0.068316
   148  H    0.020667
   149  H    0.029713
   150  H    0.040961
   151  H    0.024486
   152  H    0.044428
   153  H    0.014317
   154  H    0.049400
   155  H    0.034857
   156  H    0.043698
   157  H    0.049232
   158  H    0.053366
 Sum of Mulliken charges =  -0.00000

 Dipole moment (field-independent basis, Debye):
    X=              1.2711    Y=              6.2631    Z=             -5.5153  Tot=              8.4416
 Quadrupole moment (field-independent basis, Debye-Ang):
   XX=           -464.0833   YY=           -541.7012   ZZ=           -479.4894
   XY=            -31.1857   XZ=              5.2051   YZ=            -11.5098

 Normal termination of Gaussian 16 at Thu Sep  9 12:18:15 2021.
