 Gaussian 16, Revision A.03,
 Gaussian 16:  ES64L-G16RevA.03 25-Dec-2016

 -----------------------------------
 #p cam-b3lyp/Def2SVP td=(nstates=5)
 -----------------------------------

 --------------------------------
 TDDFT excited states in gaussian
 --------------------------------
 Symbolic Z-matrix:
 Charge =  0 Multiplicity = 1

                         Standard orientation:
 ---------------------------------------------------------------------
 Center     Atomic      Atomic             Coordinates (Angstroms)
 Number     Number       Type             X           Y           Z
 ---------------------------------------------------------------------
      1         12           0      -15.880623   -0.678780    0.074369
      2          6           0      -16.061162    2.894189    0.190609
      3          6           0      -16.749374   -0.466987   -3.218575
      4          6           0      -16.171529   -3.836595    0.060220
      5          6           0      -16.147106   -0.657987    3.549166
      6          7           0      -16.321035    1.051273   -1.234676
      7          6           0      -16.296764    2.371723   -1.083034
      8          6           0      -16.470548    3.150570   -2.421156
      9          6           0      -17.229069    2.031894   -3.266856
     10          6           0      -16.709349    0.795262   -2.555130
     11          6           0      -18.746485    2.081656   -3.120313
     12          6           0      -15.097367    3.528029   -3.072025
     13          6           0      -15.170755    4.562740   -4.198675
     14          1           0      -14.088890    5.526049   -4.336345
     15          7           0      -15.906052   -1.956305   -1.432327
     16          6           0      -16.271778   -1.694299   -2.710170
     17          6           0      -16.118903   -2.967232   -3.447022
     18          6           0      -15.816627   -4.034682   -2.453406
     19          6           0      -15.980640   -3.314127   -1.216767
     20          6           0      -16.211699   -3.070891   -4.938463
     21          6           0      -15.450008   -5.478120   -2.595570
     22          8           0      -15.457137   -6.282735   -1.602032
     23          6           0      -15.164230   -5.951829   -3.961941
     24          7           0      -16.344755   -2.068744    1.561049
     25          6           0      -16.347091   -3.381012    1.302342
     26          6           0      -16.425602   -4.186387    2.565333
     27          6           0      -16.230984   -3.149276    3.763781
     28          6           0      -16.151621   -1.843355    2.935202
     29          6           0      -17.726296   -4.973263    2.777541
     30          6           0      -15.098052   -3.449961    4.776931
     31          6           0      -13.753309   -3.312406    4.098814
     32          7           0      -15.893581    0.829137    1.635478
     33          6           0      -16.037686    0.614536    3.013830
     34          6           0      -16.094667    1.941564    3.654002
     35          6           0      -15.995765    2.841907    2.595019
     36          6           0      -15.910491    2.123028    1.368547
     37          6           0      -16.280618    2.189643    5.042639
     38          6           0      -15.967081    4.244212    2.212168
     39          8           0      -15.912064    5.310092    2.827282
     40          6           0      -16.130944    4.335331    0.630816
     41          6           0      -15.077240    5.278918    0.118309
     42          8           0      -13.866698    4.982964    0.184374
     43          8           0      -15.663870    6.264559   -0.578052
     44          6           0      -14.671655    7.219807   -1.139447
     45          1           0      -17.243060   -0.537376   -4.189791
     46          1           0      -16.166296   -4.927357    0.111680
     47          1           0      -16.144553   -0.573464    4.637422
     48          1           0      -17.088574    4.045707   -2.349061
     49          1           0      -16.915470    2.028304   -4.310583
     50          1           0      -19.049688    2.797255   -2.356176
     51          1           0      -19.044732    1.072244   -2.836360
     52          1           0      -19.222368    2.275352   -4.081975
     53          1           0      -14.716979    2.672598   -3.630240
     54          1           0      -14.392075    3.870048   -2.313796
     55          1           0      -16.136641    5.068472   -4.213076
     56          1           0      -15.127443    4.034293   -5.151076
     57          1           0      -16.606153   -2.156422   -5.379708
     58          1           0      -16.965895   -3.826096   -5.158831
     59          1           0      -15.261692   -3.357420   -5.389816
     60          1           0      -16.038640   -5.784341   -4.591150
     61          1           0      -14.833923   -6.984872   -3.859125
     62          1           0      -14.361789   -5.346689   -4.384839
     63          1           0      -15.631306   -4.930689    2.604519
     64          1           0      -17.125239   -3.065978    4.381877
     65          1           0      -17.572888   -6.043905    2.915002
     66          1           0      -18.380749   -4.777803    1.928554
     67          1           0      -18.339933   -4.626441    3.608554
     68          1           0      -15.172815   -4.475880    5.135885
     69          1           0      -15.112483   -2.792530    5.646314
     70          1           0      -13.621743   -4.282137    3.620123
     71          1           0      -12.971485   -3.132334    4.837419
     72          1           0      -13.780374   -2.560553    3.309847
     73          1           0      -15.577647    2.979097    5.308275
     74          1           0      -16.107083    1.289796    5.632354
     75          1           0      -17.324905    2.501399    5.054003
     76          1           0      -17.138331    4.704372    0.440808
     77          1           0      -14.946243    8.213276   -0.784688
     78          1           0      -14.656560    7.053492   -2.216720
     79          1           0      -13.653902    7.138444   -0.756176
     80         12           0       15.878051   -0.874542    0.118172
     81          6           0       16.346720    2.680834    0.254799
     82          6           0       15.629735   -0.561429   -3.269293
     83          6           0       15.016720   -3.925990   -0.001130
     84          6           0       15.030284   -0.752952    3.496368
     85          7           0       15.991220    0.884916   -1.217390
     86          6           0       16.234088    2.177165   -1.057855
     87          6           0       16.443370    2.960500   -2.381546
     88          6           0       15.637360    1.983711   -3.369019
     89          6           0       15.787082    0.675691   -2.594844
     90          6           0       14.157305    2.314246   -3.466613
     91          6           0       17.956785    3.062018   -2.783132
     92          6           0       18.261497    4.071181   -3.892403
     93          1           0       19.517386    4.813856   -3.831974
     94          7           0       15.876056   -2.149918   -1.402355
     95          6           0       15.791610   -1.850413   -2.715526
     96          6           0       15.810193   -3.139451   -3.424189
     97          6           0       15.746383   -4.230814   -2.414457
     98          6           0       15.517944   -3.460859   -1.208190
     99          6           0       15.962628   -3.247023   -4.913689
    100          6           0       15.858055   -5.721706   -2.519177
    101          8           0       15.534748   -6.491136   -1.546410
    102          6           0       16.268046   -6.258295   -3.825122
    103          7           0       14.928758   -2.125941    1.480227
    104          6           0       14.720984   -3.424061    1.197999
    105          6           0       14.276816   -4.184656    2.424620
    106          6           0       14.463239   -3.172471    3.648675
    107          6           0       14.918529   -1.917432    2.872149
    108          6           0       12.837284   -4.698170    2.403911
    109          6           0       15.332833   -3.660750    4.839492
    110          6           0       16.773879   -3.798578    4.403864
    111          7           0       15.886763    0.627826    1.670859
    112          6           0       15.467132    0.472702    3.010233
    113          6           0       15.551919    1.801716    3.649734
    114          6           0       15.996580    2.648990    2.623634
    115          6           0       16.156903    1.904709    1.423709
    116          6           0       15.193496    2.102402    4.994075
    117          6           0       16.356613    4.005814    2.279980
    118          8           0       16.497056    5.053362    2.909791
    119          6           0       16.478172    4.111323    0.698691
    120          6           0       17.760497    4.829319    0.378284
    121          8           0       18.858691    4.315889    0.655730
    122          8           0       17.486811    5.896633   -0.393916
    123          6           0       18.728506    6.634941   -0.747364
    124          1           0       15.310886   -0.547060   -4.311895
    125          1           0       14.808788   -4.997641    0.041474
    126          1           0       14.877024   -0.650549    4.572797
    127          1           0       16.004016    3.950696   -2.397742
    128          1           0       16.124889    1.911373   -4.337752
    129          1           0       13.868269    3.080237   -2.762439
    130          1           0       13.635015    1.390176   -3.256002
    131          1           0       13.897366    2.579625   -4.495368
    132          1           0       18.256834    2.133693   -3.286062
    133          1           0       18.565251    3.273218   -1.925348
    134          1           0       17.420699    4.752022   -4.072593
    135          1           0       18.373431    3.528420   -4.834150
    136          1           0       15.819592   -2.276106   -5.403850
    137          1           0       15.130494   -3.859834   -5.276851
    138          1           0       16.903033   -3.717904   -5.207946
    139          1           0       15.560816   -5.936561   -4.585894
    140          1           0       16.377841   -7.334407   -3.677475
    141          1           0       17.237697   -5.823977   -4.093017
    142          1           0       14.902513   -5.053411    2.588579
    143          1           0       13.501340   -2.919603    4.118402
    144          1           0       12.762105   -5.792458    2.548636
    145          1           0       12.384376   -4.406701    1.465572
    146          1           0       12.172632   -4.239017    3.133711
    147          1           0       15.009852   -4.653562    5.162236
    148          1           0       15.284431   -3.009030    5.705467
    149          1           0       16.796384   -4.786678    3.934561
    150          1           0       17.439776   -3.754560    5.263330
    151          1           0       17.023962   -3.061333    3.632114
    152          1           0       15.967931    2.748460    5.385704
    153          1           0       15.090316    1.197874    5.589855
    154          1           0       14.233275    2.599798    4.833324
    155          1           0       15.603746    4.654626    0.338424
    156          1           0       18.584866    7.672259   -0.429500
    157          1           0       18.885023    6.456263   -1.827786
    158          1           0       19.635503    6.374160   -0.214637
 ---------------------------------------------------------------------

 SCF Done:  E(RCAM-B3LYP) =  -4069.81176896     A.U. after   19 cycles

 Excitation energies and oscillator strengths:

 Excited State   1:      Singlet-A      1.6753 eV  740.07 nm  f=0.2121  <S**2>=0.000
     310 -> 316       -0.16860
     311 -> 314        0.16246
     312 -> 313        0.66654
     310 <- 316       -0.10164
 This state for optimization and/or second-order correction.
 Total Energy, E(TD-HF/TD-DFT) =  -4069.75020287
 Copying the excited state density for this state as the 1-particle RhoCI density.

 Excited State   2:      Singlet-A      1.6801 eV  737.95 nm  f=0.5653  <S**2>=0.000
     309 -> 315        0.17062
     311 -> 314        0.66618
     312 -> 313       -0.16241
     309 <- 315        0.10215

 Excited State   3:      Singlet-A      2.1861 eV  567.16 nm  f=0.0954  <S**2>=0.000
     310 -> 313        0.64211
     312 -> 316        0.27294

 Excited State   4:      Singlet-A      2.1925 eV  565.49 nm  f=0.1047  <S**2>=0.000
     309 -> 314        0.64033
     311 -> 315       -0.27814

 Excited State   5:      Singlet-A      3.0650 eV  404.52 nm  f=0.0000  <S**2>=0.000
     311 -> 313        0.70711

 The electronic state is 1-A.
 Alpha  occ. eigenvalues --  -46.87792 -46.87660 -19.26349 -19.26279 -19.19160
 Alpha  occ. eigenvalues --  -19.19014 -19.18811 -19.18715 -19.18164 -19.18050
 Alpha  occ. eigenvalues --  -14.42498 -14.42445 -14.41444 -14.41359 -14.39398
 Alpha  occ. eigenvalues --  -14.39352 -14.38600 -14.38582 -10.39090 -10.39074
 Alpha  occ. eigenvalues --  -10.35444 -10.35393 -10.34384 -10.34228 -10.31756
 Alpha  occ. eigenvalues --  -10.31673 -10.31400 -10.31309 -10.31024 -10.30904
 Alpha  occ. eigenvalues --  -10.30565 -10.30502 -10.30397 -10.30360 -10.30202
 Alpha  occ. eigenvalues --  -10.30141 -10.29915 -10.29894 -10.29626 -10.29437
 Alpha  occ. eigenvalues --  -10.29401 -10.29250 -10.28745 -10.28719 -10.28656
 Alpha  occ. eigenvalues --  -10.28535 -10.28405 -10.28360 -10.28141 -10.28112
 Alpha  occ. eigenvalues --  -10.28001 -10.27788 -10.27722 -10.27669 -10.27580
 Alpha  occ. eigenvalues --  -10.27516 -10.27496 -10.27484 -10.27478 -10.27469
 Alpha  occ. eigenvalues --  -10.27466 -10.27444 -10.27398 -10.27374 -10.27153
 Alpha  occ. eigenvalues --  -10.27050 -10.26701 -10.26694 -10.26417 -10.26407
 Alpha  occ. eigenvalues --  -10.26230 -10.26178 -10.26136 -10.26025 -10.26014
 Alpha  occ. eigenvalues --  -10.25934 -10.25848 -10.25837 -10.25430 -10.25395
 Alpha  occ. eigenvalues --  -10.24872 -10.24828 -10.24783 -10.24730 -10.24690
 Alpha  occ. eigenvalues --  -10.24681  -3.16534  -3.16410  -1.91416  -1.91292
 Alpha  occ. eigenvalues --   -1.91003  -1.90881  -1.90845  -1.90718  -1.16643
 Alpha  occ. eigenvalues --   -1.16627  -1.08657  -1.08622  -1.07212  -1.06968
 Alpha  occ. eigenvalues --   -1.06945  -1.06637  -1.04576  -1.04495  -1.03755
 Alpha  occ. eigenvalues --   -1.03663  -1.03229  -1.03038  -1.02406  -1.02111
 Alpha  occ. eigenvalues --   -0.91987  -0.91967  -0.89514  -0.89494  -0.89183
 Alpha  occ. eigenvalues --   -0.89151  -0.88282  -0.88219  -0.87865  -0.87793
 Alpha  occ. eigenvalues --   -0.87684  -0.87668  -0.87269  -0.87121  -0.85000
 Alpha  occ. eigenvalues --   -0.84977  -0.83931  -0.83875  -0.82963  -0.82932
 Alpha  occ. eigenvalues --   -0.82653  -0.82644  -0.81596  -0.81580  -0.80591
 Alpha  occ. eigenvalues --   -0.80443  -0.78792  -0.78636  -0.77213  -0.77144
 Alpha  occ. eigenvalues --   -0.76929  -0.76898  -0.75918  -0.75839  -0.74893
 Alpha  occ. eigenvalues --   -0.74802  -0.72769  -0.72699  -0.71667  -0.71580
 Alpha  occ. eigenvalues --   -0.69902  -0.69757  -0.68868  -0.68827  -0.67636
 Alpha  occ. eigenvalues --   -0.67602  -0.67215  -0.67201  -0.65282  -0.65272
 Alpha  occ. eigenvalues --   -0.64848  -0.64770  -0.64654  -0.64616  -0.64264
 Alpha  occ. eigenvalues --   -0.64203  -0.62292  -0.62278  -0.60437  -0.60340
 Alpha  occ. eigenvalues --   -0.59799  -0.59797  -0.58992  -0.58982  -0.58499
 Alpha  occ. eigenvalues --   -0.58425  -0.57579  -0.57554  -0.57304  -0.57236
 Alpha  occ. eigenvalues --   -0.56305  -0.56204  -0.55973  -0.55886  -0.55515
 Alpha  occ. eigenvalues --   -0.55452  -0.55334  -0.55247  -0.54518  -0.54487
 Alpha  occ. eigenvalues --   -0.53913  -0.53890  -0.53294  -0.53227  -0.53217
 Alpha  occ. eigenvalues --   -0.53142  -0.52910  -0.52902  -0.52752  -0.52669
 Alpha  occ. eigenvalues --   -0.52433  -0.52400  -0.51909  -0.51883  -0.51659
 Alpha  occ. eigenvalues --   -0.51612  -0.51201  -0.51191  -0.50568  -0.50476
 Alpha  occ. eigenvalues --   -0.50026  -0.49980  -0.49914  -0.49867  -0.49510
 Alpha  occ. eigenvalues --   -0.49488  -0.49210  -0.49202  -0.49104  -0.49091
 Alpha  occ. eigenvalues --   -0.48588  -0.48558  -0.48456  -0.48440  -0.48375
 Alpha  occ. eigenvalues --   -0.48339  -0.47690  -0.47595  -0.47292  -0.47118
 Alpha  occ. eigenvalues --   -0.46792  -0.46709  -0.46554  -0.46551  -0.46354
 Alpha  occ. eigenvalues --   -0.46270  -0.46157  -0.46085  -0.45821  -0.45816
 Alpha  occ. eigenvalues --   -0.45208  -0.45196  -0.44572  -0.44514  -0.44502
 Alpha  occ. eigenvalues --   -0.44476  -0.44140  -0.44127  -0.44083  -0.44078
 Alpha  occ. eigenvalues --   -0.44014  -0.43939  -0.43553  -0.43489  -0.43386
 Alpha  occ. eigenvalues --   -0.43381  -0.43022  -0.42930  -0.42901  -0.42693
 Alpha  occ. eigenvalues --   -0.42649  -0.42553  -0.42004  -0.41964  -0.41699
 Alpha  occ. eigenvalues --   -0.41669  -0.41529  -0.41459  -0.41136  -0.40989
 Alpha  occ. eigenvalues --   -0.40864  -0.40819  -0.40723  -0.40699  -0.40566
 Alpha  occ. eigenvalues --   -0.40492  -0.40230  -0.40228  -0.39435  -0.39425
 Alpha  occ. eigenvalues --   -0.38464  -0.38350  -0.37744  -0.37654  -0.37315
 Alpha  occ. eigenvalues --   -0.37265  -0.37259  -0.37200  -0.36771  -0.36708
 Alpha  occ. eigenvalues --   -0.36217  -0.36187  -0.34281  -0.34253  -0.33862
 Alpha  occ. eigenvalues --   -0.33765  -0.33181  -0.33175  -0.31340  -0.31274
 Alpha  occ. eigenvalues --   -0.31030  -0.30973  -0.30023  -0.29955  -0.29444
 Alpha  occ. eigenvalues --   -0.29327  -0.29317  -0.29211  -0.24075  -0.24036
 Alpha  occ. eigenvalues --   -0.21123  -0.21117
 Alpha virt. eigenvalues --   -0.08792  -0.08769  -0.01745  -0.01684  -0.00053
 Alpha virt. eigenvalues --   -0.00029   0.02206   0.02208   0.03128   0.03226
 Alpha virt. eigenvalues --    0.04723   0.04730   0.05104   0.05166   0.06182

 Mulliken charges:
               1
     1  Mg   0.838763
     2  C   -0.002983
     3  C   -0.094124
     4  C   -0.045869
     5  C   -0.063970
     6  N   -0.256770
     7  C   -0.052455
     8  C   -0.014026
     9  C   -0.086998
    10  C    0.046321
    11  C    0.104813
    12  C    0.053475
    13  C   -0.071798
    14  H    0.036125
    15  N   -0.433139
    16  C    0.168427
    17  C   -0.177167
    18  C   -0.004005
    19  C    0.148706
    20  C    0.110182
    21  C    0.012279
    22  O   -0.249623
    23  C    0.062478
    24  N   -0.341175
    25  C    0.041257
    26  C   -0.028169
    27  C   -0.024005
    28  C    0.074888
    29  C    0.076167
    30  C    0.035122
    31  C   -0.004505
    32  N   -0.310474
    33  C    0.080413
    34  C   -0.169702
    35  C    0.008358
    36  C    0.082981
    37  C    0.127308
    38  C    0.046130
    39  O   -0.188419
    40  C   -0.005311
    41  C    0.212855
    42  O   -0.257093
    43  O   -0.304796
    44  C    0.157690
    45  H   -0.017615
    46  H   -0.016839
    47  H   -0.041479
    48  H    0.000942
    49  H   -0.004044
    50  H    0.025478
    51  H    0.016447
    52  H    0.016649
    53  H    0.011197
    54  H    0.044129
    55  H    0.017872
    56  H    0.017935
    57  H    0.005865
    58  H    0.026816
    59  H    0.039536
    60  H    0.037339
    61  H    0.035645
    62  H    0.031494
    63  H    0.016556
    64  H    0.009465
    65  H    0.023211
    66  H    0.012542
    67  H    0.004756
    68  H    0.006370
    69  H    0.004742
    70  H    0.008778
    71  H    0.018158
    72  H    0.028978
    73  H    0.047590
    74  H    0.009120
    75  H    0.046012
    76  H    0.035149
    77  H    0.042957
    78  H    0.046388
    79  H    0.053699
    80  Mg   0.837876
    81  C   -0.016830
    82  C   -0.087806
    83  C   -0.045509
    84  C   -0.064847
    85  N   -0.254574
    86  C   -0.049797
    87  C   -0.015115
    88  C   -0.090499
    89  C    0.045766
    90  C    0.114372
    91  C    0.062529
    92  C   -0.077893
    93  H    0.034899
    94  N   -0.423489
    95  C    0.162913
    96  C   -0.174628
    97  C   -0.007816
    98  C    0.152121
    99  C    0.099370
   100  C    0.015570
   101  O   -0.253172
   102  C    0.061192
   103  N   -0.350078
   104  C    0.037535
   105  C   -0.019840
   106  C   -0.034830
   107  C    0.088920
   108  C    0.073639
   109  C    0.034729
   110  C   -0.007682
   111  N   -0.324129
   112  C    0.078455
   113  C   -0.163116
   114  C    0.002274
   115  C    0.096177
   116  C    0.131481
   117  C    0.042406
   118  O   -0.187835
   119  C    0.000913
   120  C    0.211247
   121  O   -0.251026
   122  O   -0.305618
   123  C    0.152028
   124  H   -0.019669
   125  H   -0.015558
   126  H   -0.040414
   127  H   -0.000628
   128  H   -0.004341
   129  H    0.022495
   130  H    0.014440
   131  H    0.016273
   132  H    0.013910
   133  H    0.037679
   134  H    0.020796
   135  H    0.019578
   136  H    0.008751
   137  H    0.026134
   138  H    0.039783
   139  H    0.038245
   140  H    0.036393
   141  H    0.033892
   142  H    0.014398
   143  H    0.012478
   144  H    0.025148
   145  H    0.011653
   146  H    0.005736
   147  H    0.006286
   148  H    0.003679
   149  H    0.010929
   150  H    0.017940
   151  H    0.030086
   152  H    0.046020
   153  H    0.008535
   154  H    0.047013
   155  H    0.035065
   156  H    0.043934
   157  H    0.049480
   158  H    0.053580
 Sum of Mulliken charges =  -0.00000

 Dipole moment (field-independent basis, Debye):
    X=             -3.5308    Y=             -2.3142    Z=             -7.9951  Tot=              9.0413
 Quadrupole moment (field-independent basis, Debye-Ang):
   XX=           -500.2774   YY=           -553.4223   ZZ=           -446.3925
   XY=              1.9194   XZ=            -14.0852   YZ=            -45.0297

 Normal termination of Gaussian 16 at Sun Sep 12 11:31:10 2021.
