 Gaussian 16, Revision A.03,
 Gaussian 16:  ES64L-G16RevA.03 25-Dec-2016

 -----------------------------------
 #p cam-b3lyp/Def2SVP td=(nstates=5)
 -----------------------------------

 --------------------------------
 TDDFT excited states in gaussian
 --------------------------------
 Symbolic Z-matrix:
 Charge =  0 Multiplicity = 1

                         Standard orientation:
 ---------------------------------------------------------------------
 Center     Atomic      Atomic             Coordinates (Angstroms)
 Number     Number       Type             X           Y           Z
 ---------------------------------------------------------------------
      1         12           0        6.467958    0.895849    0.380983
      2          6           0        7.154706   -2.375623   -0.898886
      3          6           0        7.208228    2.103465   -2.723325
      4          6           0        6.310526    3.819291    1.599722
      5          6           0        6.891404   -0.426661    3.577438
      6          7           0        7.087927   -0.108621   -1.491802
      7          6           0        7.256642   -1.373044   -1.865887
      8          6           0        7.477704   -1.539476   -3.399121
      9          6           0        8.032220   -0.082441   -3.733124
     10          6           0        7.376290    0.691930   -2.603510
     11          6           0        9.546587    0.039041   -3.597344
     12          6           0        6.143342   -1.833805   -4.163700
     13          6           0        6.310680   -2.329701   -5.602949
     14          1           0        5.370081   -3.312867   -6.118707
     15          7           0        6.245219    2.645014   -0.509893
     16          6           0        6.586085    2.954124   -1.784078
     17          6           0        6.222423    4.375354   -1.969920
     18          6           0        5.818094    4.918768   -0.643529
     19          6           0        6.137594    3.808970    0.217660
     20          6           0        6.232237    5.059755   -3.302305
     21          6           0        5.245899    6.233954   -0.218076
     22          8           0        5.184570    6.583647    1.010145
     23          6           0        4.834859    7.151208   -1.296376
     24          7           0        6.798491    1.655208    2.297166
     25          6           0        6.604397    2.950328    2.569149
     26          6           0        6.625730    3.207094    4.046835
     27          6           0        6.633373    1.771032    4.744990
     28          6           0        6.701279    0.890525    3.472840
     29          6           0        7.810956    4.033036    4.565556
     30          6           0        5.516331    1.486467    5.780199
     31          6           0        4.175094    1.425284    5.084183
     32          7           0        6.763551   -1.078460    1.232906
     33          6           0        6.938128   -1.394508    2.588012
     34          6           0        7.210196   -2.841747    2.662485
     35          6           0        7.191280   -3.266820    1.335533
     36          6           0        6.950349   -2.150884    0.484104
     37          6           0        7.491752   -3.576871    3.847707
     38          6           0        7.343009   -4.399870    0.437183
     39          8           0        7.466419   -5.616145    0.588634
     40          6           0        7.446465   -3.847602   -1.052825
     41          6           0        6.514010   -4.663811   -1.905843
     42          8           0        5.278094   -4.598117   -1.745964
     43          8           0        7.201480   -5.205744   -2.922817
     44          6           0        6.329272   -6.004625   -3.824590
     45          1           0        7.642709    2.615563   -3.584094
     46          1           0        6.154136    4.791756    2.071200
     47          1           0        6.949935   -0.924544    4.547045
     48          1           0        8.218198   -2.291350   -3.672579
     49          1           0        7.674414    0.277997   -4.697376
     50          1           0        9.981707   -0.863156   -3.167653
     51          1           0        9.712297    0.892275   -2.939298
     52          1           0       10.001067    0.304379   -4.552237
     53          1           0        5.621505   -0.895237   -4.350345
     54          1           0        5.528194   -2.542066   -3.607566
     55          1           0        7.336491   -2.642383   -5.800052
     56          1           0        6.150436   -1.486885   -6.275395
     57          1           0        6.731148    4.455740   -4.059139
     58          1           0        6.861886    5.943563   -3.201642
     59          1           0        5.231947    5.355182   -3.619283
     60          1           0        5.694815    7.370612   -1.929532
     61          1           0        4.367412    8.003411   -0.804346
     62          1           0        4.107313    6.645514   -1.931907
     63          1           0        5.737162    3.752677    4.361814
     64          1           0        7.557449    1.587998    5.293859
     65          1           0        7.514736    4.932131    5.106469
     66          1           0        8.447381    4.279518    3.716144
     67          1           0        8.504208    3.486470    5.204371
     68          1           0        5.462075    2.292842    6.510789
     69          1           0        5.662417    0.554042    6.325630
     70          1           0        3.886848    2.473824    5.018542
     71          1           0        3.460572    0.860788    5.684195
     72          1           0        4.272055    1.049609    4.065383
     73          1           0        6.919630   -4.501813    3.776107
     74          1           0        7.220097   -3.011017    4.738558
     75          1           0        8.568962   -3.711354    3.750806
     76          1           0        8.486147   -3.961856   -1.357996
     77          1           0        6.756711   -7.005829   -3.880450
     78          1           0        6.242269   -5.439115   -4.752509
     79          1           0        5.328561   -6.228510   -3.453384
     80         12           0       -6.634453   -0.980788    0.261685
     81          6           0       -6.864345    2.180723   -1.420881
     82          6           0       -6.025615    0.759635    3.131330
     83          6           0       -5.981305   -3.742607    1.680555
     84          6           0       -6.124085   -2.447135   -2.858419
     85          7           0       -6.489325    1.187301    0.674715
     86          6           0       -6.655899    2.295929   -0.030663
     87          6           0       -6.675717    3.598469    0.813465
     88          6           0       -5.844925    3.074369    2.083895
     89          6           0       -6.162930    1.583746    1.985871
     90          6           0       -4.343065    3.253067    1.936217
     91          6           0       -8.130262    4.027957    1.215753
     92          6           0       -8.250507    5.448008    1.773207
     93          1           0       -9.451004    6.218783    1.461461
     94          7           0       -6.568964   -1.450723    2.188720
     95          6           0       -6.332186   -0.615888    3.222286
     96          6           0       -6.369682   -1.452383    4.431841
     97          6           0       -6.484255   -2.876156    4.014164
     98          6           0       -6.324860   -2.743750    2.579890
     99          6           0       -6.378794   -0.877755    5.818620
    100          6           0       -6.688967   -4.147948    4.780215
    101          8           0       -6.519754   -5.296218    4.236444
    102          6           0       -7.002189   -4.008932    6.209915
    103          7           0       -5.916835   -2.797151   -0.451186
    104          6           0       -5.773166   -3.853347    0.368406
    105          6           0       -5.508892   -5.118212   -0.413047
    106          6           0       -5.746045   -4.732999   -1.946978
    107          6           0       -6.031979   -3.223621   -1.787555
    108          6           0       -4.114078   -5.721763   -0.249942
    109          6           0       -6.762971   -5.598140   -2.740759
    110          6           0       -8.159034   -5.374944   -2.205415
    111          7           0       -6.693941   -0.321779   -1.795069
    112          6           0       -6.422953   -1.093484   -2.946197
    113          6           0       -6.478304   -0.179859   -4.105795
    114          6           0       -6.757151    1.074304   -3.542037
    115          6           0       -6.847796    0.954685   -2.128893
    116          6           0       -6.236647   -0.540614   -5.461361
    117          6           0       -6.984924    2.474112   -3.820131
    118          8           0       -7.114250    3.146918   -4.842066
    119          6           0       -6.939244    3.275801   -2.448415
    120          6           0       -8.129427    4.194667   -2.407589
    121          8           0       -9.283193    3.732815   -2.361252
    122          8           0       -7.705457    5.456416   -2.211101
    123          6           0       -8.850574    6.403551   -2.152246
    124          1           0       -5.603372    1.196128    4.036915
    125          1           0       -5.854272   -4.739498    2.108978
    126          1           0       -6.072989   -2.845041   -3.874161
    127          1           0       -6.168704    4.441581    0.359729
    128          1           0       -6.236485    3.487689    3.009745
    129          1           0       -4.073340    3.595954    0.948382
    130          1           0       -3.910587    2.280252    2.130214
    131          1           0       -3.963098    3.913692    2.720772
    132          1           0       -8.442505    3.453070    2.097096
    133          1           0       -8.805565    3.904950    0.391468
    134          1           0       -7.350264    6.044106    1.580426
    135          1           0       -8.304968    5.389547    2.862998
    136          1           0       -6.119582    0.188170    5.814065
    137          1           0       -5.559340   -1.354223    6.367561
    138          1           0       -7.315518   -1.067498    6.347032
    139          1           0       -6.201295   -3.463786    6.703730
    140          1           0       -7.201355   -5.021808    6.565278
    141          1           0       -7.907202   -3.399730    6.312178
    142          1           0       -6.207184   -5.897899   -0.134511
    143          1           0       -4.820904   -4.817089   -2.535933
    144          1           0       -4.130643   -6.769449    0.105242
    145          1           0       -3.549867   -5.098321    0.430874
    146          1           0       -3.495630   -5.704163   -1.145715
    147          1           0       -6.544386   -6.660106   -2.604417
    148          1           0       -6.756331   -5.402380   -3.807822
    149          1           0       -8.203404   -6.047722   -1.343748
    150          1           0       -8.903221   -5.641646   -2.953150
    151          1           0       -8.278033   -4.351550   -1.831054
    152          1           0       -6.999365   -0.053196   -6.053976
    153          1           0       -6.257462   -1.620149   -5.595259
    154          1           0       -5.232667   -0.129505   -5.596587
    155          1           0       -5.997158    3.824691   -2.420979
    156          1           0       -8.667320    7.173732   -2.907844
    157          1           0       -8.909833    6.735529   -1.098664
    158          1           0       -9.822542    6.034401   -2.457928
 ---------------------------------------------------------------------

 SCF Done:  E(RCAM-B3LYP) =  -4069.81187017     A.U. after   19 cycles

 Excitation energies and oscillator strengths:

 Excited State   1:      Singlet-A      1.6692 eV  742.79 nm  f=0.1308  <S**2>=0.000
     309 -> 315        0.10128
     310 -> 316        0.13949
     311 -> 313        0.40288
     312 -> 314        0.55575
 This state for optimization and/or second-order correction.
 Total Energy, E(TD-HF/TD-DFT) =  -4069.75052966
 Copying the excited state density for this state as the 1-particle RhoCI density.

 Excited State   2:      Singlet-A      1.6851 eV  735.76 nm  f=0.6068  <S**2>=0.000
     309 -> 315        0.14313
     310 -> 316       -0.10329
     311 -> 313        0.55484
     312 -> 314       -0.40227

 Excited State   3:      Singlet-A      2.1851 eV  567.41 nm  f=0.0681  <S**2>=0.000
     309 -> 313        0.16123
     310 -> 314        0.62247
     312 -> 316       -0.26347

 Excited State   4:      Singlet-A      2.1932 eV  565.30 nm  f=0.1257  <S**2>=0.000
     309 -> 313        0.62013
     310 -> 314       -0.16000
     311 -> 315       -0.26973

 Excited State   5:      Singlet-A      2.6509 eV  467.71 nm  f=0.0000  <S**2>=0.000
     312 -> 313        0.70710

 The electronic state is 1-A.
 Alpha  occ. eigenvalues --  -46.87854 -46.87555 -19.26327 -19.26305 -19.19108
 Alpha  occ. eigenvalues --  -19.19066 -19.18877 -19.18608 -19.18217 -19.17982
 Alpha  occ. eigenvalues --  -14.42504 -14.42394 -14.41512 -14.41246 -14.39460
 Alpha  occ. eigenvalues --  -14.39248 -14.38643 -14.38500 -10.39126 -10.39036
 Alpha  occ. eigenvalues --  -10.35509 -10.35285 -10.34437 -10.34160 -10.31723
 Alpha  occ. eigenvalues --  -10.31721 -10.31455 -10.31215 -10.30958 -10.30923
 Alpha  occ. eigenvalues --  -10.30623 -10.30568 -10.30296 -10.30273 -10.30268
 Alpha  occ. eigenvalues --  -10.30020 -10.29988 -10.29778 -10.29686 -10.29329
 Alpha  occ. eigenvalues --  -10.29310 -10.29307 -10.28787 -10.28633 -10.28591
 Alpha  occ. eigenvalues --  -10.28563 -10.28417 -10.28307 -10.28154 -10.28046
 Alpha  occ. eigenvalues --  -10.27907 -10.27845 -10.27778 -10.27638 -10.27590
 Alpha  occ. eigenvalues --  -10.27567 -10.27538 -10.27511 -10.27457 -10.27385
 Alpha  occ. eigenvalues --  -10.27376 -10.27374 -10.27369 -10.27215 -10.27205
 Alpha  occ. eigenvalues --  -10.26982 -10.26738 -10.26619 -10.26458 -10.26316
 Alpha  occ. eigenvalues --  -10.26301 -10.26267 -10.26082 -10.26015 -10.25917
 Alpha  occ. eigenvalues --  -10.25894 -10.25827 -10.25788 -10.25518 -10.25166
 Alpha  occ. eigenvalues --  -10.24885 -10.24851 -10.24829 -10.24782 -10.24623
 Alpha  occ. eigenvalues --  -10.24576  -3.16597  -3.16305  -1.91479  -1.91187
 Alpha  occ. eigenvalues --   -1.91066  -1.90908  -1.90775  -1.90613  -1.16677
 Alpha  occ. eigenvalues --   -1.16597  -1.08674  -1.08593  -1.07279  -1.06893
 Alpha  occ. eigenvalues --   -1.06859  -1.06688  -1.04634  -1.04394  -1.03821
 Alpha  occ. eigenvalues --   -1.03558  -1.03292  -1.02930  -1.02469  -1.02006
 Alpha  occ. eigenvalues --   -0.92025  -0.91896  -0.89598  -0.89381  -0.89228
 Alpha  occ. eigenvalues --   -0.89058  -0.88366  -0.88089  -0.87922  -0.87725
 Alpha  occ. eigenvalues --   -0.87709  -0.87581  -0.87323  -0.87023  -0.85028
 Alpha  occ. eigenvalues --   -0.84906  -0.84022  -0.83747  -0.83027  -0.82824
 Alpha  occ. eigenvalues --   -0.82698  -0.82558  -0.81636  -0.81522  -0.80649
 Alpha  occ. eigenvalues --   -0.80355  -0.78847  -0.78541  -0.77278  -0.77048
 Alpha  occ. eigenvalues --   -0.76986  -0.76801  -0.75970  -0.75752  -0.74969
 Alpha  occ. eigenvalues --   -0.74665  -0.72831  -0.72600  -0.71728  -0.71467
 Alpha  occ. eigenvalues --   -0.70003  -0.69631  -0.68921  -0.68735  -0.67697
 Alpha  occ. eigenvalues --   -0.67503  -0.67262  -0.67113  -0.65334  -0.65183
 Alpha  occ. eigenvalues --   -0.64911  -0.64679  -0.64674  -0.64562  -0.64343
 Alpha  occ. eigenvalues --   -0.64085  -0.62351  -0.62202  -0.60500  -0.60232
 Alpha  occ. eigenvalues --   -0.59849  -0.59704  -0.59046  -0.58890  -0.58561
 Alpha  occ. eigenvalues --   -0.58328  -0.57634  -0.57483  -0.57372  -0.57129
 Alpha  occ. eigenvalues --   -0.56361  -0.56116  -0.56025  -0.55814  -0.55573
 Alpha  occ. eigenvalues --   -0.55412  -0.55367  -0.55139  -0.54591  -0.54385
 Alpha  occ. eigenvalues --   -0.53936  -0.53821  -0.53357  -0.53269  -0.53129
 Alpha  occ. eigenvalues --   -0.53053  -0.52971  -0.52816  -0.52803  -0.52573
 Alpha  occ. eigenvalues --   -0.52536  -0.52287  -0.51967  -0.51811  -0.51659
 Alpha  occ. eigenvalues --   -0.51573  -0.51255  -0.51113  -0.50620  -0.50373
 Alpha  occ. eigenvalues --   -0.50110  -0.49969  -0.49879  -0.49735  -0.49562
 Alpha  occ. eigenvalues --   -0.49393  -0.49264  -0.49139  -0.49116  -0.49016
 Alpha  occ. eigenvalues --   -0.48644  -0.48529  -0.48499  -0.48474  -0.48257
 Alpha  occ. eigenvalues --   -0.48232  -0.47749  -0.47497  -0.47351  -0.47009
 Alpha  occ. eigenvalues --   -0.46859  -0.46606  -0.46598  -0.46459  -0.46419
 Alpha  occ. eigenvalues --   -0.46223  -0.46169  -0.45978  -0.45872  -0.45742
 Alpha  occ. eigenvalues --   -0.45276  -0.45065  -0.44630  -0.44563  -0.44428
 Alpha  occ. eigenvalues --   -0.44381  -0.44213  -0.44134  -0.44069  -0.44036
 Alpha  occ. eigenvalues --   -0.43973  -0.43851  -0.43547  -0.43475  -0.43442
 Alpha  occ. eigenvalues --   -0.43285  -0.43084  -0.42862  -0.42804  -0.42769
 Alpha  occ. eigenvalues --   -0.42723  -0.42435  -0.42082  -0.41861  -0.41760
 Alpha  occ. eigenvalues --   -0.41581  -0.41576  -0.41362  -0.41195  -0.40927
 Alpha  occ. eigenvalues --   -0.40880  -0.40880  -0.40645  -0.40624  -0.40600
 Alpha  occ. eigenvalues --   -0.40370  -0.40272  -0.40143  -0.39544  -0.39302
 Alpha  occ. eigenvalues --   -0.38544  -0.38219  -0.37791  -0.37568  -0.37391
 Alpha  occ. eigenvalues --   -0.37309  -0.37153  -0.37105  -0.36769  -0.36701
 Alpha  occ. eigenvalues --   -0.36253  -0.36109  -0.34343  -0.34152  -0.33819
 Alpha  occ. eigenvalues --   -0.33799  -0.33243  -0.33073  -0.31407  -0.31166
 Alpha  occ. eigenvalues --   -0.31093  -0.30869  -0.30076  -0.29888  -0.29503
 Alpha  occ. eigenvalues --   -0.29375  -0.29230  -0.29120  -0.24137  -0.23932
 Alpha  occ. eigenvalues --   -0.21184  -0.21013
 Alpha virt. eigenvalues --   -0.08829  -0.08692  -0.01810  -0.01574  -0.00111
 Alpha virt. eigenvalues --    0.00069   0.02145   0.02295   0.03052   0.03321
 Alpha virt. eigenvalues --    0.04668   0.04830   0.05052   0.05223   0.06138

 Mulliken charges:
               1
     1  Mg   0.838562
     2  C   -0.002916
     3  C   -0.093788
     4  C   -0.046104
     5  C   -0.064041
     6  N   -0.256782
     7  C   -0.052413
     8  C   -0.014030
     9  C   -0.087041
    10  C    0.046285
    11  C    0.104759
    12  C    0.053407
    13  C   -0.071885
    14  H    0.036080
    15  N   -0.433141
    16  C    0.168365
    17  C   -0.176894
    18  C   -0.004070
    19  C    0.148645
    20  C    0.110053
    21  C    0.012074
    22  O   -0.250100
    23  C    0.062492
    24  N   -0.341062
    25  C    0.041230
    26  C   -0.028127
    27  C   -0.023869
    28  C    0.074621
    29  C    0.076160
    30  C    0.035232
    31  C   -0.004401
    32  N   -0.310471
    33  C    0.080327
    34  C   -0.169726
    35  C    0.008447
    36  C    0.082931
    37  C    0.127318
    38  C    0.046141
    39  O   -0.188279
    40  C   -0.005338
    41  C    0.212950
    42  O   -0.257227
    43  O   -0.304724
    44  C    0.157725
    45  H   -0.017313
    46  H   -0.017106
    47  H   -0.041634
    48  H    0.001029
    49  H   -0.003745
    50  H    0.025496
    51  H    0.016422
    52  H    0.016888
    53  H    0.011386
    54  H    0.043965
    55  H    0.017945
    56  H    0.018268
    57  H    0.006150
    58  H    0.026935
    59  H    0.040049
    60  H    0.037634
    61  H    0.035436
    62  H    0.031809
    63  H    0.015996
    64  H    0.009571
    65  H    0.022989
    66  H    0.012803
    67  H    0.004829
    68  H    0.006028
    69  H    0.004844
    70  H    0.008109
    71  H    0.017433
    72  H    0.029359
    73  H    0.047703
    74  H    0.008941
    75  H    0.046094
    76  H    0.035287
    77  H    0.043048
    78  H    0.046498
    79  H    0.053482
    80  Mg   0.838002
    81  C   -0.017019
    82  C   -0.087842
    83  C   -0.045123
    84  C   -0.064530
    85  N   -0.254634
    86  C   -0.049882
    87  C   -0.015093
    88  C   -0.090504
    89  C    0.045875
    90  C    0.114354
    91  C    0.062542
    92  C   -0.077772
    93  H    0.034498
    94  N   -0.423572
    95  C    0.163144
    96  C   -0.174498
    97  C   -0.007542
    98  C    0.152224
    99  C    0.099328
   100  C    0.015688
   101  O   -0.252734
   102  C    0.061201
   103  N   -0.349985
   104  C    0.037974
   105  C   -0.020184
   106  C   -0.034669
   107  C    0.088937
   108  C    0.073093
   109  C    0.034713
   110  C   -0.007616
   111  N   -0.323994
   112  C    0.078342
   113  C   -0.163317
   114  C    0.001945
   115  C    0.096215
   116  C    0.131558
   117  C    0.042021
   118  O   -0.188736
   119  C    0.001040
   120  C    0.211178
   121  O   -0.251067
   122  O   -0.305708
   123  C    0.152126
   124  H   -0.019653
   125  H   -0.015049
   126  H   -0.040646
   127  H   -0.000885
   128  H   -0.004482
   129  H    0.022263
   130  H    0.014887
   131  H    0.016543
   132  H    0.013890
   133  H    0.037516
   134  H    0.020791
   135  H    0.019593
   136  H    0.008663
   137  H    0.026268
   138  H    0.039628
   139  H    0.038278
   140  H    0.036432
   141  H    0.033646
   142  H    0.014185
   143  H    0.012940
   144  H    0.025412
   145  H    0.012965
   146  H    0.006997
   147  H    0.006472
   148  H    0.003263
   149  H    0.010985
   150  H    0.017533
   151  H    0.029916
   152  H    0.045580
   153  H    0.008472
   154  H    0.046459
   155  H    0.034589
   156  H    0.043521
   157  H    0.049573
   158  H    0.053478
 Sum of Mulliken charges =  -0.00000

 Dipole moment (field-independent basis, Debye):
    X=              3.5809    Y=              3.7461    Z=              0.9627  Tot=              5.2709
 Quadrupole moment (field-independent basis, Debye-Ang):
   XX=           -521.3202   YY=           -532.2539   ZZ=           -465.5329
   XY=             17.2167   XZ=            -55.3241   YZ=             29.4601

 Normal termination of Gaussian 16 at Sat Sep 11 09:14:41 2021.
