 Gaussian 16, Revision A.03,
 Gaussian 16:  ES64L-G16RevA.03 25-Dec-2016

 -----------------------------------
 #p cam-b3lyp/Def2SVP td=(nstates=5)
 -----------------------------------

 --------------------------------
 TDDFT excited states in gaussian
 --------------------------------
 Symbolic Z-matrix:
 Charge =  0 Multiplicity = 1

                         Standard orientation:
 ---------------------------------------------------------------------
 Center     Atomic      Atomic             Coordinates (Angstroms)
 Number     Number       Type             X           Y           Z
 ---------------------------------------------------------------------
      1         12           0        3.185715   -2.229370   -0.061376
      2          6           0        5.330070    0.553956   -0.744790
      3          6           0        4.434876   -2.221389    3.113935
      4          6           0        1.647007   -4.957586    0.434442
      5          6           0        2.971192   -2.720537   -3.504978
      6          7           0        4.686624   -0.945460    0.938372
      7          6           0        5.390930    0.124438    0.582785
      8          6           0        6.142268    0.792959    1.772720
      9          6           0        6.239725   -0.464950    2.747484
     10          6           0        5.028180   -1.241889    2.263287
     11          6           0        7.487977   -1.312828    2.525061
     12          6           0        5.316746    1.955948    2.419017
     13          6           0        6.103168    2.868271    3.364830
     14          1           0        5.779823    4.286577    3.399497
     15          7           0        2.679595   -3.126795    1.624246
     16          6           0        3.288941   -2.994255    2.826916
     17          6           0        2.541497   -3.863916    3.760564
     18          6           0        1.566747   -4.657495    2.961696
     19          6           0        1.948430   -4.293455    1.621110
     20          6           0        2.749388   -3.849198    5.243910
     21          6           0        0.472824   -5.603190    3.345267
     22          8           0       -0.101299   -6.361565    2.490970
     23          6           0        0.147280   -5.683620    4.780744
     24          7           0        2.592159   -3.776041   -1.331467
     25          6           0        1.888224   -4.815750   -0.870527
     26          6           0        1.337541   -5.643326   -1.993827
     27          6           0        1.609523   -4.812138   -3.329830
     28          6           0        2.385864   -3.622271   -2.713565
     29          6           0        1.929380   -7.052024   -2.139805
     30          6           0        0.385793   -4.507506   -4.229888
     31          6           0       -0.548109   -3.552759   -3.520394
     32          7           0        3.845953   -1.172651   -1.838587
     33          6           0        3.666733   -1.570401   -3.171384
     34          6           0        4.378687   -0.591792   -4.013710
     35          6           0        4.940138    0.303754   -3.105626
     36          6           0        4.622390   -0.105280   -1.778969
     37          6           0        4.492837   -0.639257   -5.431155
     38          6           0        5.755197    1.497165   -2.946548
     39          8           0        6.231866    2.330894   -3.718024
     40          6           0        6.142270    1.638202   -1.408331
     41          6           0        5.878688    3.062558   -1.002077
     42          8           0        4.715218    3.512365   -0.964953
     43          8           0        7.001579    3.595767   -0.496759
     44          6           0        6.801012    4.999188   -0.046942
     45          1           0        4.922377   -2.463495    4.060332
     46          1           0        1.021998   -5.844867    0.554997
     47          1           0        2.877704   -2.761565   -4.591730
     48          1           0        7.141685    1.156228    1.532667
     49          1           0        6.114961   -0.180849    3.792206
     50          1           0        8.040866   -0.984686    1.644971
     51          1           0        7.126866   -2.332490    2.389483
     52          1           0        8.108418   -1.331384    3.421434
     53          1           0        4.595802    1.537751    3.121451
     54          1           0        4.836617    2.561975    1.649904
     55          1           0        7.178399    2.724207    3.255127
     56          1           0        5.891901    2.561629    4.389299
     57          1           0        3.642712   -3.289178    5.517579
     58          1           0        2.968100   -4.873527    5.544948
     59          1           0        1.870035   -3.488874    5.777985
     60          1           0        1.035895   -5.986734    5.334852
     61          1           0       -0.717207   -6.342225    4.856587
     62          1           0       -0.113159   -4.687629    5.140080
     63          1           0        0.264918   -5.794120   -1.879079
     64          1           0        2.307628   -5.322296   -3.993955
     65          1           0        1.183732   -7.846481   -2.100409
     66          1           0        2.682223   -7.183420   -1.363110
     67          1           0        2.519548   -7.208592   -3.042359
     68          1           0       -0.176663   -5.419598   -4.426552
     69          1           0        0.656708   -4.071112   -5.191353
     70          1           0       -1.140407   -4.215016   -2.889973
     71          1           0       -1.179404   -3.032087   -4.241212
     72          1           0       -0.001905   -2.877753   -2.861217
     73          1           0        4.329451    0.378760   -5.784589
     74          1           0        3.769161   -1.329710   -5.863788
     75          1           0        5.519570   -0.988462   -5.539471
     76          1           0        7.196848    1.377268   -1.325265
     77          1           0        7.539280    5.611046   -0.565424
     78          1           0        6.832634    4.982886    1.042618
     79          1           0        5.875265    5.479783   -0.365313
     80         12           0       -3.331630    2.300499    0.293298
     81          6           0       -5.211446   -0.736119   -0.059333
     82          6           0       -2.611009    2.064727   -3.032311
     83          6           0       -1.306456    4.715000    0.662423
     84          6           0       -3.243643    1.684298    3.722331
     85          7           0       -3.896817    0.811145   -1.241193
     86          6           0       -4.665302   -0.267191   -1.272297
     87          6           0       -4.924935   -0.831142   -2.695008
     88          6           0       -3.626417   -0.237164   -3.429785
     89          6           0       -3.375514    0.977569   -2.538643
     90          6           0       -2.415335   -1.151065   -3.343611
     91          6           0       -6.248222   -0.272950   -3.326939
     92          6           0       -6.724017   -1.011595   -4.579836
     93          1           0       -8.160382   -1.163548   -4.794909
     94          7           0       -2.534954    3.525264   -1.049760
     95          6           0       -2.338048    3.277160   -2.361612
     96          6           0       -1.703946    4.486461   -2.909035
     97          6           0       -1.392528    5.404809   -1.780151
     98          6           0       -1.720830    4.556518   -0.652005
     99          6           0       -1.522590    4.714649   -4.381605
    100          6           0       -0.871738    6.809062   -1.724823
    101          8           0       -0.450836    7.328517   -0.631282
    102          6           0       -0.781931    7.525898   -3.005273
    103          7           0       -2.227001    2.978313    1.918939
    104          6           0       -1.464980    4.082137    1.825039
    105          6           0       -0.986119    4.531685    3.184812
    106          6           0       -1.787243    3.636112    4.240139
    107          6           0       -2.558546    2.722324    3.262660
    108          6           0        0.515040    4.397180    3.439397
    109          6           0       -2.589085    4.389027    5.336887
    110          6           0       -3.744665    5.135700    4.710391
    111          7           0       -4.231864    0.871110    1.640324
    112          6           0       -4.040088    0.776419    3.036155
    113          6           0       -4.770211   -0.422868    3.495569
    114          6           0       -5.321454   -0.959865    2.322431
    115          6           0       -4.943633   -0.163615    1.207653
    116          6           0       -4.818125   -0.905818    4.833694
    117          6           0       -6.128250   -2.025252    1.772219
    118          8           0       -6.792897   -2.945434    2.246829
    119          6           0       -5.988275   -1.999204    0.189152
    120          6           0       -7.368165   -2.100622   -0.400888
    121          8           0       -8.196357   -1.188364   -0.232081
    122          8           0       -7.411206   -3.148810   -1.243388
    123          6           0       -8.756780   -3.284148   -1.862193
    124          1           0       -2.138855    1.965294   -4.010107
    125          1           0       -0.695546    5.598663    0.860928
    126          1           0       -3.346020    1.479012    4.790063
    127          1           0       -4.927737   -1.912507   -2.761482
    128          1           0       -3.855583    0.075649   -4.445163
    129          1           0       -2.595180   -1.998516   -2.698936
    130          1           0       -1.613215   -0.540190   -2.950566
    131          1           0       -2.099820   -1.454291   -4.346026
    132          1           0       -6.049841    0.717377   -3.756644
    133          1           0       -7.036875   -0.248914   -2.600255
    134          1           0       -6.211982   -1.972591   -4.711180
    135          1           0       -6.431735   -0.430018   -5.457545
    136          1           0       -1.695813    3.795844   -4.955370
    137          1           0       -0.462610    4.939384   -4.542194
    138          1           0       -2.121159    5.548038   -4.755565
    139          1           0       -0.137683    6.972639   -3.684470
    140          1           0       -0.473340    8.541645   -2.750513
    141          1           0       -1.776813    7.548916   -3.463857
    142          1           0       -1.226558    5.574065    3.354340
    143          1           0       -1.113793    2.983692    4.815166
    144          1           0        0.997279    5.352278    3.721025
    145          1           0        0.976308    3.985608    2.551498
    146          1           0        0.790910    3.670078    4.201250
    147          1           0       -1.958516    5.140517    5.818357
    148          1           0       -2.968306    3.738529    6.117927
    149          1           0       -3.279635    6.062809    4.362111
    150          1           0       -4.517643    5.335376    5.449757
    151          1           0       -4.124005    4.605831    3.828908
    152          1           0       -5.845060   -1.186108    5.026938
    153          1           0       -4.470496   -0.154875    5.540091
    154          1           0       -4.128629   -1.751124    4.760762
    155          1           0       -5.357414   -2.841355   -0.097850
    156          1           0       -9.105199   -4.299726   -1.650304
    157          1           0       -8.625799   -3.008101   -2.925391
    158          1           0       -9.562632   -2.692498   -1.443848
 ---------------------------------------------------------------------

 SCF Done:  E(RCAM-B3LYP) =  -4069.80540854     A.U. after   19 cycles

 Excitation energies and oscillator strengths:

 Excited State   1:      Singlet-A      1.6390 eV  756.45 nm  f=0.0172  <S**2>=0.000
     309 -> 315        0.11344
     310 -> 316        0.11955
     311 -> 313       -0.47231
     312 -> 314        0.50021
 This state for optimization and/or second-order correction.
 Total Energy, E(TD-HF/TD-DFT) =  -4069.74517542
 Copying the excited state density for this state as the 1-particle RhoCI density.

 Excited State   2:      Singlet-A      1.7112 eV  724.55 nm  f=0.6581  <S**2>=0.000
     309 -> 315       -0.13354
     310 -> 316        0.12592
     311 -> 313        0.49693
     312 -> 314        0.46945

 Excited State   3:      Singlet-A      2.1817 eV  568.30 nm  f=0.0086  <S**2>=0.000
     309 -> 313       -0.39683
     310 -> 314        0.50971
     311 -> 315       -0.16366
     312 -> 316       -0.21059

 Excited State   4:      Singlet-A      2.1989 eV  563.85 nm  f=0.1614  <S**2>=0.000
     309 -> 313        0.50347
     310 -> 314        0.39112
     311 -> 315        0.22389
     312 -> 316       -0.17458

 Excited State   5:      Singlet-A      2.2378 eV  554.05 nm  f=0.0001  <S**2>=0.000
     312 -> 313        0.70669

 The electronic state is 1-A.
 Alpha  occ. eigenvalues --  -46.87906 -46.87398 -19.26295 -19.26161 -19.19038
 Alpha  occ. eigenvalues --  -19.18958 -19.18832 -19.18359 -19.18282 -19.17777
 Alpha  occ. eigenvalues --  -14.42557 -14.42235 -14.41568 -14.41108 -14.39502
 Alpha  occ. eigenvalues --  -14.39067 -14.38706 -14.38339 -10.39105 -10.38883
 Alpha  occ. eigenvalues --  -10.35460 -10.35029 -10.34499 -10.33961 -10.31649
 Alpha  occ. eigenvalues --  -10.31602 -10.31525 -10.31078 -10.30991 -10.30735
 Alpha  occ. eigenvalues --  -10.30695 -10.30622 -10.30323 -10.30130 -10.30114
 Alpha  occ. eigenvalues --  -10.30052 -10.29872 -10.29742 -10.29660 -10.29361
 Alpha  occ. eigenvalues --  -10.29135 -10.29126 -10.28829 -10.28594 -10.28528
 Alpha  occ. eigenvalues --  -10.28503 -10.28462 -10.28209 -10.28111 -10.27909
 Alpha  occ. eigenvalues --  -10.27848 -10.27840 -10.27713 -10.27680 -10.27645
 Alpha  occ. eigenvalues --  -10.27587 -10.27559 -10.27503 -10.27397 -10.27354
 Alpha  occ. eigenvalues --  -10.27237 -10.27213 -10.27186 -10.27164 -10.27072
 Alpha  occ. eigenvalues --  -10.26791 -10.26779 -10.26509 -10.26373 -10.26362
 Alpha  occ. eigenvalues --  -10.26318 -10.26161 -10.26058 -10.26026 -10.26016
 Alpha  occ. eigenvalues --  -10.25730 -10.25711 -10.25699 -10.25541 -10.25196
 Alpha  occ. eigenvalues --  -10.24951 -10.24893 -10.24796 -10.24610 -10.24593
 Alpha  occ. eigenvalues --  -10.24408  -3.16649  -3.16148  -1.91530  -1.91117
 Alpha  occ. eigenvalues --   -1.91031  -1.90959  -1.90619  -1.90456  -1.16647
 Alpha  occ. eigenvalues --   -1.16451  -1.08738  -1.08393  -1.07225  -1.06742
 Alpha  occ. eigenvalues --   -1.06664  -1.06601  -1.04685  -1.04231  -1.03873
 Alpha  occ. eigenvalues --   -1.03397  -1.03346  -1.02776  -1.02525  -1.01844
 Alpha  occ. eigenvalues --   -0.92074  -0.91723  -0.89672  -0.89280  -0.89274
 Alpha  occ. eigenvalues --   -0.88944  -0.88426  -0.88018  -0.88010  -0.87782
 Alpha  occ. eigenvalues --   -0.87565  -0.87438  -0.87347  -0.86781  -0.85073
 Alpha  occ. eigenvalues --   -0.84798  -0.84100  -0.83680  -0.83039  -0.82725
 Alpha  occ. eigenvalues --   -0.82626  -0.82392  -0.81660  -0.81378  -0.80679
 Alpha  occ. eigenvalues --   -0.80194  -0.78898  -0.78343  -0.77407  -0.77081
 Alpha  occ. eigenvalues --   -0.76890  -0.76693  -0.76018  -0.75659  -0.75001
 Alpha  occ. eigenvalues --   -0.74583  -0.72907  -0.72457  -0.71776  -0.71407
 Alpha  occ. eigenvalues --   -0.70134  -0.69569  -0.68972  -0.68568  -0.67735
 Alpha  occ. eigenvalues --   -0.67347  -0.67288  -0.66952  -0.65389  -0.65081
 Alpha  occ. eigenvalues --   -0.64943  -0.64721  -0.64538  -0.64474  -0.64330
 Alpha  occ. eigenvalues --   -0.63988  -0.62361  -0.62063  -0.60533  -0.60043
 Alpha  occ. eigenvalues --   -0.59902  -0.59564  -0.59100  -0.58748  -0.58611
 Alpha  occ. eigenvalues --   -0.58178  -0.57670  -0.57414  -0.57317  -0.56986
 Alpha  occ. eigenvalues --   -0.56418  -0.56025  -0.55957  -0.55729  -0.55607
 Alpha  occ. eigenvalues --   -0.55510  -0.55179  -0.55049  -0.54740  -0.54294
 Alpha  occ. eigenvalues --   -0.53984  -0.53906  -0.53341  -0.53285  -0.53074
 Alpha  occ. eigenvalues --   -0.52947  -0.52892  -0.52817  -0.52747  -0.52480
 Alpha  occ. eigenvalues --   -0.52309  -0.52235  -0.52083  -0.51698  -0.51688
 Alpha  occ. eigenvalues --   -0.51413  -0.51320  -0.50979  -0.50641  -0.50307
 Alpha  occ. eigenvalues --   -0.50122  -0.49988  -0.49723  -0.49639  -0.49576
 Alpha  occ. eigenvalues --   -0.49314  -0.49223  -0.49184  -0.48945  -0.48915
 Alpha  occ. eigenvalues --   -0.48689  -0.48569  -0.48493  -0.48342  -0.48161
 Alpha  occ. eigenvalues --   -0.48026  -0.47782  -0.47394  -0.47352  -0.46974
 Alpha  occ. eigenvalues --   -0.46859  -0.46658  -0.46574  -0.46429  -0.46369
 Alpha  occ. eigenvalues --   -0.46277  -0.46020  -0.45928  -0.45873  -0.45649
 Alpha  occ. eigenvalues --   -0.45286  -0.44954  -0.44716  -0.44605  -0.44371
 Alpha  occ. eigenvalues --   -0.44314  -0.44197  -0.44170  -0.44090  -0.43869
 Alpha  occ. eigenvalues --   -0.43822  -0.43696  -0.43563  -0.43486  -0.43370
 Alpha  occ. eigenvalues --   -0.43285  -0.43094  -0.42825  -0.42719  -0.42710
 Alpha  occ. eigenvalues --   -0.42483  -0.42325  -0.42006  -0.41819  -0.41762
 Alpha  occ. eigenvalues --   -0.41617  -0.41426  -0.41247  -0.41227  -0.40988
 Alpha  occ. eigenvalues --   -0.40867  -0.40749  -0.40648  -0.40466  -0.40414
 Alpha  occ. eigenvalues --   -0.40301  -0.40247  -0.39991  -0.39469  -0.39255
 Alpha  occ. eigenvalues --   -0.38584  -0.38129  -0.37822  -0.37473  -0.37425
 Alpha  occ. eigenvalues --   -0.37352  -0.37039  -0.36948  -0.36727  -0.36572
 Alpha  occ. eigenvalues --   -0.36242  -0.35996  -0.34399  -0.33990  -0.33803
 Alpha  occ. eigenvalues --   -0.33645  -0.33290  -0.32911  -0.31365  -0.31131
 Alpha  occ. eigenvalues --   -0.30927  -0.30689  -0.30141  -0.29691  -0.29545
 Alpha  occ. eigenvalues --   -0.29437  -0.29021  -0.28928  -0.24192  -0.23772
 Alpha  occ. eigenvalues --   -0.21244  -0.20843
 Alpha virt. eigenvalues --   -0.08880  -0.08505  -0.01856  -0.01411  -0.00127
 Alpha virt. eigenvalues --    0.00294   0.02076   0.02370   0.02585   0.03595
 Alpha virt. eigenvalues --    0.04614   0.05000   0.05051   0.05384   0.06055

 Mulliken charges:
               1
     1  Mg   0.838558
     2  C   -0.002152
     3  C   -0.094265
     4  C   -0.045869
     5  C   -0.065809
     6  N   -0.256681
     7  C   -0.052661
     8  C   -0.013987
     9  C   -0.087004
    10  C    0.046531
    11  C    0.104759
    12  C    0.052843
    13  C   -0.072265
    14  H    0.037417
    15  N   -0.433416
    16  C    0.169047
    17  C   -0.176940
    18  C   -0.003188
    19  C    0.149417
    20  C    0.110229
    21  C    0.013391
    22  O   -0.248078
    23  C    0.062109
    24  N   -0.341108
    25  C    0.041139
    26  C   -0.029539
    27  C   -0.024737
    28  C    0.074668
    29  C    0.076482
    30  C    0.064082
    31  C   -0.038626
    32  N   -0.310215
    33  C    0.079564
    34  C   -0.171900
    35  C    0.008094
    36  C    0.082761
    37  C    0.127781
    38  C    0.045576
    39  O   -0.189085
    40  C   -0.005104
    41  C    0.212188
    42  O   -0.255926
    43  O   -0.305162
    44  C    0.157051
    45  H   -0.017239
    46  H   -0.016106
    47  H   -0.043089
    48  H    0.001210
    49  H   -0.004055
    50  H    0.025635
    51  H    0.016489
    52  H    0.016940
    53  H    0.010292
    54  H    0.045531
    55  H    0.018067
    56  H    0.017320
    57  H    0.005759
    58  H    0.027520
    59  H    0.039661
    60  H    0.036978
    61  H    0.038178
    62  H    0.031134
    63  H    0.016858
    64  H    0.009428
    65  H    0.023739
    66  H    0.013013
    67  H    0.004670
    68  H    0.003421
    69  H    0.000315
    70  H    0.012162
    71  H    0.016822
    72  H    0.034622
    73  H    0.045617
    74  H    0.007553
    75  H    0.046594
    76  H    0.035231
    77  H    0.042758
    78  H    0.046447
    79  H    0.055749
    80  Mg   0.836693
    81  C   -0.016624
    82  C   -0.087508
    83  C   -0.041144
    84  C   -0.065953
    85  N   -0.254528
    86  C   -0.051203
    87  C   -0.014474
    88  C   -0.075052
    89  C    0.045182
    90  C    0.079929
    91  C    0.063740
    92  C   -0.077437
    93  H    0.034380
    94  N   -0.424502
    95  C    0.163348
    96  C   -0.170400
    97  C   -0.004503
    98  C    0.152681
    99  C    0.097557
   100  C    0.018472
   101  O   -0.253141
   102  C    0.060433
   103  N   -0.350046
   104  C    0.037375
   105  C   -0.020120
   106  C   -0.033997
   107  C    0.088352
   108  C    0.072321
   109  C    0.035105
   110  C   -0.007482
   111  N   -0.323850
   112  C    0.077799
   113  C   -0.164433
   114  C    0.002440
   115  C    0.095365
   116  C    0.131526
   117  C    0.042598
   118  O   -0.188684
   119  C    0.000704
   120  C    0.211019
   121  O   -0.251469
   122  O   -0.305507
   123  C    0.152237
   124  H   -0.018846
   125  H   -0.014601
   126  H   -0.042671
   127  H   -0.001561
   128  H   -0.005364
   129  H    0.035827
   130  H    0.018079
   131  H    0.025100
   132  H    0.013867
   133  H    0.037350
   134  H    0.019556
   135  H    0.019186
   136  H    0.008011
   137  H    0.031869
   138  H    0.038816
   139  H    0.041819
   140  H    0.035447
   141  H    0.032356
   142  H    0.013843
   143  H    0.009870
   144  H    0.023524
   145  H    0.018644
   146  H    0.001958
   147  H    0.005029
   148  H    0.002398
   149  H    0.010844
   150  H    0.017162
   151  H    0.030874
   152  H    0.045510
   153  H    0.007012
   154  H    0.044806
   155  H    0.036035
   156  H    0.043639
   157  H    0.048956
   158  H    0.053259
 Sum of Mulliken charges =  -0.00000

 Dipole moment (field-independent basis, Debye):
    X=              4.1592    Y=             -1.2521    Z=              0.1904  Tot=              4.3477
 Quadrupole moment (field-independent basis, Debye-Ang):
   XX=           -536.9941   YY=           -532.3140   ZZ=           -451.6656
   XY=            -21.1380   XZ=             57.8423   YZ=             21.0500

 Normal termination of Gaussian 16 at Fri Sep  3 13:25:00 2021.
