 Gaussian 16, Revision A.03,
 Gaussian 16:  ES64L-G16RevA.03 25-Dec-2016

 -----------------------------------
 #p cam-b3lyp/Def2SVP td=(nstates=5)
 -----------------------------------

 --------------------------------
 TDDFT excited states in gaussian
 --------------------------------
 Symbolic Z-matrix:
 Charge =  0 Multiplicity = 1

                         Standard orientation:
 ---------------------------------------------------------------------
 Center     Atomic      Atomic             Coordinates (Angstroms)
 Number     Number       Type             X           Y           Z
 ---------------------------------------------------------------------
      1         12           0       15.775888   -0.777626    0.245699
      2          6           0       16.118482    2.368376   -1.426879
      3          6           0       16.742056    0.807903    3.108509
      4          6           0       15.920531   -3.620950    1.642554
      5          6           0       15.949186   -2.294727   -2.887037
      6          7           0       16.331103    1.324660    0.661363
      7          6           0       16.363920    2.444591   -0.054073
      8          6           0       16.609628    3.720203    0.806052
      9          6           0       17.338077    3.046017    2.053783
     10          6           0       16.742636    1.652338    1.958744
     11          6           0       18.851662    2.945402    1.894285
     12          6           0       15.273463    4.417346    1.230769
     13          6           0       15.425060    5.835351    1.789011
     14          1           0       14.393072    6.817976    1.494399
     15          7           0       15.782780   -1.265755    2.159996
     16          6           0       16.194595   -0.490634    3.191926
     17          6           0       16.002879   -1.302205    4.413105
     18          6           0       15.624795   -2.679106    3.989676
     19          6           0       15.788569   -2.582702    2.561648
     20          6           0       16.130986   -0.747132    5.798469
     21          6           0       15.195699   -3.892669    4.752088
     22          8           0       15.138749   -5.050192    4.212209
     23          6           0       14.925266   -3.704226    6.188890
     24          7           0       16.134872   -2.700828   -0.482352
     25          6           0       16.083420   -3.765364    0.325794
     26          6           0       16.090443   -5.045371   -0.456173
     27          6           0       15.911790   -4.628983   -1.987335
     28          6           0       15.915373   -3.089935   -1.815324
     29          6           0       17.347105   -5.913992   -0.306804
     30          6           0       14.739224   -5.281908   -2.761414
     31          6           0       13.421082   -4.789655   -2.207080
     32          7           0       15.816528   -0.108610   -1.818717
     33          6           0       15.913295   -0.912447   -2.963773
     34          6           0       16.014369   -0.004870   -4.121424
     35          6           0       15.985877    1.272126   -3.564366
     36          6           0       15.900532    1.168566   -2.146522
     37          6           0       16.174069   -0.400217   -5.478860
     38          6           0       16.032500    2.699793   -3.835382
     39          8           0       16.010321    3.389963   -4.855513
     40          6           0       16.243018    3.465240   -2.454947
     41          6           0       15.248353    4.592791   -2.404178
     42          8           0       14.024063    4.362964   -2.328945
     43          8           0       15.898572    5.750914   -2.213103
     44          6           0       14.967166    6.907052   -2.123759
     45          1           0       17.257980    1.143613    4.010208
     46          1           0       15.863408   -4.622105    2.074833
     47          1           0       15.921185   -2.695254   -3.902048
     48          1           0       17.266270    4.458939    0.346146
     49          1           0       17.052927    3.516576    2.994520
     50          1           0       19.166947    3.236814    0.892489
     51          1           0       19.095076    1.899232    2.080755
     52          1           0       19.361780    3.514884    2.671618
     53          1           0       14.869072    3.914401    2.109163
     54          1           0       14.564561    4.429980    0.402140
     55          1           0       16.413366    6.243898    1.576288
     56          1           0       15.383040    5.780443    2.876862
     57          1           0       16.579125    0.245681    5.792268
     58          1           0       16.855074   -1.368708    6.324825
     59          1           0       15.181256   -0.755864    6.333510
     60          1           0       15.823154   -3.325138    6.677396
     61          1           0       14.544823   -4.658692    6.550978
     62          1           0       14.163412   -2.933079    6.306614
     63          1           0       15.261766   -5.688045   -0.161742
     64          1           0       16.791938   -4.872673   -2.582842
     65          1           0       17.140630   -6.926827    0.039948
     66          1           0       18.032577   -5.401809    0.367798
     67          1           0       17.953495   -5.999414   -1.208143
     68          1           0       14.756687   -6.363788   -2.634220
     69          1           0       14.760618   -5.073349   -3.831132
     70          1           0       13.257718   -5.443298   -1.350987
     71          1           0       12.628790   -4.909676   -2.946728
     72          1           0       13.504213   -3.770886   -1.828023
     73          1           0       15.501497    0.229534   -6.061121
     74          1           0       15.943202   -1.456727   -5.613363
     75          1           0       17.230985   -0.181226   -5.629950
     76          1           0       17.271173    3.825789   -2.450062
     77          1           0       15.277789    7.628622   -2.879460
     78          1           0       14.973460    7.230308   -1.082668
     79          1           0       13.936765    6.720608   -2.428476
     80         12           0      -15.946112    0.721720    0.404847
     81          6           0      -15.904646   -2.623659   -0.893514
     82          6           0      -15.034326    1.780976   -2.706613
     83          6           0      -15.535191    3.623171    1.621477
     84          6           0      -15.727164   -0.662412    3.595766
     85          7           0      -15.551494   -0.375047   -1.474949
     86          6           0      -15.627158   -1.638776   -1.864314
     87          6           0      -15.471477   -1.850874   -3.394124
     88          6           0      -14.649581   -0.515220   -3.739660
     89          6           0      -15.129891    0.371051   -2.592271
     90          6           0      -13.144696   -0.685209   -3.614168
     91          6           0      -16.853319   -1.883289   -4.136743
     92          6           0      -16.796737   -2.392909   -5.578571
     93          1           0      -17.919312   -3.178493   -6.083683
     94          7           0      -15.851169    2.489125   -0.492855
     95          6           0      -15.483022    2.735578   -1.767605
     96          6           0      -15.559737    4.195295   -1.933474
     97          6           0      -15.844152    4.803967   -0.605557
     98          6           0      -15.731451    3.638451    0.248226
     99          6           0      -15.449081    4.869285   -3.270232
    100          6           0      -16.152320    6.205668   -0.173746
    101          8           0      -16.130450    6.550171    1.060627
    102          6           0      -16.388801    7.184612   -1.244843
    103          7           0      -15.458446    1.395592    2.310217
    104          6           0      -15.395136    2.710654    2.583248
    105          6           0      -15.301315    2.955081    4.070475
    106          6           0      -15.559495    1.533763    4.756601
    107          6           0      -15.674494    0.658223    3.489471
    108          6           0      -13.973924    3.526608    4.568262
    109          6           0      -16.695823    1.458194    5.812866
    110          6           0      -18.036198    1.663351    5.144522
    111          7           0      -16.020195   -1.266989    1.246037
    112          6           0      -15.882089   -1.623868    2.605320
    113          6           0      -15.887205   -3.099717    2.670636
    114          6           0      -16.005748   -3.502465    1.331896
    115          6           0      -16.049643   -2.358618    0.489765
    116          6           0      -15.742557   -3.880642    3.851890
    117          6           0      -16.093020   -4.635296    0.438709
    118          8           0      -16.191772   -5.852691    0.586807
    119          6           0      -15.904146   -4.118759   -1.052560
    120          6           0      -16.985836   -4.733800   -1.897666
    121          8           0      -18.179632   -4.442174   -1.706860
    122          8           0      -16.420754   -5.392081   -2.926124
    123          6           0      -17.453886   -6.010173   -3.799294
    124          1           0      -14.530146    2.197769   -3.578956
    125          1           0      -15.498354    4.602885    2.103439
    126          1           0      -15.761623   -1.169345    4.562465
    127          1           0      -14.896101   -2.724730   -3.675347
    128          1           0      -14.955404   -0.099604   -4.696269
    129          1           0      -12.881123   -1.645990   -3.197540
    130          1           0      -12.811650    0.113276   -2.964140
    131          1           0      -12.663445   -0.507914   -4.580245
    132          1           0      -17.188518   -0.853357   -4.314529
    133          1           0      -17.571752   -2.452997   -3.580055
    134          1           0      -15.846421   -2.892811   -5.802058
    135          1           0      -16.811613   -1.532243   -6.251655
    136          1           0      -15.077127    4.180268   -4.038546
    137          1           0      -14.663445    5.627464   -3.182001
    138          1           0      -16.377896    5.356545   -3.574442
    139          1           0      -15.514006    7.233638   -1.888873
    140          1           0      -16.680762    8.106790   -0.738664
    141          1           0      -17.217969    6.829231   -1.866791
    142          1           0      -16.067184    3.647541    4.397648
    143          1           0      -14.674160    1.178950    5.304436
    144          1           0      -14.088251    4.478465    5.120508
    145          1           0      -13.317996    3.656833    3.717779
    146          1           0      -13.395121    2.861340    5.206694
    147          1           0      -16.587245    2.262928    6.544152
    148          1           0      -16.712724    0.523267    6.362975
    149          1           0      -18.116674    2.752716    5.082103
    150          1           0      -18.835319    1.242683    5.751553
    151          1           0      -18.028690    1.274117    4.119778
    152          1           0      -16.472488   -4.676799    3.790106
    153          1           0      -15.884959   -3.278234    4.746662
    154          1           0      -14.706707   -4.212240    3.740852
    155          1           0      -14.908151   -4.419595   -1.379793
    156          1           0      -17.220550   -7.077439   -3.864045
    157          1           0      -17.433055   -5.431905   -4.742118
    158          1           0      -18.471840   -6.038348   -3.428579
 ---------------------------------------------------------------------

 SCF Done:  E(RCAM-B3LYP) =  -4069.81177934     A.U. after   19 cycles

 Excitation energies and oscillator strengths:

 Excited State   1:      Singlet-A      1.6755 eV  739.99 nm  f=0.3119  <S**2>=0.000
     310 -> 316        0.17124
     311 -> 314        0.11176
     312 -> 313        0.67688
     310 <- 316        0.10322
 This state for optimization and/or second-order correction.
 Total Energy, E(TD-HF/TD-DFT) =  -4069.75020646
 Copying the excited state density for this state as the 1-particle RhoCI density.

 Excited State   2:      Singlet-A      1.6800 eV  738.00 nm  f=0.4647  <S**2>=0.000
     309 -> 315        0.17324
     311 -> 314        0.67653
     312 -> 313       -0.11173
     309 <- 315        0.10374

 Excited State   3:      Singlet-A      2.1861 eV  567.14 nm  f=0.0997  <S**2>=0.000
     310 -> 313        0.64235
     312 -> 316       -0.27305

 Excited State   4:      Singlet-A      2.1926 eV  565.47 nm  f=0.1010  <S**2>=0.000
     309 -> 314        0.64057
     311 -> 315       -0.27826

 Excited State   5:      Singlet-A      3.0660 eV  404.38 nm  f=0.0000  <S**2>=0.000
     311 -> 313        0.70711

 The electronic state is 1-A.
 Alpha  occ. eigenvalues --  -46.87796 -46.87660 -19.26347 -19.26288 -19.19160
 Alpha  occ. eigenvalues --  -19.19024 -19.18812 -19.18713 -19.18172 -19.18051
 Alpha  occ. eigenvalues --  -14.42496 -14.42450 -14.41449 -14.41359 -14.39402
 Alpha  occ. eigenvalues --  -14.39352 -14.38600 -14.38587 -10.39089 -10.39083
 Alpha  occ. eigenvalues --  -10.35445 -10.35391 -10.34392 -10.34228 -10.31754
 Alpha  occ. eigenvalues --  -10.31684 -10.31405 -10.31307 -10.31021 -10.30908
 Alpha  occ. eigenvalues --  -10.30570 -10.30507 -10.30398 -10.30360 -10.30206
 Alpha  occ. eigenvalues --  -10.30141 -10.29921 -10.29896 -10.29631 -10.29436
 Alpha  occ. eigenvalues --  -10.29401 -10.29254 -10.28749 -10.28715 -10.28648
 Alpha  occ. eigenvalues --  -10.28539 -10.28404 -10.28365 -10.28135 -10.28116
 Alpha  occ. eigenvalues --  -10.28001 -10.27793 -10.27727 -10.27667 -10.27584
 Alpha  occ. eigenvalues --  -10.27521 -10.27501 -10.27483 -10.27478 -10.27466
 Alpha  occ. eigenvalues --  -10.27461 -10.27449 -10.27404 -10.27379 -10.27160
 Alpha  occ. eigenvalues --  -10.27049 -10.26705 -10.26688 -10.26412 -10.26405
 Alpha  occ. eigenvalues --  -10.26234 -10.26184 -10.26143 -10.26019 -10.26017
 Alpha  occ. eigenvalues --  -10.25935 -10.25854 -10.25847 -10.25434 -10.25401
 Alpha  occ. eigenvalues --  -10.24873 -10.24833 -10.24787 -10.24736 -10.24690
 Alpha  occ. eigenvalues --  -10.24687  -3.16539  -3.16410  -1.91421  -1.91292
 Alpha  occ. eigenvalues --   -1.91007  -1.90881  -1.90850  -1.90718  -1.16641
 Alpha  occ. eigenvalues --   -1.16637  -1.08658  -1.08630  -1.07213  -1.06965
 Alpha  occ. eigenvalues --   -1.06944  -1.06646  -1.04581  -1.04494  -1.03760
 Alpha  occ. eigenvalues --   -1.03663  -1.03234  -1.03039  -1.02411  -1.02111
 Alpha  occ. eigenvalues --   -0.91987  -0.91973  -0.89520  -0.89496  -0.89188
 Alpha  occ. eigenvalues --   -0.89147  -0.88287  -0.88222  -0.87871  -0.87794
 Alpha  occ. eigenvalues --   -0.87683  -0.87673  -0.87272  -0.87118  -0.84997
 Alpha  occ. eigenvalues --   -0.84982  -0.83936  -0.83879  -0.82965  -0.82931
 Alpha  occ. eigenvalues --   -0.82650  -0.82648  -0.81595  -0.81587  -0.80597
 Alpha  occ. eigenvalues --   -0.80442  -0.78796  -0.78635  -0.77218  -0.77143
 Alpha  occ. eigenvalues --   -0.76935  -0.76897  -0.75924  -0.75836  -0.74898
 Alpha  occ. eigenvalues --   -0.74804  -0.72774  -0.72699  -0.71672  -0.71580
 Alpha  occ. eigenvalues --   -0.69907  -0.69761  -0.68873  -0.68825  -0.67641
 Alpha  occ. eigenvalues --   -0.67601  -0.67219  -0.67197  -0.65287  -0.65269
 Alpha  occ. eigenvalues --   -0.64854  -0.64770  -0.64653  -0.64621  -0.64269
 Alpha  occ. eigenvalues --   -0.64205  -0.62300  -0.62278  -0.60441  -0.60339
 Alpha  occ. eigenvalues --   -0.59804  -0.59794  -0.58993  -0.58988  -0.58504
 Alpha  occ. eigenvalues --   -0.58425  -0.57586  -0.57554  -0.57309  -0.57237
 Alpha  occ. eigenvalues --   -0.56310  -0.56204  -0.55981  -0.55885  -0.55519
 Alpha  occ. eigenvalues --   -0.55451  -0.55340  -0.55249  -0.54525  -0.54489
 Alpha  occ. eigenvalues --   -0.53909  -0.53895  -0.53298  -0.53227  -0.53221
 Alpha  occ. eigenvalues --   -0.53140  -0.52916  -0.52901  -0.52754  -0.52665
 Alpha  occ. eigenvalues --   -0.52438  -0.52405  -0.51917  -0.51887  -0.51656
 Alpha  occ. eigenvalues --   -0.51616  -0.51201  -0.51197  -0.50569  -0.50473
 Alpha  occ. eigenvalues --   -0.50031  -0.49978  -0.49917  -0.49868  -0.49514
 Alpha  occ. eigenvalues --   -0.49486  -0.49215  -0.49201  -0.49102  -0.49096
 Alpha  occ. eigenvalues --   -0.48594  -0.48557  -0.48461  -0.48445  -0.48378
 Alpha  occ. eigenvalues --   -0.48337  -0.47694  -0.47593  -0.47296  -0.47117
 Alpha  occ. eigenvalues --   -0.46797  -0.46709  -0.46555  -0.46551  -0.46359
 Alpha  occ. eigenvalues --   -0.46271  -0.46163  -0.46086  -0.45824  -0.45822
 Alpha  occ. eigenvalues --   -0.45210  -0.45201  -0.44579  -0.44513  -0.44506
 Alpha  occ. eigenvalues --   -0.44474  -0.44144  -0.44126  -0.44088  -0.44078
 Alpha  occ. eigenvalues --   -0.44019  -0.43937  -0.43553  -0.43496  -0.43385
 Alpha  occ. eigenvalues --   -0.43384  -0.43027  -0.42929  -0.42901  -0.42701
 Alpha  occ. eigenvalues --   -0.42656  -0.42555  -0.42010  -0.41965  -0.41704
 Alpha  occ. eigenvalues --   -0.41669  -0.41533  -0.41457  -0.41141  -0.40988
 Alpha  occ. eigenvalues --   -0.40869  -0.40821  -0.40720  -0.40697  -0.40571
 Alpha  occ. eigenvalues --   -0.40495  -0.40234  -0.40223  -0.39441  -0.39429
 Alpha  occ. eigenvalues --   -0.38469  -0.38352  -0.37748  -0.37651  -0.37320
 Alpha  occ. eigenvalues --   -0.37267  -0.37263  -0.37197  -0.36771  -0.36715
 Alpha  occ. eigenvalues --   -0.36218  -0.36193  -0.34286  -0.34253  -0.33861
 Alpha  occ. eigenvalues --   -0.33773  -0.33186  -0.33175  -0.31342  -0.31272
 Alpha  occ. eigenvalues --   -0.31035  -0.30972  -0.30031  -0.29956  -0.29449
 Alpha  occ. eigenvalues --   -0.29327  -0.29322  -0.29212  -0.24080  -0.24036
 Alpha  occ. eigenvalues --   -0.21127  -0.21117
 Alpha virt. eigenvalues --   -0.08792  -0.08774  -0.01749  -0.01684  -0.00057
 Alpha virt. eigenvalues --   -0.00028   0.02199   0.02207   0.03122   0.03226
 Alpha virt. eigenvalues --    0.04718   0.04732   0.05095   0.05166   0.06178

 Mulliken charges:
               1
     1  Mg   0.838780
     2  C   -0.002964
     3  C   -0.094110
     4  C   -0.045871
     5  C   -0.063969
     6  N   -0.256798
     7  C   -0.052476
     8  C   -0.014028
     9  C   -0.087005
    10  C    0.046349
    11  C    0.104808
    12  C    0.053464
    13  C   -0.071812
    14  H    0.036113
    15  N   -0.433162
    16  C    0.168427
    17  C   -0.177127
    18  C   -0.003967
    19  C    0.148715
    20  C    0.110168
    21  C    0.012297
    22  O   -0.249594
    23  C    0.062470
    24  N   -0.341146
    25  C    0.041263
    26  C   -0.028190
    27  C   -0.023945
    28  C    0.074825
    29  C    0.076163
    30  C    0.035121
    31  C   -0.004499
    32  N   -0.310463
    33  C    0.080397
    34  C   -0.169746
    35  C    0.008327
    36  C    0.082981
    37  C    0.127322
    38  C    0.046089
    39  O   -0.188509
    40  C   -0.005316
    41  C    0.212857
    42  O   -0.257128
    43  O   -0.304787
    44  C    0.157706
    45  H   -0.017578
    46  H   -0.016810
    47  H   -0.041519
    48  H    0.000927
    49  H   -0.004011
    50  H    0.025464
    51  H    0.016454
    52  H    0.016676
    53  H    0.011225
    54  H    0.044102
    55  H    0.017869
    56  H    0.017982
    57  H    0.005887
    58  H    0.026855
    59  H    0.039600
    60  H    0.037355
    61  H    0.035701
    62  H    0.031523
    63  H    0.016574
    64  H    0.009450
    65  H    0.023239
    66  H    0.012554
    67  H    0.004748
    68  H    0.006380
    69  H    0.004696
    70  H    0.008813
    71  H    0.018109
    72  H    0.028976
    73  H    0.047510
    74  H    0.009090
    75  H    0.045996
    76  H    0.035144
    77  H    0.042916
    78  H    0.046425
    79  H    0.053652
    80  Mg   0.837859
    81  C   -0.016821
    82  C   -0.087756
    83  C   -0.045525
    84  C   -0.064880
    85  N   -0.254574
    86  C   -0.049833
    87  C   -0.015101
    88  C   -0.090500
    89  C    0.045749
    90  C    0.114352
    91  C    0.062521
    92  C   -0.077921
    93  H    0.034904
    94  N   -0.423495
    95  C    0.162930
    96  C   -0.174591
    97  C   -0.007793
    98  C    0.152136
    99  C    0.099346
   100  C    0.015582
   101  O   -0.253199
   102  C    0.061191
   103  N   -0.350078
   104  C    0.037549
   105  C   -0.019847
   106  C   -0.034779
   107  C    0.088897
   108  C    0.073658
   109  C    0.034738
   110  C   -0.007676
   111  N   -0.324112
   112  C    0.078441
   113  C   -0.163166
   114  C    0.002250
   115  C    0.096190
   116  C    0.131490
   117  C    0.042371
   118  O   -0.187887
   119  C    0.000920
   120  C    0.211258
   121  O   -0.251028
   122  O   -0.305616
   123  C    0.152017
   124  H   -0.019564
   125  H   -0.015574
   126  H   -0.040496
   127  H   -0.000616
   128  H   -0.004277
   129  H    0.022475
   130  H    0.014444
   131  H    0.016390
   132  H    0.013918
   133  H    0.037651
   134  H    0.020829
   135  H    0.019630
   136  H    0.008824
   137  H    0.026217
   138  H    0.039822
   139  H    0.038304
   140  H    0.036401
   141  H    0.033906
   142  H    0.014386
   143  H    0.012394
   144  H    0.025120
   145  H    0.011681
   146  H    0.005654
   147  H    0.006233
   148  H    0.003625
   149  H    0.010932
   150  H    0.017910
   151  H    0.030128
   152  H    0.045984
   153  H    0.008480
   154  H    0.046941
   155  H    0.035064
   156  H    0.043919
   157  H    0.049526
   158  H    0.053570
 Sum of Mulliken charges =  -0.00000

 Dipole moment (field-independent basis, Debye):
    X=              4.1493    Y=              2.8991    Z=              1.1001  Tot=              5.1799
 Quadrupole moment (field-independent basis, Debye-Ang):
   XX=           -518.3744   YY=           -533.6142   ZZ=           -465.2005
   XY=            -35.8272   XZ=            113.1556   YZ=             31.3373

 Normal termination of Gaussian 16 at Sat Sep  4 17:07:03 2021.
