 Gaussian 16, Revision A.03,
 Gaussian 16:  ES64L-G16RevA.03 25-Dec-2016

 -----------------------------------
 #p cam-b3lyp/Def2SVP td=(nstates=5)
 -----------------------------------

 --------------------------------
 TDDFT excited states in gaussian
 --------------------------------
 Symbolic Z-matrix:
 Charge =  0 Multiplicity = 1

                         Standard orientation:
 ---------------------------------------------------------------------
 Center     Atomic      Atomic             Coordinates (Angstroms)
 Number     Number       Type             X           Y           Z
 ---------------------------------------------------------------------
      1         12           0      -15.858115   -0.643813   -0.427037
      2          6           0      -16.126371    1.935395    2.040338
      3          6           0      -16.670946    1.709539   -2.760297
      4          6           0      -16.072921   -2.985029   -2.555226
      5          6           0      -16.188922   -2.951964    2.163072
      6          7           0      -16.315713    1.515524   -0.258176
      7          6           0      -16.325901    2.396586    0.737212
      8          6           0      -16.493652    3.869240    0.257085
      9          6           0      -17.209443    3.598036   -1.141517
     10          6           0      -16.673411    2.205364   -1.422693
     11          6           0      -18.730055    3.528716   -1.044387
     12          6           0      -15.118170    4.592596    0.065941
     13          6           0      -15.195597    6.114818   -0.083051
     14          1           0      -14.134787    6.929406    0.490080
     15          7           0      -15.825176   -0.587393   -2.401520
     16          6           0      -16.173501    0.459444   -3.187706
     17          6           0      -15.976617    0.005796   -4.581306
     18          6           0      -15.667173   -1.450609   -4.546314
     19          6           0      -15.871144   -1.741928   -3.150281
     20          6           0      -16.039438    0.924873   -5.762450
     21          6           0      -15.263499   -2.427329   -5.605180
     22          8           0      -15.269619   -3.689875   -5.403899
     23          6           0      -14.941349   -1.865012   -6.929212
     24          7           0      -16.316071   -2.673881   -0.263532
     25          6           0      -16.282184   -3.477187   -1.332427
     26          6           0      -16.364594   -4.920763   -0.933387
     27          6           0      -16.216984   -4.949091    0.656318
     28          6           0      -16.153718   -3.423469    0.914669
     29          6           0      -17.649734   -5.655129   -1.339752
     30          6           0      -15.096006   -5.843562    1.242620
     31          6           0      -13.742696   -5.280616    0.870141
     32          7           0      -15.935948   -0.565423    1.740644
     33          6           0      -16.100209   -1.646988    2.618090
     34          6           0      -16.200759   -1.087958    3.978768
     35          6           0      -16.104000    0.290043    3.795477
     36          6           0      -15.978958    0.575377    2.405786
     37          6           0      -16.418129   -1.832445    5.171632
     38          6           0      -16.101902    1.589212    4.448174
     39          8           0      -16.083785    1.971342    5.619131
     40          6           0      -16.238773    2.712875    3.328140
     41          6           0      -15.198741    3.763131    3.608503
     42          8           0      -13.982872    3.505530    3.495942
     43          8           0      -15.795918    4.958454    3.731487
     44          6           0      -14.816726    6.049717    3.981454
     45          1           0      -17.144846    2.303489   -3.544252
     46          1           0      -16.042487   -3.830795   -3.245292
     47          1           0      -16.208425   -3.616336    3.028915
     48          1           0      -17.134182    4.483519    0.890178
     49          1           0      -16.876693    4.294604   -1.910797
     50          1           0      -19.064339    3.548704   -0.007191
     51          1           0      -19.009192    2.586414   -1.516238
     52          1           0      -19.192667    4.312830   -1.644331
     53          1           0      -14.707174    4.331403   -0.909211
     54          1           0      -14.435353    4.344215    0.879203
     55          1           0      -16.172901    6.495300    0.215307
     56          1           0      -15.122108    6.358424   -1.142983
     57          1           0      -16.447515    1.897827   -5.491566
     58          1           0      -16.771128    0.506176   -6.453124
     59          1           0      -15.074690    1.018620   -6.261252
     60          1           0      -15.807796   -1.324774   -7.311262
     61          1           0      -14.588319   -2.700361   -7.532878
     62          1           0      -14.146000   -1.127797   -6.815713
     63          1           0      -15.553538   -5.496228   -1.377745
     64          1           0      -17.124203   -5.305141    1.145048
     65          1           0      -17.473257   -6.542580   -1.948021
     66          1           0      -18.292950   -4.945991   -1.860029
     67          1           0      -18.286699   -5.955881   -0.508342
     68          1           0      -15.152745   -6.847027    0.822161
     69          1           0      -15.142192   -5.935580    2.327816
     70          1           0      -13.579132   -5.681357   -0.129601
     71          1           0      -12.979139   -5.635928    1.562922
     72          1           0      -13.773254   -4.194219    0.784741
     73          1           0      -15.739294   -1.418807    5.917323
     74          1           0      -16.233952   -2.894965    5.014363
     75          1           0      -17.469622   -1.613912    5.357270
     76          1           0      -17.251050    3.108799    3.403376
     77          1           0      -15.121535    6.550147    4.900635
     78          1           0      -14.777825    6.646002    3.069678
     79          1           0      -13.804541    5.738696    4.242385
     80         12           0       15.873877   -0.640787    0.425456
     81          6           0       16.067869    1.952377   -2.047787
     82          6           0       16.762736    1.703979    2.737722
     83          6           0       16.151418   -2.982940    2.547891
     84          6           0       16.127972   -2.947828   -2.174303
     85          7           0       16.328973    1.516268    0.245828
     86          6           0       16.310268    2.406597   -0.734633
     87          6           0       16.486252    3.877568   -0.271128
     88          6           0       17.252894    3.603444    1.113059
     89          6           0       16.726632    2.200825    1.410338
     90          6           0       18.762697    3.524491    0.959419
     91          6           0       15.112625    4.597969   -0.034071
     92          6           0       15.201664    6.117923    0.119391
     93          1           0       14.117451    6.936298   -0.416542
     94          7           0       15.899930   -0.580079    2.408941
     95          6           0       16.266693    0.460225    3.186452
     96          6           0       16.128937   -0.006803    4.574642
     97          6           0       15.808906   -1.459985    4.551075
     98          6           0       15.964918   -1.741384    3.138071
     99          6           0       16.220657    0.914714    5.756082
    100          6           0       15.437940   -2.437714    5.624686
    101          8           0       15.435878   -3.701797    5.412753
    102          6           0       15.167833   -1.877388    6.956811
    103          7           0       16.318110   -2.663581    0.242987
    104          6           0       16.323152   -3.470070    1.318857
    105          6           0       16.395373   -4.922407    0.911555
    106          6           0       16.193039   -4.934293   -0.674791
    107          6           0       16.124985   -3.413015   -0.932626
    108          6           0       17.693391   -5.648461    1.264237
    109          6           0       15.053129   -5.830183   -1.232179
    110          6           0       13.710234   -5.278801   -0.810287
    111          7           0       15.878542   -0.557001   -1.733481
    112          6           0       16.021646   -1.639583   -2.628816
    113          6           0       16.079084   -1.072654   -3.991794
    114          6           0       15.987833    0.313019   -3.791654
    115          6           0       15.901380    0.591339   -2.400765
    116          6           0       16.248152   -1.814406   -5.194851
    117          6           0       15.955678    1.604217   -4.440108
    118          8           0       15.907909    1.988929   -5.607772
    119          6           0       16.133411    2.730442   -3.332678
    120          6           0       15.085308    3.783244   -3.568469
    121          8           0       13.878759    3.516536   -3.428105
    122          8           0       15.685629    4.979401   -3.707010
    123          6           0       14.686381    6.057704   -3.931922
    124          1           0       17.255146    2.304360    3.503199
    125          1           0       16.142792   -3.835670    3.230719
    126          1           0       16.107998   -3.607095   -3.044726
    127          1           0       17.100505    4.488442   -0.921735
    128          1           0       16.936733    4.300763    1.884512
    129          1           0       19.063947    3.548253   -0.077327
    130          1           0       19.056479    2.589104    1.417430
    131          1           0       19.243111    4.311882    1.547252
    132          1           0       14.735068    4.330426    0.961228
    133          1           0       14.415048    4.353509   -0.811413
    134          1           0       16.174104    6.508619   -0.204137
    135          1           0       15.155051    6.362604    1.183333
    136          1           0       16.627412    1.893216    5.472379
    137          1           0       16.972512    0.493734    6.432351
    138          1           0       15.274165    1.006568    6.293103
    139          1           0       16.044523   -1.336920    7.305797
    140          1           0       14.832994   -2.719458    7.565641
    141          1           0       14.359266   -1.143010    6.870086
    142          1           0       15.598211   -5.493210    1.371781
    143          1           0       17.088608   -5.301780   -1.197039
    144          1           0       17.534396   -6.549238    1.886648
    145          1           0       18.349474   -4.950086    1.766595
    146          1           0       18.295315   -5.958653    0.411792
    147          1           0       15.121786   -6.836191   -0.811001
    148          1           0       15.072084   -5.931230   -2.312191
    149          1           0       13.583777   -5.682314    0.198809
    150          1           0       12.925309   -5.630039   -1.477054
    151          1           0       13.741986   -4.186252   -0.726834
    152          1           0       15.553371   -1.402637   -5.914739
    153          1           0       16.073489   -2.876347   -5.035054
    154          1           0       17.298020   -1.599029   -5.410870
    155          1           0       17.143759    3.129469   -3.430441
    156          1           0       14.965567    6.563166   -4.861570
    157          1           0       14.689522    6.665441   -3.007580
    158          1           0       13.667833    5.759390   -4.151021
 ---------------------------------------------------------------------

 SCF Done:  E(RCAM-B3LYP) =  -4069.81177094     A.U. after   19 cycles

 Excitation energies and oscillator strengths:

 Excited State   1:      Singlet-A      1.6754 eV  740.05 nm  f=0.2158  <S**2>=0.000
     310 -> 316        0.16879
     311 -> 313        0.66714
     312 -> 314        0.16000
     310 <- 316        0.10176
 This state for optimization and/or second-order correction.
 Total Energy, E(TD-HF/TD-DFT) =  -4069.75020271
 Copying the excited state density for this state as the 1-particle RhoCI density.

 Excited State   2:      Singlet-A      1.6802 eV  737.93 nm  f=0.5617  <S**2>=0.000
     309 -> 315        0.17079
     311 -> 313       -0.15995
     312 -> 314        0.66677
     309 <- 315        0.10226

 Excited State   3:      Singlet-A      2.1862 eV  567.13 nm  f=0.0955  <S**2>=0.000
     310 -> 313        0.64213
     311 -> 316       -0.27302

 Excited State   4:      Singlet-A      2.1926 eV  565.47 nm  f=0.1046  <S**2>=0.000
     309 -> 314        0.64036
     312 -> 315       -0.27818

 Excited State   5:      Singlet-A      3.0590 eV  405.31 nm  f=0.0000  <S**2>=0.000
     312 -> 313        0.70711

 The electronic state is 1-A.
 Alpha  occ. eigenvalues --  -46.87754 -46.87661 -19.26353 -19.26246 -19.19164
 Alpha  occ. eigenvalues --  -19.18980 -19.18769 -19.18711 -19.18130 -19.18055
 Alpha  occ. eigenvalues --  -14.42499 -14.42408 -14.41407 -14.41360 -14.39360
 Alpha  occ. eigenvalues --  -14.39352 -14.38601 -14.38545 -10.39094 -10.39040
 Alpha  occ. eigenvalues --  -10.35403 -10.35388 -10.34350 -10.34232 -10.31761
 Alpha  occ. eigenvalues --  -10.31642 -10.31364 -10.31311 -10.31024 -10.30866
 Alpha  occ. eigenvalues --  -10.30528 -10.30465 -10.30399 -10.30362 -10.30164
 Alpha  occ. eigenvalues --  -10.30141 -10.29896 -10.29879 -10.29588 -10.29437
 Alpha  occ. eigenvalues --  -10.29401 -10.29212 -10.28720 -10.28708 -10.28654
 Alpha  occ. eigenvalues --  -10.28496 -10.28406 -10.28323 -10.28142 -10.28076
 Alpha  occ. eigenvalues --  -10.28002 -10.27751 -10.27685 -10.27670 -10.27541
 Alpha  occ. eigenvalues --  -10.27519 -10.27485 -10.27467 -10.27462 -10.27459
 Alpha  occ. eigenvalues --  -10.27436 -10.27408 -10.27377 -10.27362 -10.27119
 Alpha  occ. eigenvalues --  -10.27054 -10.26692 -10.26662 -10.26408 -10.26361
 Alpha  occ. eigenvalues --  -10.26195 -10.26141 -10.26137 -10.26029 -10.25977
 Alpha  occ. eigenvalues --  -10.25936 -10.25856 -10.25805 -10.25400 -10.25396
 Alpha  occ. eigenvalues --  -10.24875 -10.24791 -10.24745 -10.24728 -10.24691
 Alpha  occ. eigenvalues --  -10.24642  -3.16497  -3.16411  -1.91379  -1.91293
 Alpha  occ. eigenvalues --   -1.90965  -1.90882  -1.90807  -1.90719  -1.16647
 Alpha  occ. eigenvalues --   -1.16594  -1.08662  -1.08588  -1.07170  -1.06963
 Alpha  occ. eigenvalues --   -1.06949  -1.06603  -1.04539  -1.04496  -1.03718
 Alpha  occ. eigenvalues --   -1.03664  -1.03192  -1.03040  -1.02369  -1.02113
 Alpha  occ. eigenvalues --   -0.91989  -0.91931  -0.89495  -0.89477  -0.89153
 Alpha  occ. eigenvalues --   -0.89147  -0.88245  -0.88221  -0.87830  -0.87796
 Alpha  occ. eigenvalues --   -0.87685  -0.87631  -0.87230  -0.87118  -0.85001
 Alpha  occ. eigenvalues --   -0.84940  -0.83895  -0.83877  -0.82929  -0.82922
 Alpha  occ. eigenvalues --   -0.82653  -0.82606  -0.81599  -0.81546  -0.80555
 Alpha  occ. eigenvalues --   -0.80444  -0.78754  -0.78635  -0.77177  -0.77145
 Alpha  occ. eigenvalues --   -0.76900  -0.76893  -0.75883  -0.75841  -0.74857
 Alpha  occ. eigenvalues --   -0.74805  -0.72733  -0.72701  -0.71631  -0.71583
 Alpha  occ. eigenvalues --   -0.69865  -0.69758  -0.68831  -0.68828  -0.67603
 Alpha  occ. eigenvalues --   -0.67599  -0.67199  -0.67177  -0.65273  -0.65245
 Alpha  occ. eigenvalues --   -0.64812  -0.64772  -0.64655  -0.64579  -0.64227
 Alpha  occ. eigenvalues --   -0.64205  -0.62281  -0.62258  -0.60399  -0.60339
 Alpha  occ. eigenvalues --   -0.59798  -0.59763  -0.58994  -0.58946  -0.58462
 Alpha  occ. eigenvalues --   -0.58427  -0.57557  -0.57544  -0.57267  -0.57237
 Alpha  occ. eigenvalues --   -0.56268  -0.56206  -0.55939  -0.55889  -0.55477
 Alpha  occ. eigenvalues --   -0.55452  -0.55298  -0.55250  -0.54490  -0.54483
 Alpha  occ. eigenvalues --   -0.53914  -0.53853  -0.53256  -0.53228  -0.53179
 Alpha  occ. eigenvalues --   -0.53142  -0.52904  -0.52873  -0.52712  -0.52666
 Alpha  occ. eigenvalues --   -0.52401  -0.52395  -0.51889  -0.51875  -0.51659
 Alpha  occ. eigenvalues --   -0.51574  -0.51203  -0.51155  -0.50526  -0.50472
 Alpha  occ. eigenvalues --   -0.49989  -0.49980  -0.49875  -0.49868  -0.49487
 Alpha  occ. eigenvalues --   -0.49472  -0.49203  -0.49173  -0.49107  -0.49055
 Alpha  occ. eigenvalues --   -0.48561  -0.48552  -0.48419  -0.48403  -0.48378
 Alpha  occ. eigenvalues --   -0.48337  -0.47652  -0.47595  -0.47255  -0.47119
 Alpha  occ. eigenvalues --   -0.46755  -0.46710  -0.46555  -0.46513  -0.46317
 Alpha  occ. eigenvalues --   -0.46272  -0.46122  -0.46088  -0.45826  -0.45782
 Alpha  occ. eigenvalues --   -0.45210  -0.45160  -0.44537  -0.44516  -0.44477
 Alpha  occ. eigenvalues --   -0.44463  -0.44129  -0.44102  -0.44078  -0.44047
 Alpha  occ. eigenvalues --   -0.43977  -0.43939  -0.43556  -0.43455  -0.43387
 Alpha  occ. eigenvalues --   -0.43344  -0.42986  -0.42933  -0.42904  -0.42659
 Alpha  occ. eigenvalues --   -0.42613  -0.42554  -0.41967  -0.41965  -0.41671
 Alpha  occ. eigenvalues --   -0.41663  -0.41492  -0.41459  -0.41100  -0.40991
 Alpha  occ. eigenvalues --   -0.40827  -0.40778  -0.40721  -0.40698  -0.40530
 Alpha  occ. eigenvalues --   -0.40494  -0.40226  -0.40191  -0.39425  -0.39398
 Alpha  occ. eigenvalues --   -0.38427  -0.38351  -0.37706  -0.37654  -0.37278
 Alpha  occ. eigenvalues --   -0.37267  -0.37221  -0.37200  -0.36774  -0.36673
 Alpha  occ. eigenvalues --   -0.36219  -0.36152  -0.34255  -0.34244  -0.33865
 Alpha  occ. eigenvalues --   -0.33730  -0.33177  -0.33144  -0.31299  -0.31270
 Alpha  occ. eigenvalues --   -0.30993  -0.30974  -0.29989  -0.29959  -0.29406
 Alpha  occ. eigenvalues --   -0.29327  -0.29280  -0.29213  -0.24038  -0.24037
 Alpha  occ. eigenvalues --   -0.21118  -0.21085
 Alpha virt. eigenvalues --   -0.08793  -0.08732  -0.01707  -0.01684  -0.00028
 Alpha virt. eigenvalues --   -0.00015   0.02205   0.02241   0.03169   0.03230
 Alpha virt. eigenvalues --    0.04728   0.04760   0.05138   0.05162   0.06182

 Mulliken charges:
               1
     1  Mg   0.838875
     2  C   -0.002964
     3  C   -0.094096
     4  C   -0.045874
     5  C   -0.063977
     6  N   -0.256802
     7  C   -0.052467
     8  C   -0.014007
     9  C   -0.087027
    10  C    0.046350
    11  C    0.104821
    12  C    0.053471
    13  C   -0.071818
    14  H    0.036148
    15  N   -0.433156
    16  C    0.168439
    17  C   -0.177122
    18  C   -0.003981
    19  C    0.148737
    20  C    0.110170
    21  C    0.012322
    22  O   -0.249606
    23  C    0.062456
    24  N   -0.341160
    25  C    0.041244
    26  C   -0.028159
    27  C   -0.023971
    28  C    0.074847
    29  C    0.076174
    30  C    0.035131
    31  C   -0.004504
    32  N   -0.310471
    33  C    0.080424
    34  C   -0.169732
    35  C    0.008324
    36  C    0.082979
    37  C    0.127313
    38  C    0.046096
    39  O   -0.188523
    40  C   -0.005344
    41  C    0.212858
    42  O   -0.257061
    43  O   -0.304812
    44  C    0.157701
    45  H   -0.017606
    46  H   -0.016824
    47  H   -0.041528
    48  H    0.000894
    49  H   -0.004008
    50  H    0.025437
    51  H    0.016436
    52  H    0.016637
    53  H    0.011267
    54  H    0.044137
    55  H    0.017814
    56  H    0.017984
    57  H    0.005872
    58  H    0.026815
    59  H    0.039655
    60  H    0.037318
    61  H    0.035705
    62  H    0.031591
    63  H    0.016592
    64  H    0.009409
    65  H    0.023215
    66  H    0.012526
    67  H    0.004709
    68  H    0.006349
    69  H    0.004691
    70  H    0.008820
    71  H    0.018166
    72  H    0.029007
    73  H    0.047538
    74  H    0.009097
    75  H    0.045947
    76  H    0.035101
    77  H    0.042876
    78  H    0.046416
    79  H    0.053699
    80  Mg   0.837948
    81  C   -0.016835
    82  C   -0.087775
    83  C   -0.045500
    84  C   -0.064896
    85  N   -0.254583
    86  C   -0.049864
    87  C   -0.015078
    88  C   -0.090513
    89  C    0.045774
    90  C    0.114376
    91  C    0.062520
    92  C   -0.077917
    93  H    0.034926
    94  N   -0.423505
    95  C    0.162943
    96  C   -0.174590
    97  C   -0.007774
    98  C    0.152127
    99  C    0.099357
   100  C    0.015614
   101  O   -0.253140
   102  C    0.061166
   103  N   -0.350081
   104  C    0.037520
   105  C   -0.019824
   106  C   -0.034817
   107  C    0.088927
   108  C    0.073654
   109  C    0.034729
   110  C   -0.007685
   111  N   -0.324106
   112  C    0.078453
   113  C   -0.163151
   114  C    0.002209
   115  C    0.096200
   116  C    0.131486
   117  C    0.042367
   118  O   -0.187930
   119  C    0.000914
   120  C    0.211243
   121  O   -0.250976
   122  O   -0.305644
   123  C    0.152034
   124  H   -0.019639
   125  H   -0.015536
   126  H   -0.040478
   127  H   -0.000679
   128  H   -0.004289
   129  H    0.022428
   130  H    0.014416
   131  H    0.016289
   132  H    0.013976
   133  H    0.037689
   134  H    0.020750
   135  H    0.019634
   136  H    0.008771
   137  H    0.026165
   138  H    0.039905
   139  H    0.038249
   140  H    0.036478
   141  H    0.033978
   142  H    0.014451
   143  H    0.012382
   144  H    0.025175
   145  H    0.011621
   146  H    0.005644
   147  H    0.006277
   148  H    0.003626
   149  H    0.010982
   150  H    0.017969
   151  H    0.030109
   152  H    0.045990
   153  H    0.008512
   154  H    0.046891
   155  H    0.034990
   156  H    0.043865
   157  H    0.049514
   158  H    0.053590
 Sum of Mulliken charges =  -0.00000

 Dipole moment (field-independent basis, Debye):
    X=              0.0602    Y=              3.1493    Z=             -0.2333  Tot=              3.1585
 Quadrupole moment (field-independent basis, Debye-Ang):
   XX=           -393.6707   YY=           -460.0875   ZZ=           -539.1921
   XY=              1.3847   XZ=            117.2802   YZ=              0.2457

 Normal termination of Gaussian 16 at Sun Sep 12 12:44:41 2021.
