 Gaussian 16, Revision A.03,
 Gaussian 16:  ES64L-G16RevA.03 25-Dec-2016

 -----------------------------------
 #p cam-b3lyp/Def2SVP td=(nstates=5)
 -----------------------------------

 --------------------------------
 TDDFT excited states in gaussian
 --------------------------------
 Symbolic Z-matrix:
 Charge =  0 Multiplicity = 1

                         Standard orientation:
 ---------------------------------------------------------------------
 Center     Atomic      Atomic             Coordinates (Angstroms)
 Number     Number       Type             X           Y           Z
 ---------------------------------------------------------------------
      1         12           0       -7.797393   -0.947933    0.140931
      2          6           0       -8.433631    2.573798    0.071460
      3          6           0       -8.705130   -1.026068   -3.147377
      4          6           0       -7.681317   -4.113206    0.296465
      5          6           0       -8.044266   -0.774596    3.612915
      6          7           0       -8.463428    0.638867   -1.251588
      7          6           0       -8.607692    1.957838   -1.169886
      8          6           0       -8.887576    2.635073   -2.544801
      9          6           0       -9.501362    1.384896   -3.320896
     10          6           0       -8.823355    0.264781   -2.551758
     11          6           0      -11.011772    1.248349   -3.158050
     12          6           0       -7.577869    3.149204   -3.231873
     13          6           0       -7.789753    4.104018   -4.410342
     14          1           0       -6.841065    5.188748   -4.612088
     15          7           0       -7.667606   -2.297371   -1.296087
     16          6           0       -8.071268   -2.153258   -2.581222
     17          6           0       -7.760792   -3.434011   -3.252011
     18          6           0       -7.318483   -4.399180   -2.207548
     19          6           0       -7.566334   -3.640041   -1.008525
     20          6           0       -7.848153   -3.628677   -4.734652
     21          6           0       -6.770744   -5.789545   -2.278250
     22          8           0       -6.668967   -6.533915   -1.243779
     23          6           0       -6.434516   -6.295647   -3.621326
     24          7           0       -8.070984   -2.303841    1.704355
     25          6           0       -7.906634   -3.617665    1.515037
     26          6           0       -7.873995   -4.357417    2.819507
     27          6           0       -7.806963   -3.241044    3.959231
     28          6           0       -7.900391   -1.982114    3.062216
     29          6           0       -9.061883   -5.291342    3.089167
     30          6           0       -6.639007   -3.339753    4.972421
     31          6           0       -5.326918   -3.068308    4.271110
     32          7           0       -7.994459    0.627702    1.620656
     33          6           0       -8.101912    0.470857    3.010090
     34          6           0       -8.324776    1.812228    3.580288
     35          6           0       -8.348185    2.659600    2.474278
     36          6           0       -8.178578    1.892616    1.286314
     37          6           0       -8.532960    2.108814    4.956198
     38          6           0       -8.501648    4.031473    2.017912
     39          8           0       -8.580121    5.127164    2.575404
     40          6           0       -8.684969    4.015802    0.436148
     41          6           0       -7.763848    5.057258   -0.138495
     42          8           0       -6.524999    4.922240   -0.072233
     43          8           0       -8.475960    5.921085   -0.878253
     44          6           0       -7.617596    6.963613   -1.501552
     45          1           0       -9.191328   -1.211002   -4.107248
     46          1           0       -7.536053   -5.190021    0.405122
     47          1           0       -8.046279   -0.632071    4.695105
     48          1           0       -9.614787    3.446563   -2.512073
     49          1           0       -9.195923    1.365275   -4.366862
     50          1           0      -11.399757    1.959416   -2.428824
     51          1           0      -11.176563    0.225855   -2.817691
     52          1           0      -11.514100    1.327743   -4.122488
     53          1           0       -7.094228    2.320574   -3.749102
     54          1           0       -6.917852    3.618713   -2.501624
     55          1           0       -8.812550    4.480802   -4.439127
     56          1           0       -7.684582    3.535004   -5.334118
     57          1           0       -8.359082   -2.797093   -5.218349
     58          1           0       -8.500614   -4.484725   -4.905491
     59          1           0       -6.871885   -3.815431   -5.182262
     60          1           0       -7.326800   -6.275214   -4.247394
     61          1           0       -5.973964   -7.271041   -3.468521
     62          1           0       -5.718693   -5.616634   -4.085532
     63          1           0       -6.990656   -4.991042    2.887745
     64          1           0       -8.700934   -3.239483    4.583320
     65          1           0       -8.771749   -6.324693    3.280773
     66          1           0       -9.740881   -5.226941    2.239399
     67          1           0       -9.710093   -4.981532    3.908471
     68          1           0       -6.579611   -4.346034    5.385721
     69          1           0       -6.732543   -2.643773    5.806157
     70          1           0       -5.074937   -4.037625    3.842434
     71          1           0       -4.570362   -2.750469    4.989311
     72          1           0       -5.454663   -2.369561    3.444115
     73          1           0       -7.935427    2.994674    5.171084
     74          1           0       -8.242140    1.271489    5.590165
     75          1           0       -9.608504    2.284868    4.964325
     76          1           0       -9.732422    4.242476    0.239721
     77          1           0       -8.015175    7.931522   -1.196072
     78          1           0       -7.587536    6.742927   -2.568697
     79          1           0       -6.595611    7.033556   -1.127396
     80         12           0        7.966858    0.979948   -0.022390
     81          6           0        8.188522   -2.568097   -0.513645
     82          6           0        7.197940    0.330155    3.236619
     83          6           0        7.323520    4.066035    0.337596
     84          6           0        7.621481    1.296566   -3.475815
     85          7           0        7.751881   -0.915196    1.097651
     86          6           0        7.920220   -2.199533    0.821122
     87          6           0        7.873388   -3.135430    2.058641
     88          6           0        7.004029   -2.201448    3.033710
     89          6           0        7.362138   -0.836905    2.448508
     90          6           0        5.505601   -2.406454    2.885273
     91          6           0        9.299196   -3.414571    2.651250
     92          6           0        9.361614   -4.559739    3.664387
     93          1           0       10.554738   -5.401301    3.690936
     94          7           0        7.833534    2.080531    1.623662
     95          6           0        7.534039    1.651190    2.867550
     96          6           0        7.542102    2.850225    3.719842
     97          6           0        7.708571    4.044541    2.847719
     98          6           0        7.605202    3.431515    1.538678
     99          6           0        7.480020    2.783908    5.218230
    100          6           0        7.912571    5.499654    3.143077
    101          8           0        7.794029    6.394509    2.233125
    102          6           0        8.163131    5.854674    4.547594
    103          7           0        7.323840    2.449782   -1.344684
    104          6           0        7.172393    3.723670   -0.941957
    105          6           0        6.971543    4.647753   -2.119304
    106          6           0        7.262216    3.759548   -3.417072
    107          6           0        7.504346    2.392976   -2.739396
    108          6           0        5.586367    5.283102   -2.237565
    109          6           0        8.331817    4.292340   -4.409412
    110          6           0        9.698762    4.253045   -3.764973
    111          7           0        8.094917   -0.342591   -1.726076
    112          6           0        7.890530   -0.008225   -3.082726
    113          6           0        7.971260   -1.263506   -3.857448
    114          6           0        8.195897   -2.252031   -2.887468
    115          6           0        8.231136   -1.657623   -1.597141
    116          6           0        7.794547   -1.385456   -5.264579
    117          6           0        8.400639   -3.664594   -2.660676
    118          8           0        8.555478   -4.647175   -3.384752
    119          6           0        8.278902   -3.948956   -1.101602
    120          6           0        9.443576   -4.809146   -0.694017
    121          8           0       10.605391   -4.369555   -0.753633
    122          8           0        8.981139   -5.924011   -0.099367
    123          6           0       10.099366   -6.804210    0.332670
    124          1           0        6.728204    0.233093    4.215803
    125          1           0        7.203347    5.150398    0.394046
    126          1           0        7.622024    1.323942   -4.567577
    127          1           0        7.365036   -4.078277    1.896161
    128          1           0        7.346882   -2.277058    4.062347
    129          1           0        5.268507   -3.063791    2.061957
    130          1           0        5.089410   -1.422086    2.715440
    131          1           0        5.077602   -2.755880    3.829228
    132          1           0        9.588819   -2.575981    3.297487
    133          1           0       10.010692   -3.586612    1.867150
    134          1           0        8.455772   -5.177781    3.644208
    135          1           0        9.372534   -4.132961    4.670252
    136          1           0        7.195235    1.782916    5.565120
    137          1           0        6.650537    3.426535    5.532661
    138          1           0        8.398533    3.134411    5.693785
    139          1           0        7.329487    5.518204    5.159380
    140          1           0        8.372184    6.926197    4.545360
    141          1           0        9.047995    5.309024    4.893877
    142          1           0        7.676624    5.469417   -2.090690
    143          1           0        6.364447    3.645607   -4.042268
    144          1           0        5.613889    6.388907   -2.260440
    145          1           0        4.979508    4.934826   -1.412360
    146          1           0        5.005101    4.966028   -3.101735
    147          1           0        8.133834    5.338895   -4.653697
    148          1           0        8.364371    3.743870   -5.344880
    149          1           0        9.724026    5.179311   -3.183181
    150          1           0       10.479419    4.241600   -4.522921
    151          1           0        9.777185    3.418113   -3.058999
    152          1           0        8.568893   -2.052776   -5.618932
    153          1           0        7.847247   -0.416843   -5.757321
    154          1           0        6.787241   -1.809066   -5.298662
    155          1           0        7.323346   -4.447028   -0.933076
    156          1           0        9.928622   -7.784534   -0.122859
    157          1           0       10.107031   -6.756767    1.437858
    158          1           0       11.091835   -6.570377   -0.034434
 ---------------------------------------------------------------------

 SCF Done:  E(RCAM-B3LYP) =  -4069.81179660     A.U. after   19 cycles

 Excitation energies and oscillator strengths:

 Excited State   1:      Singlet-A      1.6701 eV  742.40 nm  f=0.0216  <S**2>=0.000
     309 -> 315        0.10265
     310 -> 316        0.13873
     311 -> 313        0.40715
     312 -> 314        0.55256
 This state for optimization and/or second-order correction.
 Total Energy, E(TD-HF/TD-DFT) =  -4069.75042338
 Copying the excited state density for this state as the 1-particle RhoCI density.

 Excited State   2:      Singlet-A      1.6855 eV  735.61 nm  f=0.7351  <S**2>=0.000
     309 -> 315        0.14246
     310 -> 316       -0.10450
     311 -> 313        0.55173
     312 -> 314       -0.40661

 Excited State   3:      Singlet-A      2.1858 eV  567.22 nm  f=0.0568  <S**2>=0.000
     309 -> 313        0.14324
     310 -> 314        0.62661
     312 -> 316       -0.26589

 Excited State   4:      Singlet-A      2.1933 eV  565.30 nm  f=0.1363  <S**2>=0.000
     309 -> 313        0.62456
     310 -> 314       -0.14216
     311 -> 315       -0.27166

 Excited State   5:      Singlet-A      2.7660 eV  448.24 nm  f=0.0000  <S**2>=0.000
     312 -> 313        0.70710

 The electronic state is 1-A.
 Alpha  occ. eigenvalues --  -46.87835 -46.87590 -19.26311 -19.26302 -19.19112
 Alpha  occ. eigenvalues --  -19.19050 -19.18839 -19.18633 -19.18204 -19.17994
 Alpha  occ. eigenvalues --  -14.42486 -14.42427 -14.41490 -14.41288 -14.39439
 Alpha  occ. eigenvalues --  -14.39280 -14.38626 -14.38532 -10.39110 -10.39040
 Alpha  occ. eigenvalues --  -10.35471 -10.35309 -10.34424 -10.34172 -10.31715
 Alpha  occ. eigenvalues --  -10.31702 -10.31442 -10.31243 -10.30950 -10.30941
 Alpha  occ. eigenvalues --  -10.30608 -10.30547 -10.30330 -10.30296 -10.30248
 Alpha  occ. eigenvalues --  -10.30067 -10.29965 -10.29826 -10.29667 -10.29363
 Alpha  occ. eigenvalues --  -10.29333 -10.29290 -10.28777 -10.28652 -10.28601
 Alpha  occ. eigenvalues --  -10.28561 -10.28399 -10.28334 -10.28145 -10.28069
 Alpha  occ. eigenvalues --  -10.27934 -10.27829 -10.27762 -10.27618 -10.27597
 Alpha  occ. eigenvalues --  -10.27558 -10.27502 -10.27500 -10.27451 -10.27439
 Alpha  occ. eigenvalues --  -10.27415 -10.27395 -10.27383 -10.27301 -10.27191
 Alpha  occ. eigenvalues --  -10.26992 -10.26731 -10.26634 -10.26416 -10.26326
 Alpha  occ. eigenvalues --  -10.26262 -10.26260 -10.26085 -10.26063 -10.25942
 Alpha  occ. eigenvalues --  -10.25892 -10.25868 -10.25811 -10.25483 -10.25302
 Alpha  occ. eigenvalues --  -10.24869 -10.24827 -10.24807 -10.24780 -10.24681
 Alpha  occ. eigenvalues --  -10.24617  -3.16578  -3.16340  -1.91460  -1.91222
 Alpha  occ. eigenvalues --   -1.91046  -1.90888  -1.90811  -1.90647  -1.16660
 Alpha  occ. eigenvalues --   -1.16596  -1.08662  -1.08604  -1.07240  -1.06897
 Alpha  occ. eigenvalues --   -1.06883  -1.06672  -1.04617  -1.04425  -1.03800
 Alpha  occ. eigenvalues --   -1.03593  -1.03272  -1.02969  -1.02450  -1.02042
 Alpha  occ. eigenvalues --   -0.92008  -0.91921  -0.89571  -0.89429  -0.89218
 Alpha  occ. eigenvalues --   -0.89083  -0.88337  -0.88151  -0.87910  -0.87735
 Alpha  occ. eigenvalues --   -0.87709  -0.87615  -0.87301  -0.87043  -0.85013
 Alpha  occ. eigenvalues --   -0.84932  -0.83991  -0.83809  -0.82995  -0.82854
 Alpha  occ. eigenvalues --   -0.82679  -0.82583  -0.81619  -0.81539  -0.80630
 Alpha  occ. eigenvalues --   -0.80378  -0.78829  -0.78565  -0.77259  -0.77078
 Alpha  occ. eigenvalues --   -0.76970  -0.76835  -0.75955  -0.75773  -0.74943
 Alpha  occ. eigenvalues --   -0.74730  -0.72814  -0.72633  -0.71709  -0.71509
 Alpha  occ. eigenvalues --   -0.69969  -0.69694  -0.68905  -0.68760  -0.67676
 Alpha  occ. eigenvalues --   -0.67534  -0.67247  -0.67132  -0.65320  -0.65207
 Alpha  occ. eigenvalues --   -0.64892  -0.64705  -0.64659  -0.64590  -0.64317
 Alpha  occ. eigenvalues --   -0.64138  -0.62332  -0.62221  -0.60475  -0.60265
 Alpha  occ. eigenvalues --   -0.59836  -0.59728  -0.59026  -0.58925  -0.58541
 Alpha  occ. eigenvalues --   -0.58360  -0.57619  -0.57497  -0.57348  -0.57168
 Alpha  occ. eigenvalues --   -0.56344  -0.56139  -0.56008  -0.55828  -0.55550
 Alpha  occ. eigenvalues --   -0.55386  -0.55384  -0.55184  -0.54567  -0.54427
 Alpha  occ. eigenvalues --   -0.53925  -0.53845  -0.53335  -0.53250  -0.53161
 Alpha  occ. eigenvalues --   -0.53074  -0.52951  -0.52839  -0.52781  -0.52589
 Alpha  occ. eigenvalues --   -0.52502  -0.52344  -0.51958  -0.51835  -0.51644
 Alpha  occ. eigenvalues --   -0.51591  -0.51236  -0.51141  -0.50594  -0.50395
 Alpha  occ. eigenvalues --   -0.50081  -0.49946  -0.49907  -0.49794  -0.49543
 Alpha  occ. eigenvalues --   -0.49416  -0.49247  -0.49135  -0.49127  -0.49040
 Alpha  occ. eigenvalues --   -0.48628  -0.48503  -0.48495  -0.48473  -0.48307
 Alpha  occ. eigenvalues --   -0.48263  -0.47729  -0.47525  -0.47330  -0.47045
 Alpha  occ. eigenvalues --   -0.46839  -0.46643  -0.46585  -0.46486  -0.46398
 Alpha  occ. eigenvalues --   -0.46204  -0.46203  -0.46021  -0.45859  -0.45766
 Alpha  occ. eigenvalues --   -0.45248  -0.45133  -0.44614  -0.44539  -0.44453
 Alpha  occ. eigenvalues --   -0.44409  -0.44188  -0.44119  -0.44060  -0.44049
 Alpha  occ. eigenvalues --   -0.44012  -0.43869  -0.43530  -0.43497  -0.43423
 Alpha  occ. eigenvalues --   -0.43318  -0.43065  -0.42874  -0.42839  -0.42740
 Alpha  occ. eigenvalues --   -0.42701  -0.42485  -0.42058  -0.41902  -0.41741
 Alpha  occ. eigenvalues --   -0.41605  -0.41566  -0.41393  -0.41177  -0.40918
 Alpha  occ. eigenvalues --   -0.40908  -0.40848  -0.40652  -0.40627  -0.40619
 Alpha  occ. eigenvalues --   -0.40426  -0.40261  -0.40161  -0.39507  -0.39364
 Alpha  occ. eigenvalues --   -0.38517  -0.38280  -0.37779  -0.37591  -0.37366
 Alpha  occ. eigenvalues --   -0.37295  -0.37199  -0.37132  -0.36749  -0.36717
 Alpha  occ. eigenvalues --   -0.36232  -0.36152  -0.34324  -0.34186  -0.33809
 Alpha  occ. eigenvalues --   -0.33802  -0.33224  -0.33107  -0.31369  -0.31192
 Alpha  occ. eigenvalues --   -0.31072  -0.30903  -0.30064  -0.29900  -0.29483
 Alpha  occ. eigenvalues --   -0.29359  -0.29255  -0.29146  -0.24119  -0.23966
 Alpha  occ. eigenvalues --   -0.21166  -0.21047
 Alpha virt. eigenvalues --   -0.08810  -0.08722  -0.01788  -0.01612  -0.00087
 Alpha virt. eigenvalues --    0.00046   0.02163   0.02270   0.03074   0.03289
 Alpha virt. eigenvalues --    0.04683   0.04799   0.05068   0.05217   0.06149

 Mulliken charges:
               1
     1  Mg   0.838583
     2  C   -0.002919
     3  C   -0.093987
     4  C   -0.045929
     5  C   -0.064061
     6  N   -0.256788
     7  C   -0.052490
     8  C   -0.014009
     9  C   -0.087022
    10  C    0.046332
    11  C    0.104779
    12  C    0.053447
    13  C   -0.071842
    14  H    0.036154
    15  N   -0.433184
    16  C    0.168432
    17  C   -0.176997
    18  C   -0.003921
    19  C    0.148738
    20  C    0.110129
    21  C    0.012348
    22  O   -0.249644
    23  C    0.062426
    24  N   -0.341084
    25  C    0.041238
    26  C   -0.028214
    27  C   -0.023866
    28  C    0.074691
    29  C    0.076140
    30  C    0.035203
    31  C   -0.004426
    32  N   -0.310421
    33  C    0.080274
    34  C   -0.169921
    35  C    0.008360
    36  C    0.082878
    37  C    0.127363
    38  C    0.046062
    39  O   -0.188458
    40  C   -0.005305
    41  C    0.212896
    42  O   -0.257165
    43  O   -0.304777
    44  C    0.157658
    45  H   -0.017422
    46  H   -0.016828
    47  H   -0.041736
    48  H    0.000996
    49  H   -0.003914
    50  H    0.025497
    51  H    0.016455
    52  H    0.016791
    53  H    0.011215
    54  H    0.044077
    55  H    0.017930
    56  H    0.018027
    57  H    0.005955
    58  H    0.026987
    59  H    0.039850
    60  H    0.037422
    61  H    0.035924
    62  H    0.031715
    63  H    0.016414
    64  H    0.009472
    65  H    0.023211
    66  H    0.012716
    67  H    0.004750
    68  H    0.006234
    69  H    0.004550
    70  H    0.008750
    71  H    0.017379
    72  H    0.029167
    73  H    0.047404
    74  H    0.008843
    75  H    0.046067
    76  H    0.035218
    77  H    0.043023
    78  H    0.046442
    79  H    0.053717
    80  Mg   0.837929
    81  C   -0.016855
    82  C   -0.087682
    83  C   -0.045219
    84  C   -0.064904
    85  N   -0.254561
    86  C   -0.049891
    87  C   -0.015109
    88  C   -0.090521
    89  C    0.045797
    90  C    0.114304
    91  C    0.062535
    92  C   -0.077823
    93  H    0.034661
    94  N   -0.423605
    95  C    0.163049
    96  C   -0.174268
    97  C   -0.007562
    98  C    0.152191
    99  C    0.099203
   100  C    0.015773
   101  O   -0.252983
   102  C    0.061160
   103  N   -0.350010
   104  C    0.037680
   105  C   -0.019933
   106  C   -0.034697
   107  C    0.088900
   108  C    0.073487
   109  C    0.034775
   110  C   -0.007640
   111  N   -0.324037
   112  C    0.078365
   113  C   -0.163358
   114  C    0.002127
   115  C    0.096138
   116  C    0.131516
   117  C    0.042202
   118  O   -0.188282
   119  C    0.000962
   120  C    0.211208
   121  O   -0.251104
   122  O   -0.305601
   123  C    0.152091
   124  H   -0.019420
   125  H   -0.015324
   126  H   -0.040786
   127  H   -0.000679
   128  H   -0.004405
   129  H    0.022502
   130  H    0.014879
   131  H    0.016303
   132  H    0.013890
   133  H    0.037579
   134  H    0.020807
   135  H    0.019578
   136  H    0.008780
   137  H    0.026727
   138  H    0.039716
   139  H    0.038620
   140  H    0.036466
   141  H    0.033680
   142  H    0.014301
   143  H    0.012274
   144  H    0.025194
   145  H    0.012485
   146  H    0.005637
   147  H    0.006164
   148  H    0.003347
   149  H    0.010968
   150  H    0.017684
   151  H    0.030155
   152  H    0.045758
   153  H    0.008299
   154  H    0.046629
   155  H    0.035019
   156  H    0.043781
   157  H    0.049517
   158  H    0.053467
 Sum of Mulliken charges =  -0.00000

 Dipole moment (field-independent basis, Debye):
    X=             -3.9322    Y=             -1.1846    Z=              0.1450  Tot=              4.1093
 Quadrupole moment (field-independent basis, Debye-Ang):
   XX=           -521.3225   YY=           -549.7431   ZZ=           -447.9766
   XY=             23.6065   XZ=             69.9944   YZ=            -45.7255

 Normal termination of Gaussian 16 at Sat Sep  4 13:19:26 2021.
