 Gaussian 16, Revision A.03,
 Gaussian 16:  ES64L-G16RevA.03 25-Dec-2016

 -----------------------------------
 #p cam-b3lyp/Def2SVP td=(nstates=5)
 -----------------------------------

 --------------------------------
 TDDFT excited states in gaussian
 --------------------------------
 Symbolic Z-matrix:
 Charge =  0 Multiplicity = 1

                         Standard orientation:
 ---------------------------------------------------------------------
 Center     Atomic      Atomic             Coordinates (Angstroms)
 Number     Number       Type             X           Y           Z
 ---------------------------------------------------------------------
      1         12           0      -15.561480    0.642168   -0.335325
      2          6           0      -15.837822   -2.437568    1.467748
      3          6           0      -16.480882    2.235010    2.538805
      4          6           0      -15.766287    3.323848   -2.015583
      5          6           0      -15.780628   -1.226536   -3.268852
      6          7           0      -16.066889   -0.114508    1.682755
      7          6           0      -16.076571   -1.312137    2.259612
      8          6           0      -16.289923   -1.253353    3.801818
      9          6           0      -17.029196    0.155834    3.900137
     10          6           0      -16.466193    0.813065    2.652339
     11          6           0      -18.545246    0.059393    3.763049
     12          6           0      -14.936632   -1.246528    4.589400
     13          6           0      -15.053708   -1.518537    6.091951
     14          1           0      -14.000524   -2.276410    6.750571
     15          7           0      -15.572758    2.527040    0.256268
     16          6           0      -15.963032    2.993584    1.466767
     17          6           0      -15.785630    4.460722    1.414644
     18          6           0      -15.440708    4.827839    0.013092
     19          6           0      -15.607300    3.560991   -0.652281
     20          6           0      -15.896061    5.346146    2.617798
     21          6           0      -15.036832    6.118229   -0.627150
     22          8           0      -15.008344    6.268061   -1.896525
     23          6           0      -14.757050    7.243752    0.282774
     24          7           0      -15.967029    1.030723   -2.345845
     25          6           0      -15.937118    2.278256   -2.827248
     26          6           0      -15.976252    2.285982   -4.326697
     27          6           0      -15.793543    0.766275   -4.781515
     28          6           0      -15.761241    0.103436   -3.382275
     29          6           0      -17.251952    2.858346   -4.959943
     30          6           0      -14.639005    0.461688   -5.768779
     31          6           0      -13.307967    0.686319   -5.086887
     32          7           0      -15.594109   -1.465921   -0.851017
     33          6           0      -15.713339   -2.018187   -2.134552
     34          6           0      -15.797697   -3.480942   -1.969324
     35          6           0      -15.737968   -3.678200   -0.591149
     36          6           0      -15.649984   -2.416959    0.064459
     37          6           0      -15.971237   -4.429181   -3.015824
     38          6           0      -15.752822   -4.659712    0.481357
     39          8           0      -15.718455   -5.890081    0.531388
     40          6           0      -15.940838   -3.889824    1.862570
     41          6           0      -14.920418   -4.430442    2.826824
     42          8           0      -13.701458   -4.234567    2.644796
     43          8           0      -15.543242   -4.882641    3.925982
     44          6           0      -14.585272   -5.406047    4.936178
     45          1           0      -16.985771    2.820849    3.309402
     46          1           0      -15.730588    4.218397   -2.640840
     47          1           0      -15.765419   -1.879089   -4.143721
     48          1           0      -16.931092   -2.038854    4.202210
     49          1           0      -16.729997    0.711219    4.788815
     50          1           0      -18.857326   -0.948790    3.490847
     51          1           0      -18.811909    0.765807    2.976689
     52          1           0      -19.039415    0.416598    4.666918
     53          1           0      -14.540757   -0.231298    4.614939
     54          1           0      -14.230575   -1.951604    4.149313
     55          1           0      -16.033139   -1.923189    6.348620
     56          1           0      -15.009093   -0.563959    6.616347
     57          1           0      -16.321348    4.814876    3.468343
     58          1           0      -16.632330    6.114108    2.381466
     59          1           0      -14.944886    5.814421    2.871406
     60          1           0      -15.644273    7.451874    0.881163
     61          1           0      -14.397298    8.056971   -0.346595
     62          1           0      -13.977309    6.945356    0.984139
     63          1           0      -15.161481    2.881781   -4.736084
     64          1           0      -16.681154    0.379900   -5.283047
     65          1           0      -17.067514    3.687636   -5.643292
     66          1           0      -17.923106    3.156708   -4.155068
     67          1           0      -17.863338    2.131096   -5.493545
     68          1           0      -14.680806    1.138496   -6.621498
     69          1           0      -14.659413   -0.558058   -6.153425
     70          1           0      -13.156587    1.759629   -5.196071
     71          1           0      -12.521266    0.127423   -5.594772
     72          1           0      -13.366381    0.472401   -4.019501
     73          1           0      -15.286481   -5.249459   -2.800834
     74          1           0      -15.765123   -3.986069   -3.989873
     75          1           0      -17.023386   -4.682373   -2.886470
     76          1           0      -16.960436   -4.084503    2.193693
     77          1           0      -14.881959   -6.431004    5.159054
     78          1           0      -14.580459   -4.690491    5.758590
     79          1           0      -13.560504   -5.557918    4.595407
     80         12           0       16.170073    0.285410    0.352751
     81          6           0       14.066938   -1.701082   -1.770873
     82          6           0       14.620754    3.036523   -0.937820
     83          6           0       18.305691    2.076593    1.868726
     84          6           0       18.283130   -2.474244    0.607683
     85          7           0       14.565686    0.509973   -1.153164
     86          6           0       13.799755   -0.318244   -1.847245
     87          6           0       12.633312    0.368575   -2.607007
     88          6           0       13.260584    1.841798   -2.729547
     89          6           0       14.183219    1.816605   -1.512677
     90          6           0       14.114315    2.030922   -3.972414
     91          6           0       11.302347    0.378264   -1.776077
     92          6           0       10.050117    0.752963   -2.571852
     93          1           0        8.789306    0.097805   -2.234805
     94          7           0       16.123533    2.210893    0.831191
     95          6           0       15.422835    3.185799    0.214885
     96          6           0       15.744184    4.428288    0.933986
     97          6           0       16.818643    4.134604    1.920891
     98          6           0       17.145994    2.770829    1.556157
     99          6           0       15.000090    5.712923    0.711516
    100          6           0       17.456037    4.950931    3.004195
    101          8           0       18.535279    4.574674    3.584283
    102          6           0       16.831468    6.248355    3.300985
    103          7           0       18.129315   -0.062599    0.954917
    104          6           0       18.816134    0.865780    1.643612
    105          6           0       20.095595    0.292831    2.204955
    106          6           0       20.007048   -1.283982    1.953129
    107          6           0       18.673657   -1.341629    1.175868
    108          6           0       21.389588    0.833203    1.596724
    109          6           0       20.181191   -2.205327    3.191458
    110          6           0       19.009781   -2.033394    4.131476
    111          7           0       16.109919   -1.782446   -0.270471
    112          6           0       17.112551   -2.759138   -0.083660
    113          6           0       16.663997   -3.982289   -0.780162
    114          6           0       15.432418   -3.622388   -1.347764
    115          6           0       15.143988   -2.264306   -1.044587
    116          6           0       17.390366   -5.203254   -0.868222
    117          6           0       14.315797   -4.079382   -2.143390
    118          8           0       13.967280   -5.163304   -2.609624
    119          6           0       13.441974   -2.818460   -2.559224
    120          6           0       11.998525   -3.144269   -2.289382
    121          8           0       11.597821   -3.323240   -1.125755
    122          8           0       11.290076   -2.977093   -3.420984
    123          6           0        9.850226   -3.277695   -3.201207
    124          1           0       14.361139    3.969083   -1.439644
    125          1           0       19.026525    2.616824    2.486814
    126          1           0       18.839316   -3.407053    0.722572
    127          1           0       12.434018   -0.033882   -3.592954
    128          1           0       12.497390    2.606954   -2.613627
    129          1           0       14.255104    1.104588   -4.509276
    130          1           0       15.064051    2.412990   -3.621573
    131          1           0       13.689515    2.814920   -4.605828
    132          1           0       11.330192    1.214001   -1.065084
    133          1           0       11.151322   -0.564683   -1.287526
    134          1           0       10.223880    0.718318   -3.654240
    135          1           0        9.812502    1.800630   -2.371962
    136          1           0       14.377385    5.666085   -0.190392
    137          1           0       15.748018    6.480670    0.485621
    138          1           0       14.426892    6.024764    1.587218
    139          1           0       16.824720    6.859996    2.401922
    140          1           0       17.373761    6.643564    4.162160
    141          1           0       15.783966    6.078157    3.573710
    142          1           0       20.166278    0.475135    3.270265
    143          1           0       20.789062   -1.630718    1.261711
    144          1           0       22.073466    1.274056    2.346421
    145          1           0       21.132570    1.563238    0.840723
    146          1           0       21.971254    0.108402    1.029683
    147          1           0       21.074224   -1.920217    3.753027
    148          1           0       20.281831   -3.255349    2.937849
    149          1           0       19.284349   -1.144959    4.708004
    150          1           0       18.904014   -2.904415    4.775046
    151          1           0       18.093006   -1.797365    3.578788
    152          1           0       16.680196   -6.001120   -0.696291
    153          1           0       18.205635   -5.233654   -0.148369
    154          1           0       17.753684   -5.140261   -1.897447
    155          1           0       13.627403   -2.625709   -3.616600
    156          1           0        9.567754   -4.040559   -3.933285
    157          1           0        9.329061   -2.303817   -3.261942
    158          1           0        9.575841   -3.764010   -2.272409
 ---------------------------------------------------------------------

 SCF Done:  E(RCAM-B3LYP) =  -4069.81176183     A.U. after   19 cycles

 Excitation energies and oscillator strengths:

 Excited State   1:      Singlet-A      1.6753 eV  740.06 nm  f=0.2076  <S**2>=0.000
     310 -> 316       -0.16823
     311 -> 314       -0.16792
     312 -> 313        0.66519
     310 <- 316       -0.10141
 This state for optimization and/or second-order correction.
 Total Energy, E(TD-HF/TD-DFT) =  -4069.75019505
 Copying the excited state density for this state as the 1-particle RhoCI density.

 Excited State   2:      Singlet-A      1.6801 eV  737.95 nm  f=0.5696  <S**2>=0.000
     309 -> 315        0.17024
     311 -> 314        0.66482
     312 -> 313        0.16787
     309 <- 315        0.10192

 Excited State   3:      Singlet-A      2.1861 eV  567.16 nm  f=0.1007  <S**2>=0.000
     310 -> 313        0.64235
     312 -> 316        0.27301

 Excited State   4:      Singlet-A      2.1925 eV  565.50 nm  f=0.1004  <S**2>=0.000
     309 -> 314        0.64057
     311 -> 315       -0.27819

 Excited State   5:      Singlet-A      3.0658 eV  404.41 nm  f=0.0000  <S**2>=0.000
     311 -> 313        0.70710

 The electronic state is 1-A.
 Alpha  occ. eigenvalues --  -46.87790 -46.87659 -19.26334 -19.26267 -19.19148
 Alpha  occ. eigenvalues --  -19.19004 -19.18812 -19.18715 -19.18159 -19.18046
 Alpha  occ. eigenvalues --  -14.42495 -14.42442 -14.41443 -14.41358 -14.39396
 Alpha  occ. eigenvalues --  -14.39351 -14.38598 -14.38579 -10.39078 -10.39065
 Alpha  occ. eigenvalues --  -10.35446 -10.35393 -10.34379 -10.34223 -10.31735
 Alpha  occ. eigenvalues --  -10.31659 -10.31396 -10.31306 -10.31020 -10.30901
 Alpha  occ. eigenvalues --  -10.30562 -10.30501 -10.30396 -10.30358 -10.30202
 Alpha  occ. eigenvalues --  -10.30141 -10.29915 -10.29894 -10.29624 -10.29436
 Alpha  occ. eigenvalues --  -10.29399 -10.29248 -10.28738 -10.28712 -10.28638
 Alpha  occ. eigenvalues --  -10.28523 -10.28403 -10.28357 -10.28135 -10.28106
 Alpha  occ. eigenvalues --  -10.27999 -10.27786 -10.27720 -10.27667 -10.27578
 Alpha  occ. eigenvalues --  -10.27520 -10.27498 -10.27481 -10.27476 -10.27467
 Alpha  occ. eigenvalues --  -10.27464 -10.27446 -10.27395 -10.27378 -10.27147
 Alpha  occ. eigenvalues --  -10.27044 -10.26692 -10.26682 -10.26417 -10.26410
 Alpha  occ. eigenvalues --  -10.26224 -10.26182 -10.26140 -10.26021 -10.26013
 Alpha  occ. eigenvalues --  -10.25934 -10.25850 -10.25834 -10.25433 -10.25402
 Alpha  occ. eigenvalues --  -10.24871 -10.24825 -10.24782 -10.24733 -10.24689
 Alpha  occ. eigenvalues --  -10.24687  -3.16533  -3.16409  -1.91414  -1.91291
 Alpha  occ. eigenvalues --   -1.91001  -1.90880  -1.90843  -1.90717  -1.16628
 Alpha  occ. eigenvalues --   -1.16616  -1.08653  -1.08616  -1.07214  -1.06967
 Alpha  occ. eigenvalues --   -1.06932  -1.06627  -1.04573  -1.04493  -1.03754
 Alpha  occ. eigenvalues --   -1.03662  -1.03227  -1.03038  -1.02404  -1.02110
 Alpha  occ. eigenvalues --   -0.91984  -0.91963  -0.89515  -0.89494  -0.89178
 Alpha  occ. eigenvalues --   -0.89146  -0.88282  -0.88221  -0.87862  -0.87792
 Alpha  occ. eigenvalues --   -0.87681  -0.87665  -0.87269  -0.87120  -0.84995
 Alpha  occ. eigenvalues --   -0.84973  -0.83932  -0.83876  -0.82964  -0.82932
 Alpha  occ. eigenvalues --   -0.82648  -0.82640  -0.81588  -0.81574  -0.80588
 Alpha  occ. eigenvalues --   -0.80437  -0.78791  -0.78634  -0.77211  -0.77141
 Alpha  occ. eigenvalues --   -0.76924  -0.76893  -0.75913  -0.75833  -0.74892
 Alpha  occ. eigenvalues --   -0.74802  -0.72767  -0.72697  -0.71665  -0.71579
 Alpha  occ. eigenvalues --   -0.69904  -0.69759  -0.68864  -0.68822  -0.67634
 Alpha  occ. eigenvalues --   -0.67599  -0.67210  -0.67194  -0.65277  -0.65266
 Alpha  occ. eigenvalues --   -0.64845  -0.64767  -0.64648  -0.64612  -0.64264
 Alpha  occ. eigenvalues --   -0.64203  -0.62286  -0.62270  -0.60437  -0.60339
 Alpha  occ. eigenvalues --   -0.59795  -0.59792  -0.58990  -0.58980  -0.58496
 Alpha  occ. eigenvalues --   -0.58422  -0.57573  -0.57547  -0.57302  -0.57235
 Alpha  occ. eigenvalues --   -0.56302  -0.56202  -0.55965  -0.55877  -0.55514
 Alpha  occ. eigenvalues --   -0.55448  -0.55332  -0.55245  -0.54514  -0.54483
 Alpha  occ. eigenvalues --   -0.53907  -0.53885  -0.53292  -0.53226  -0.53214
 Alpha  occ. eigenvalues --   -0.53137  -0.52905  -0.52896  -0.52750  -0.52666
 Alpha  occ. eigenvalues --   -0.52435  -0.52402  -0.51906  -0.51883  -0.51653
 Alpha  occ. eigenvalues --   -0.51607  -0.51197  -0.51187  -0.50569  -0.50475
 Alpha  occ. eigenvalues --   -0.50027  -0.49977  -0.49913  -0.49868  -0.49507
 Alpha  occ. eigenvalues --   -0.49485  -0.49206  -0.49198  -0.49100  -0.49086
 Alpha  occ. eigenvalues --   -0.48583  -0.48553  -0.48457  -0.48438  -0.48375
 Alpha  occ. eigenvalues --   -0.48337  -0.47687  -0.47591  -0.47290  -0.47116
 Alpha  occ. eigenvalues --   -0.46790  -0.46707  -0.46549  -0.46545  -0.46352
 Alpha  occ. eigenvalues --   -0.46268  -0.46155  -0.46083  -0.45816  -0.45811
 Alpha  occ. eigenvalues --   -0.45209  -0.45196  -0.44568  -0.44509  -0.44501
 Alpha  occ. eigenvalues --   -0.44472  -0.44139  -0.44124  -0.44079  -0.44076
 Alpha  occ. eigenvalues --   -0.44011  -0.43936  -0.43545  -0.43484  -0.43381
 Alpha  occ. eigenvalues --   -0.43378  -0.43019  -0.42923  -0.42895  -0.42689
 Alpha  occ. eigenvalues --   -0.42646  -0.42554  -0.42003  -0.41962  -0.41696
 Alpha  occ. eigenvalues --   -0.41666  -0.41524  -0.41454  -0.41133  -0.40987
 Alpha  occ. eigenvalues --   -0.40861  -0.40819  -0.40719  -0.40695  -0.40566
 Alpha  occ. eigenvalues --   -0.40492  -0.40223  -0.40219  -0.39438  -0.39427
 Alpha  occ. eigenvalues --   -0.38464  -0.38350  -0.37737  -0.37646  -0.37315
 Alpha  occ. eigenvalues --   -0.37265  -0.37254  -0.37195  -0.36761  -0.36701
 Alpha  occ. eigenvalues --   -0.36213  -0.36183  -0.34279  -0.34251  -0.33851
 Alpha  occ. eigenvalues --   -0.33757  -0.33179  -0.33174  -0.31342  -0.31274
 Alpha  occ. eigenvalues --   -0.31028  -0.30971  -0.30018  -0.29950  -0.29443
 Alpha  occ. eigenvalues --   -0.29326  -0.29314  -0.29210  -0.24073  -0.24034
 Alpha  occ. eigenvalues --   -0.21121  -0.21116
 Alpha virt. eigenvalues --   -0.08790  -0.08767  -0.01743  -0.01683  -0.00052
 Alpha virt. eigenvalues --   -0.00027   0.02208   0.02210   0.03127   0.03229
 Alpha virt. eigenvalues --    0.04727   0.04734   0.05112   0.05177   0.06189

 Mulliken charges:
               1
     1  Mg   0.838699
     2  C   -0.002933
     3  C   -0.094104
     4  C   -0.045933
     5  C   -0.063960
     6  N   -0.256783
     7  C   -0.052454
     8  C   -0.014012
     9  C   -0.086981
    10  C    0.046320
    11  C    0.104808
    12  C    0.053459
    13  C   -0.071841
    14  H    0.036239
    15  N   -0.433138
    16  C    0.168407
    17  C   -0.177153
    18  C   -0.004039
    19  C    0.148728
    20  C    0.110172
    21  C    0.012253
    22  O   -0.249693
    23  C    0.062495
    24  N   -0.341127
    25  C    0.041256
    26  C   -0.028165
    27  C   -0.023947
    28  C    0.074811
    29  C    0.076175
    30  C    0.035129
    31  C   -0.004488
    32  N   -0.310468
    33  C    0.080420
    34  C   -0.169706
    35  C    0.008391
    36  C    0.082989
    37  C    0.127306
    38  C    0.046143
    39  O   -0.188356
    40  C   -0.005354
    41  C    0.212905
    42  O   -0.257080
    43  O   -0.304809
    44  C    0.157656
    45  H   -0.017598
    46  H   -0.016891
    47  H   -0.041497
    48  H    0.000967
    49  H   -0.004014
    50  H    0.025484
    51  H    0.016422
    52  H    0.016670
    53  H    0.011194
    54  H    0.044153
    55  H    0.017875
    56  H    0.017947
    57  H    0.005898
    58  H    0.026800
    59  H    0.039528
    60  H    0.037355
    61  H    0.035569
    62  H    0.031490
    63  H    0.016495
    64  H    0.009461
    65  H    0.023159
    66  H    0.012558
    67  H    0.004750
    68  H    0.006315
    69  H    0.004749
    70  H    0.008719
    71  H    0.018119
    72  H    0.029018
    73  H    0.047621
    74  H    0.009097
    75  H    0.046022
    76  H    0.035168
    77  H    0.042994
    78  H    0.046413
    79  H    0.053750
    80  Mg   0.837883
    81  C   -0.016808
    82  C   -0.087779
    83  C   -0.045511
    84  C   -0.064918
    85  N   -0.254573
    86  C   -0.049830
    87  C   -0.015085
    88  C   -0.090502
    89  C    0.045769
    90  C    0.114371
    91  C    0.062520
    92  C   -0.077981
    93  H    0.035114
    94  N   -0.423500
    95  C    0.162904
    96  C   -0.174624
    97  C   -0.007833
    98  C    0.152104
    99  C    0.099376
   100  C    0.015576
   101  O   -0.253211
   102  C    0.061188
   103  N   -0.350079
   104  C    0.037505
   105  C   -0.019825
   106  C   -0.034815
   107  C    0.088940
   108  C    0.073657
   109  C    0.034743
   110  C   -0.007693
   111  N   -0.324119
   112  C    0.078459
   113  C   -0.163130
   114  C    0.002259
   115  C    0.096203
   116  C    0.131487
   117  C    0.042402
   118  O   -0.187779
   119  C    0.000922
   120  C    0.211284
   121  O   -0.250986
   122  O   -0.305655
   123  C    0.151975
   124  H   -0.019650
   125  H   -0.015598
   126  H   -0.040466
   127  H   -0.000607
   128  H   -0.004283
   129  H    0.022460
   130  H    0.014384
   131  H    0.016302
   132  H    0.013905
   133  H    0.037719
   134  H    0.020793
   135  H    0.019592
   136  H    0.008782
   137  H    0.026118
   138  H    0.039794
   139  H    0.038249
   140  H    0.036373
   141  H    0.033907
   142  H    0.014393
   143  H    0.012396
   144  H    0.025121
   145  H    0.011628
   146  H    0.005654
   147  H    0.006241
   148  H    0.003656
   149  H    0.010923
   150  H    0.017949
   151  H    0.030132
   152  H    0.046058
   153  H    0.008498
   154  H    0.046929
   155  H    0.035033
   156  H    0.044002
   157  H    0.049536
   158  H    0.053668
 Sum of Mulliken charges =  -0.00000

 Dipole moment (field-independent basis, Debye):
    X=             -2.4102    Y=              7.4739    Z=              1.0520  Tot=              7.9230
 Quadrupole moment (field-independent basis, Debye-Ang):
   XX=           -445.9295   YY=           -543.2435   ZZ=           -473.8651
   XY=            -12.9206   XZ=            -58.5399   YZ=             -2.0592

 Normal termination of Gaussian 16 at Sun Sep 12 15:09:50 2021.
